PSF EXT CMAP XPLOR

         2 !NTITLE
* GENERATED BY CHARMM-GUI FF-Converter
* DATE:   08/14/26   08:47:00

     47742 !NATOM
         1 MEMB     1        CHL1     C3       CRL1     0.140000       12.0110           0
         2 MEMB     1        CHL1     H3       HGA1     0.900000E-01   1.00800           0
         3 MEMB     1        CHL1     O3       OHL     -0.660000       15.9994           0
         4 MEMB     1        CHL1     H3'      HOL      0.430000       1.00800           0
         5 MEMB     1        CHL1     C4       CRL2    -0.180000       12.0110           0
         6 MEMB     1        CHL1     H4A      HGA2     0.900000E-01   1.00800           0
         7 MEMB     1        CHL1     H4B      HGA2     0.900000E-01   1.00800           0
         8 MEMB     1        CHL1     C5       CEL1     0.000000       12.0110           0
         9 MEMB     1        CHL1     C6       CEL1    -0.150000       12.0110           0
        10 MEMB     1        CHL1     H6       HEL1     0.150000       1.00800           0
        11 MEMB     1        CHL1     C7       CRL2    -0.180000       12.0110           0
        12 MEMB     1        CHL1     H7A      HGA2     0.900000E-01   1.00800           0
        13 MEMB     1        CHL1     H7B      HGA2     0.900000E-01   1.00800           0
        14 MEMB     1        CHL1     C8       CRL1    -0.900000E-01   12.0110           0
        15 MEMB     1        CHL1     H8       HGA1     0.900000E-01   1.00800           0
        16 MEMB     1        CHL1     C14      CRL1    -0.900000E-01   12.0110           0
        17 MEMB     1        CHL1     H14      HGA1     0.900000E-01   1.00800           0
        18 MEMB     1        CHL1     C15      CRL2    -0.180000       12.0110           0
        19 MEMB     1        CHL1     H15A     HGA2     0.900000E-01   1.00800           0
        20 MEMB     1        CHL1     H15B     HGA2     0.900000E-01   1.00800           0
        21 MEMB     1        CHL1     C16      CRL2    -0.180000       12.0110           0
        22 MEMB     1        CHL1     H16A     HGA2     0.900000E-01   1.00800           0
        23 MEMB     1        CHL1     H16B     HGA2     0.900000E-01   1.00800           0
        24 MEMB     1        CHL1     C17      CRL1    -0.900000E-01   12.0110           0
        25 MEMB     1        CHL1     H17      HGA1     0.900000E-01   1.00800           0
        26 MEMB     1        CHL1     C13      CRL1     0.000000       12.0110           0
        27 MEMB     1        CHL1     C18      CTL3    -0.270000       12.0110           0
        28 MEMB     1        CHL1     H18A     HAL3     0.900000E-01   1.00800           0
        29 MEMB     1        CHL1     H18B     HAL3     0.900000E-01   1.00800           0
        30 MEMB     1        CHL1     H18C     HAL3     0.900000E-01   1.00800           0
        31 MEMB     1        CHL1     C12      CRL2    -0.180000       12.0110           0
        32 MEMB     1        CHL1     H12A     HGA2     0.900000E-01   1.00800           0
        33 MEMB     1        CHL1     H12B     HGA2     0.900000E-01   1.00800           0
        34 MEMB     1        CHL1     C11      CRL2    -0.180000       12.0110           0
        35 MEMB     1        CHL1     H11A     HGA2     0.900000E-01   1.00800           0
        36 MEMB     1        CHL1     H11B     HGA2     0.900000E-01   1.00800           0
        37 MEMB     1        CHL1     C9       CRL1    -0.900000E-01   12.0110           0
        38 MEMB     1        CHL1     H9       HGA1     0.900000E-01   1.00800           0
        39 MEMB     1        CHL1     C10      CRL1     0.000000       12.0110           0
        40 MEMB     1        CHL1     C19      CTL3    -0.270000       12.0110           0
        41 MEMB     1        CHL1     H19A     HAL3     0.900000E-01   1.00800           0
        42 MEMB     1        CHL1     H19B     HAL3     0.900000E-01   1.00800           0
        43 MEMB     1        CHL1     H19C     HAL3     0.900000E-01   1.00800           0
        44 MEMB     1        CHL1     C1       CRL2    -0.180000       12.0110           0
        45 MEMB     1        CHL1     H1A      HGA2     0.900000E-01   1.00800           0
        46 MEMB     1        CHL1     H1B      HGA2     0.900000E-01   1.00800           0
        47 MEMB     1        CHL1     C2       CRL2    -0.180000       12.0110           0
        48 MEMB     1        CHL1     H2A      HGA2     0.900000E-01   1.00800           0
        49 MEMB     1        CHL1     H2B      HGA2     0.900000E-01   1.00800           0
        50 MEMB     1        CHL1     C20      CTL1    -0.900000E-01   12.0110           0
        51 MEMB     1        CHL1     H20      HAL1     0.900000E-01   1.00800           0
        52 MEMB     1        CHL1     C21      CTL3    -0.270000       12.0110           0
        53 MEMB     1        CHL1     H21A     HAL3     0.900000E-01   1.00800           0
        54 MEMB     1        CHL1     H21B     HAL3     0.900000E-01   1.00800           0
        55 MEMB     1        CHL1     H21C     HAL3     0.900000E-01   1.00800           0
        56 MEMB     1        CHL1     C22      CTL2    -0.180000       12.0110           0
        57 MEMB     1        CHL1     H22A     HAL2     0.900000E-01   1.00800           0
        58 MEMB     1        CHL1     H22B     HAL2     0.900000E-01   1.00800           0
        59 MEMB     1        CHL1     C23      CTL2    -0.180000       12.0110           0
        60 MEMB     1        CHL1     H23A     HAL2     0.900000E-01   1.00800           0
        61 MEMB     1        CHL1     H23B     HAL2     0.900000E-01   1.00800           0
        62 MEMB     1        CHL1     C24      CTL2    -0.180000       12.0110           0
        63 MEMB     1        CHL1     H24A     HAL2     0.900000E-01   1.00800           0
        64 MEMB     1        CHL1     H24B     HAL2     0.900000E-01   1.00800           0
        65 MEMB     1        CHL1     C25      CTL1    -0.900000E-01   12.0110           0
        66 MEMB     1        CHL1     H25      HAL1     0.900000E-01   1.00800           0
        67 MEMB     1        CHL1     C26      CTL3    -0.270000       12.0110           0
        68 MEMB     1        CHL1     H26A     HAL3     0.900000E-01   1.00800           0
        69 MEMB     1        CHL1     H26B     HAL3     0.900000E-01   1.00800           0
        70 MEMB     1        CHL1     H26C     HAL3     0.900000E-01   1.00800           0
        71 MEMB     1        CHL1     C27      CTL3    -0.270000       12.0110           0
        72 MEMB     1        CHL1     H27A     HAL3     0.900000E-01   1.00800           0
        73 MEMB     1        CHL1     H27B     HAL3     0.900000E-01   1.00800           0
        74 MEMB     1        CHL1     H27C     HAL3     0.900000E-01   1.00800           0
        75 MEMB     4        CHL1     C3       CRL1     0.140000       12.0110           0
        76 MEMB     4        CHL1     H3       HGA1     0.900000E-01   1.00800           0
        77 MEMB     4        CHL1     O3       OHL     -0.660000       15.9994           0
        78 MEMB     4        CHL1     H3'      HOL      0.430000       1.00800           0
        79 MEMB     4        CHL1     C4       CRL2    -0.180000       12.0110           0
        80 MEMB     4        CHL1     H4A      HGA2     0.900000E-01   1.00800           0
        81 MEMB     4        CHL1     H4B      HGA2     0.900000E-01   1.00800           0
        82 MEMB     4        CHL1     C5       CEL1     0.000000       12.0110           0
        83 MEMB     4        CHL1     C6       CEL1    -0.150000       12.0110           0
        84 MEMB     4        CHL1     H6       HEL1     0.150000       1.00800           0
        85 MEMB     4        CHL1     C7       CRL2    -0.180000       12.0110           0
        86 MEMB     4        CHL1     H7A      HGA2     0.900000E-01   1.00800           0
        87 MEMB     4        CHL1     H7B      HGA2     0.900000E-01   1.00800           0
        88 MEMB     4        CHL1     C8       CRL1    -0.900000E-01   12.0110           0
        89 MEMB     4        CHL1     H8       HGA1     0.900000E-01   1.00800           0
        90 MEMB     4        CHL1     C14      CRL1    -0.900000E-01   12.0110           0
        91 MEMB     4        CHL1     H14      HGA1     0.900000E-01   1.00800           0
        92 MEMB     4        CHL1     C15      CRL2    -0.180000       12.0110           0
        93 MEMB     4        CHL1     H15A     HGA2     0.900000E-01   1.00800           0
        94 MEMB     4        CHL1     H15B     HGA2     0.900000E-01   1.00800           0
        95 MEMB     4        CHL1     C16      CRL2    -0.180000       12.0110           0
        96 MEMB     4        CHL1     H16A     HGA2     0.900000E-01   1.00800           0
        97 MEMB     4        CHL1     H16B     HGA2     0.900000E-01   1.00800           0
        98 MEMB     4        CHL1     C17      CRL1    -0.900000E-01   12.0110           0
        99 MEMB     4        CHL1     H17      HGA1     0.900000E-01   1.00800           0
       100 MEMB     4        CHL1     C13      CRL1     0.000000       12.0110           0
       101 MEMB     4        CHL1     C18      CTL3    -0.270000       12.0110           0
       102 MEMB     4        CHL1     H18A     HAL3     0.900000E-01   1.00800           0
       103 MEMB     4        CHL1     H18B     HAL3     0.900000E-01   1.00800           0
       104 MEMB     4        CHL1     H18C     HAL3     0.900000E-01   1.00800           0
       105 MEMB     4        CHL1     C12      CRL2    -0.180000       12.0110           0
       106 MEMB     4        CHL1     H12A     HGA2     0.900000E-01   1.00800           0
       107 MEMB     4        CHL1     H12B     HGA2     0.900000E-01   1.00800           0
       108 MEMB     4        CHL1     C11      CRL2    -0.180000       12.0110           0
       109 MEMB     4        CHL1     H11A     HGA2     0.900000E-01   1.00800           0
       110 MEMB     4        CHL1     H11B     HGA2     0.900000E-01   1.00800           0
       111 MEMB     4        CHL1     C9       CRL1    -0.900000E-01   12.0110           0
       112 MEMB     4        CHL1     H9       HGA1     0.900000E-01   1.00800           0
       113 MEMB     4        CHL1     C10      CRL1     0.000000       12.0110           0
       114 MEMB     4        CHL1     C19      CTL3    -0.270000       12.0110           0
       115 MEMB     4        CHL1     H19A     HAL3     0.900000E-01   1.00800           0
       116 MEMB     4        CHL1     H19B     HAL3     0.900000E-01   1.00800           0
       117 MEMB     4        CHL1     H19C     HAL3     0.900000E-01   1.00800           0
       118 MEMB     4        CHL1     C1       CRL2    -0.180000       12.0110           0
       119 MEMB     4        CHL1     H1A      HGA2     0.900000E-01   1.00800           0
       120 MEMB     4        CHL1     H1B      HGA2     0.900000E-01   1.00800           0
       121 MEMB     4        CHL1     C2       CRL2    -0.180000       12.0110           0
       122 MEMB     4        CHL1     H2A      HGA2     0.900000E-01   1.00800           0
       123 MEMB     4        CHL1     H2B      HGA2     0.900000E-01   1.00800           0
       124 MEMB     4        CHL1     C20      CTL1    -0.900000E-01   12.0110           0
       125 MEMB     4        CHL1     H20      HAL1     0.900000E-01   1.00800           0
       126 MEMB     4        CHL1     C21      CTL3    -0.270000       12.0110           0
       127 MEMB     4        CHL1     H21A     HAL3     0.900000E-01   1.00800           0
       128 MEMB     4        CHL1     H21B     HAL3     0.900000E-01   1.00800           0
       129 MEMB     4        CHL1     H21C     HAL3     0.900000E-01   1.00800           0
       130 MEMB     4        CHL1     C22      CTL2    -0.180000       12.0110           0
       131 MEMB     4        CHL1     H22A     HAL2     0.900000E-01   1.00800           0
       132 MEMB     4        CHL1     H22B     HAL2     0.900000E-01   1.00800           0
       133 MEMB     4        CHL1     C23      CTL2    -0.180000       12.0110           0
       134 MEMB     4        CHL1     H23A     HAL2     0.900000E-01   1.00800           0
       135 MEMB     4        CHL1     H23B     HAL2     0.900000E-01   1.00800           0
       136 MEMB     4        CHL1     C24      CTL2    -0.180000       12.0110           0
       137 MEMB     4        CHL1     H24A     HAL2     0.900000E-01   1.00800           0
       138 MEMB     4        CHL1     H24B     HAL2     0.900000E-01   1.00800           0
       139 MEMB     4        CHL1     C25      CTL1    -0.900000E-01   12.0110           0
       140 MEMB     4        CHL1     H25      HAL1     0.900000E-01   1.00800           0
       141 MEMB     4        CHL1     C26      CTL3    -0.270000       12.0110           0
       142 MEMB     4        CHL1     H26A     HAL3     0.900000E-01   1.00800           0
       143 MEMB     4        CHL1     H26B     HAL3     0.900000E-01   1.00800           0
       144 MEMB     4        CHL1     H26C     HAL3     0.900000E-01   1.00800           0
       145 MEMB     4        CHL1     C27      CTL3    -0.270000       12.0110           0
       146 MEMB     4        CHL1     H27A     HAL3     0.900000E-01   1.00800           0
       147 MEMB     4        CHL1     H27B     HAL3     0.900000E-01   1.00800           0
       148 MEMB     4        CHL1     H27C     HAL3     0.900000E-01   1.00800           0
       149 MEMB     6        CHL1     C3       CRL1     0.140000       12.0110           0
       150 MEMB     6        CHL1     H3       HGA1     0.900000E-01   1.00800           0
       151 MEMB     6        CHL1     O3       OHL     -0.660000       15.9994           0
       152 MEMB     6        CHL1     H3'      HOL      0.430000       1.00800           0
       153 MEMB     6        CHL1     C4       CRL2    -0.180000       12.0110           0
       154 MEMB     6        CHL1     H4A      HGA2     0.900000E-01   1.00800           0
       155 MEMB     6        CHL1     H4B      HGA2     0.900000E-01   1.00800           0
       156 MEMB     6        CHL1     C5       CEL1     0.000000       12.0110           0
       157 MEMB     6        CHL1     C6       CEL1    -0.150000       12.0110           0
       158 MEMB     6        CHL1     H6       HEL1     0.150000       1.00800           0
       159 MEMB     6        CHL1     C7       CRL2    -0.180000       12.0110           0
       160 MEMB     6        CHL1     H7A      HGA2     0.900000E-01   1.00800           0
       161 MEMB     6        CHL1     H7B      HGA2     0.900000E-01   1.00800           0
       162 MEMB     6        CHL1     C8       CRL1    -0.900000E-01   12.0110           0
       163 MEMB     6        CHL1     H8       HGA1     0.900000E-01   1.00800           0
       164 MEMB     6        CHL1     C14      CRL1    -0.900000E-01   12.0110           0
       165 MEMB     6        CHL1     H14      HGA1     0.900000E-01   1.00800           0
       166 MEMB     6        CHL1     C15      CRL2    -0.180000       12.0110           0
       167 MEMB     6        CHL1     H15A     HGA2     0.900000E-01   1.00800           0
       168 MEMB     6        CHL1     H15B     HGA2     0.900000E-01   1.00800           0
       169 MEMB     6        CHL1     C16      CRL2    -0.180000       12.0110           0
       170 MEMB     6        CHL1     H16A     HGA2     0.900000E-01   1.00800           0
       171 MEMB     6        CHL1     H16B     HGA2     0.900000E-01   1.00800           0
       172 MEMB     6        CHL1     C17      CRL1    -0.900000E-01   12.0110           0
       173 MEMB     6        CHL1     H17      HGA1     0.900000E-01   1.00800           0
       174 MEMB     6        CHL1     C13      CRL1     0.000000       12.0110           0
       175 MEMB     6        CHL1     C18      CTL3    -0.270000       12.0110           0
       176 MEMB     6        CHL1     H18A     HAL3     0.900000E-01   1.00800           0
       177 MEMB     6        CHL1     H18B     HAL3     0.900000E-01   1.00800           0
       178 MEMB     6        CHL1     H18C     HAL3     0.900000E-01   1.00800           0
       179 MEMB     6        CHL1     C12      CRL2    -0.180000       12.0110           0
       180 MEMB     6        CHL1     H12A     HGA2     0.900000E-01   1.00800           0
       181 MEMB     6        CHL1     H12B     HGA2     0.900000E-01   1.00800           0
       182 MEMB     6        CHL1     C11      CRL2    -0.180000       12.0110           0
       183 MEMB     6        CHL1     H11A     HGA2     0.900000E-01   1.00800           0
       184 MEMB     6        CHL1     H11B     HGA2     0.900000E-01   1.00800           0
       185 MEMB     6        CHL1     C9       CRL1    -0.900000E-01   12.0110           0
       186 MEMB     6        CHL1     H9       HGA1     0.900000E-01   1.00800           0
       187 MEMB     6        CHL1     C10      CRL1     0.000000       12.0110           0
       188 MEMB     6        CHL1     C19      CTL3    -0.270000       12.0110           0
       189 MEMB     6        CHL1     H19A     HAL3     0.900000E-01   1.00800           0
       190 MEMB     6        CHL1     H19B     HAL3     0.900000E-01   1.00800           0
       191 MEMB     6        CHL1     H19C     HAL3     0.900000E-01   1.00800           0
       192 MEMB     6        CHL1     C1       CRL2    -0.180000       12.0110           0
       193 MEMB     6        CHL1     H1A      HGA2     0.900000E-01   1.00800           0
       194 MEMB     6        CHL1     H1B      HGA2     0.900000E-01   1.00800           0
       195 MEMB     6        CHL1     C2       CRL2    -0.180000       12.0110           0
       196 MEMB     6        CHL1     H2A      HGA2     0.900000E-01   1.00800           0
       197 MEMB     6        CHL1     H2B      HGA2     0.900000E-01   1.00800           0
       198 MEMB     6        CHL1     C20      CTL1    -0.900000E-01   12.0110           0
       199 MEMB     6        CHL1     H20      HAL1     0.900000E-01   1.00800           0
       200 MEMB     6        CHL1     C21      CTL3    -0.270000       12.0110           0
       201 MEMB     6        CHL1     H21A     HAL3     0.900000E-01   1.00800           0
       202 MEMB     6        CHL1     H21B     HAL3     0.900000E-01   1.00800           0
       203 MEMB     6        CHL1     H21C     HAL3     0.900000E-01   1.00800           0
       204 MEMB     6        CHL1     C22      CTL2    -0.180000       12.0110           0
       205 MEMB     6        CHL1     H22A     HAL2     0.900000E-01   1.00800           0
       206 MEMB     6        CHL1     H22B     HAL2     0.900000E-01   1.00800           0
       207 MEMB     6        CHL1     C23      CTL2    -0.180000       12.0110           0
       208 MEMB     6        CHL1     H23A     HAL2     0.900000E-01   1.00800           0
       209 MEMB     6        CHL1     H23B     HAL2     0.900000E-01   1.00800           0
       210 MEMB     6        CHL1     C24      CTL2    -0.180000       12.0110           0
       211 MEMB     6        CHL1     H24A     HAL2     0.900000E-01   1.00800           0
       212 MEMB     6        CHL1     H24B     HAL2     0.900000E-01   1.00800           0
       213 MEMB     6        CHL1     C25      CTL1    -0.900000E-01   12.0110           0
       214 MEMB     6        CHL1     H25      HAL1     0.900000E-01   1.00800           0
       215 MEMB     6        CHL1     C26      CTL3    -0.270000       12.0110           0
       216 MEMB     6        CHL1     H26A     HAL3     0.900000E-01   1.00800           0
       217 MEMB     6        CHL1     H26B     HAL3     0.900000E-01   1.00800           0
       218 MEMB     6        CHL1     H26C     HAL3     0.900000E-01   1.00800           0
       219 MEMB     6        CHL1     C27      CTL3    -0.270000       12.0110           0
       220 MEMB     6        CHL1     H27A     HAL3     0.900000E-01   1.00800           0
       221 MEMB     6        CHL1     H27B     HAL3     0.900000E-01   1.00800           0
       222 MEMB     6        CHL1     H27C     HAL3     0.900000E-01   1.00800           0
       223 MEMB     9        CHL1     C3       CRL1     0.140000       12.0110           0
       224 MEMB     9        CHL1     H3       HGA1     0.900000E-01   1.00800           0
       225 MEMB     9        CHL1     O3       OHL     -0.660000       15.9994           0
       226 MEMB     9        CHL1     H3'      HOL      0.430000       1.00800           0
       227 MEMB     9        CHL1     C4       CRL2    -0.180000       12.0110           0
       228 MEMB     9        CHL1     H4A      HGA2     0.900000E-01   1.00800           0
       229 MEMB     9        CHL1     H4B      HGA2     0.900000E-01   1.00800           0
       230 MEMB     9        CHL1     C5       CEL1     0.000000       12.0110           0
       231 MEMB     9        CHL1     C6       CEL1    -0.150000       12.0110           0
       232 MEMB     9        CHL1     H6       HEL1     0.150000       1.00800           0
       233 MEMB     9        CHL1     C7       CRL2    -0.180000       12.0110           0
       234 MEMB     9        CHL1     H7A      HGA2     0.900000E-01   1.00800           0
       235 MEMB     9        CHL1     H7B      HGA2     0.900000E-01   1.00800           0
       236 MEMB     9        CHL1     C8       CRL1    -0.900000E-01   12.0110           0
       237 MEMB     9        CHL1     H8       HGA1     0.900000E-01   1.00800           0
       238 MEMB     9        CHL1     C14      CRL1    -0.900000E-01   12.0110           0
       239 MEMB     9        CHL1     H14      HGA1     0.900000E-01   1.00800           0
       240 MEMB     9        CHL1     C15      CRL2    -0.180000       12.0110           0
       241 MEMB     9        CHL1     H15A     HGA2     0.900000E-01   1.00800           0
       242 MEMB     9        CHL1     H15B     HGA2     0.900000E-01   1.00800           0
       243 MEMB     9        CHL1     C16      CRL2    -0.180000       12.0110           0
       244 MEMB     9        CHL1     H16A     HGA2     0.900000E-01   1.00800           0
       245 MEMB     9        CHL1     H16B     HGA2     0.900000E-01   1.00800           0
       246 MEMB     9        CHL1     C17      CRL1    -0.900000E-01   12.0110           0
       247 MEMB     9        CHL1     H17      HGA1     0.900000E-01   1.00800           0
       248 MEMB     9        CHL1     C13      CRL1     0.000000       12.0110           0
       249 MEMB     9        CHL1     C18      CTL3    -0.270000       12.0110           0
       250 MEMB     9        CHL1     H18A     HAL3     0.900000E-01   1.00800           0
       251 MEMB     9        CHL1     H18B     HAL3     0.900000E-01   1.00800           0
       252 MEMB     9        CHL1     H18C     HAL3     0.900000E-01   1.00800           0
       253 MEMB     9        CHL1     C12      CRL2    -0.180000       12.0110           0
       254 MEMB     9        CHL1     H12A     HGA2     0.900000E-01   1.00800           0
       255 MEMB     9        CHL1     H12B     HGA2     0.900000E-01   1.00800           0
       256 MEMB     9        CHL1     C11      CRL2    -0.180000       12.0110           0
       257 MEMB     9        CHL1     H11A     HGA2     0.900000E-01   1.00800           0
       258 MEMB     9        CHL1     H11B     HGA2     0.900000E-01   1.00800           0
       259 MEMB     9        CHL1     C9       CRL1    -0.900000E-01   12.0110           0
       260 MEMB     9        CHL1     H9       HGA1     0.900000E-01   1.00800           0
       261 MEMB     9        CHL1     C10      CRL1     0.000000       12.0110           0
       262 MEMB     9        CHL1     C19      CTL3    -0.270000       12.0110           0
       263 MEMB     9        CHL1     H19A     HAL3     0.900000E-01   1.00800           0
       264 MEMB     9        CHL1     H19B     HAL3     0.900000E-01   1.00800           0
       265 MEMB     9        CHL1     H19C     HAL3     0.900000E-01   1.00800           0
       266 MEMB     9        CHL1     C1       CRL2    -0.180000       12.0110           0
       267 MEMB     9        CHL1     H1A      HGA2     0.900000E-01   1.00800           0
       268 MEMB     9        CHL1     H1B      HGA2     0.900000E-01   1.00800           0
       269 MEMB     9        CHL1     C2       CRL2    -0.180000       12.0110           0
       270 MEMB     9        CHL1     H2A      HGA2     0.900000E-01   1.00800           0
       271 MEMB     9        CHL1     H2B      HGA2     0.900000E-01   1.00800           0
       272 MEMB     9        CHL1     C20      CTL1    -0.900000E-01   12.0110           0
       273 MEMB     9        CHL1     H20      HAL1     0.900000E-01   1.00800           0
       274 MEMB     9        CHL1     C21      CTL3    -0.270000       12.0110           0
       275 MEMB     9        CHL1     H21A     HAL3     0.900000E-01   1.00800           0
       276 MEMB     9        CHL1     H21B     HAL3     0.900000E-01   1.00800           0
       277 MEMB     9        CHL1     H21C     HAL3     0.900000E-01   1.00800           0
       278 MEMB     9        CHL1     C22      CTL2    -0.180000       12.0110           0
       279 MEMB     9        CHL1     H22A     HAL2     0.900000E-01   1.00800           0
       280 MEMB     9        CHL1     H22B     HAL2     0.900000E-01   1.00800           0
       281 MEMB     9        CHL1     C23      CTL2    -0.180000       12.0110           0
       282 MEMB     9        CHL1     H23A     HAL2     0.900000E-01   1.00800           0
       283 MEMB     9        CHL1     H23B     HAL2     0.900000E-01   1.00800           0
       284 MEMB     9        CHL1     C24      CTL2    -0.180000       12.0110           0
       285 MEMB     9        CHL1     H24A     HAL2     0.900000E-01   1.00800           0
       286 MEMB     9        CHL1     H24B     HAL2     0.900000E-01   1.00800           0
       287 MEMB     9        CHL1     C25      CTL1    -0.900000E-01   12.0110           0
       288 MEMB     9        CHL1     H25      HAL1     0.900000E-01   1.00800           0
       289 MEMB     9        CHL1     C26      CTL3    -0.270000       12.0110           0
       290 MEMB     9        CHL1     H26A     HAL3     0.900000E-01   1.00800           0
       291 MEMB     9        CHL1     H26B     HAL3     0.900000E-01   1.00800           0
       292 MEMB     9        CHL1     H26C     HAL3     0.900000E-01   1.00800           0
       293 MEMB     9        CHL1     C27      CTL3    -0.270000       12.0110           0
       294 MEMB     9        CHL1     H27A     HAL3     0.900000E-01   1.00800           0
       295 MEMB     9        CHL1     H27B     HAL3     0.900000E-01   1.00800           0
       296 MEMB     9        CHL1     H27C     HAL3     0.900000E-01   1.00800           0
       297 MEMB     14       CHL1     C3       CRL1     0.140000       12.0110           0
       298 MEMB     14       CHL1     H3       HGA1     0.900000E-01   1.00800           0
       299 MEMB     14       CHL1     O3       OHL     -0.660000       15.9994           0
       300 MEMB     14       CHL1     H3'      HOL      0.430000       1.00800           0
       301 MEMB     14       CHL1     C4       CRL2    -0.180000       12.0110           0
       302 MEMB     14       CHL1     H4A      HGA2     0.900000E-01   1.00800           0
       303 MEMB     14       CHL1     H4B      HGA2     0.900000E-01   1.00800           0
       304 MEMB     14       CHL1     C5       CEL1     0.000000       12.0110           0
       305 MEMB     14       CHL1     C6       CEL1    -0.150000       12.0110           0
       306 MEMB     14       CHL1     H6       HEL1     0.150000       1.00800           0
       307 MEMB     14       CHL1     C7       CRL2    -0.180000       12.0110           0
       308 MEMB     14       CHL1     H7A      HGA2     0.900000E-01   1.00800           0
       309 MEMB     14       CHL1     H7B      HGA2     0.900000E-01   1.00800           0
       310 MEMB     14       CHL1     C8       CRL1    -0.900000E-01   12.0110           0
       311 MEMB     14       CHL1     H8       HGA1     0.900000E-01   1.00800           0
       312 MEMB     14       CHL1     C14      CRL1    -0.900000E-01   12.0110           0
       313 MEMB     14       CHL1     H14      HGA1     0.900000E-01   1.00800           0
       314 MEMB     14       CHL1     C15      CRL2    -0.180000       12.0110           0
       315 MEMB     14       CHL1     H15A     HGA2     0.900000E-01   1.00800           0
       316 MEMB     14       CHL1     H15B     HGA2     0.900000E-01   1.00800           0
       317 MEMB     14       CHL1     C16      CRL2    -0.180000       12.0110           0
       318 MEMB     14       CHL1     H16A     HGA2     0.900000E-01   1.00800           0
       319 MEMB     14       CHL1     H16B     HGA2     0.900000E-01   1.00800           0
       320 MEMB     14       CHL1     C17      CRL1    -0.900000E-01   12.0110           0
       321 MEMB     14       CHL1     H17      HGA1     0.900000E-01   1.00800           0
       322 MEMB     14       CHL1     C13      CRL1     0.000000       12.0110           0
       323 MEMB     14       CHL1     C18      CTL3    -0.270000       12.0110           0
       324 MEMB     14       CHL1     H18A     HAL3     0.900000E-01   1.00800           0
       325 MEMB     14       CHL1     H18B     HAL3     0.900000E-01   1.00800           0
       326 MEMB     14       CHL1     H18C     HAL3     0.900000E-01   1.00800           0
       327 MEMB     14       CHL1     C12      CRL2    -0.180000       12.0110           0
       328 MEMB     14       CHL1     H12A     HGA2     0.900000E-01   1.00800           0
       329 MEMB     14       CHL1     H12B     HGA2     0.900000E-01   1.00800           0
       330 MEMB     14       CHL1     C11      CRL2    -0.180000       12.0110           0
       331 MEMB     14       CHL1     H11A     HGA2     0.900000E-01   1.00800           0
       332 MEMB     14       CHL1     H11B     HGA2     0.900000E-01   1.00800           0
       333 MEMB     14       CHL1     C9       CRL1    -0.900000E-01   12.0110           0
       334 MEMB     14       CHL1     H9       HGA1     0.900000E-01   1.00800           0
       335 MEMB     14       CHL1     C10      CRL1     0.000000       12.0110           0
       336 MEMB     14       CHL1     C19      CTL3    -0.270000       12.0110           0
       337 MEMB     14       CHL1     H19A     HAL3     0.900000E-01   1.00800           0
       338 MEMB     14       CHL1     H19B     HAL3     0.900000E-01   1.00800           0
       339 MEMB     14       CHL1     H19C     HAL3     0.900000E-01   1.00800           0
       340 MEMB     14       CHL1     C1       CRL2    -0.180000       12.0110           0
       341 MEMB     14       CHL1     H1A      HGA2     0.900000E-01   1.00800           0
       342 MEMB     14       CHL1     H1B      HGA2     0.900000E-01   1.00800           0
       343 MEMB     14       CHL1     C2       CRL2    -0.180000       12.0110           0
       344 MEMB     14       CHL1     H2A      HGA2     0.900000E-01   1.00800           0
       345 MEMB     14       CHL1     H2B      HGA2     0.900000E-01   1.00800           0
       346 MEMB     14       CHL1     C20      CTL1    -0.900000E-01   12.0110           0
       347 MEMB     14       CHL1     H20      HAL1     0.900000E-01   1.00800           0
       348 MEMB     14       CHL1     C21      CTL3    -0.270000       12.0110           0
       349 MEMB     14       CHL1     H21A     HAL3     0.900000E-01   1.00800           0
       350 MEMB     14       CHL1     H21B     HAL3     0.900000E-01   1.00800           0
       351 MEMB     14       CHL1     H21C     HAL3     0.900000E-01   1.00800           0
       352 MEMB     14       CHL1     C22      CTL2    -0.180000       12.0110           0
       353 MEMB     14       CHL1     H22A     HAL2     0.900000E-01   1.00800           0
       354 MEMB     14       CHL1     H22B     HAL2     0.900000E-01   1.00800           0
       355 MEMB     14       CHL1     C23      CTL2    -0.180000       12.0110           0
       356 MEMB     14       CHL1     H23A     HAL2     0.900000E-01   1.00800           0
       357 MEMB     14       CHL1     H23B     HAL2     0.900000E-01   1.00800           0
       358 MEMB     14       CHL1     C24      CTL2    -0.180000       12.0110           0
       359 MEMB     14       CHL1     H24A     HAL2     0.900000E-01   1.00800           0
       360 MEMB     14       CHL1     H24B     HAL2     0.900000E-01   1.00800           0
       361 MEMB     14       CHL1     C25      CTL1    -0.900000E-01   12.0110           0
       362 MEMB     14       CHL1     H25      HAL1     0.900000E-01   1.00800           0
       363 MEMB     14       CHL1     C26      CTL3    -0.270000       12.0110           0
       364 MEMB     14       CHL1     H26A     HAL3     0.900000E-01   1.00800           0
       365 MEMB     14       CHL1     H26B     HAL3     0.900000E-01   1.00800           0
       366 MEMB     14       CHL1     H26C     HAL3     0.900000E-01   1.00800           0
       367 MEMB     14       CHL1     C27      CTL3    -0.270000       12.0110           0
       368 MEMB     14       CHL1     H27A     HAL3     0.900000E-01   1.00800           0
       369 MEMB     14       CHL1     H27B     HAL3     0.900000E-01   1.00800           0
       370 MEMB     14       CHL1     H27C     HAL3     0.900000E-01   1.00800           0
       371 MEMB     22       CHL1     C3       CRL1     0.140000       12.0110           0
       372 MEMB     22       CHL1     H3       HGA1     0.900000E-01   1.00800           0
       373 MEMB     22       CHL1     O3       OHL     -0.660000       15.9994           0
       374 MEMB     22       CHL1     H3'      HOL      0.430000       1.00800           0
       375 MEMB     22       CHL1     C4       CRL2    -0.180000       12.0110           0
       376 MEMB     22       CHL1     H4A      HGA2     0.900000E-01   1.00800           0
       377 MEMB     22       CHL1     H4B      HGA2     0.900000E-01   1.00800           0
       378 MEMB     22       CHL1     C5       CEL1     0.000000       12.0110           0
       379 MEMB     22       CHL1     C6       CEL1    -0.150000       12.0110           0
       380 MEMB     22       CHL1     H6       HEL1     0.150000       1.00800           0
       381 MEMB     22       CHL1     C7       CRL2    -0.180000       12.0110           0
       382 MEMB     22       CHL1     H7A      HGA2     0.900000E-01   1.00800           0
       383 MEMB     22       CHL1     H7B      HGA2     0.900000E-01   1.00800           0
       384 MEMB     22       CHL1     C8       CRL1    -0.900000E-01   12.0110           0
       385 MEMB     22       CHL1     H8       HGA1     0.900000E-01   1.00800           0
       386 MEMB     22       CHL1     C14      CRL1    -0.900000E-01   12.0110           0
       387 MEMB     22       CHL1     H14      HGA1     0.900000E-01   1.00800           0
       388 MEMB     22       CHL1     C15      CRL2    -0.180000       12.0110           0
       389 MEMB     22       CHL1     H15A     HGA2     0.900000E-01   1.00800           0
       390 MEMB     22       CHL1     H15B     HGA2     0.900000E-01   1.00800           0
       391 MEMB     22       CHL1     C16      CRL2    -0.180000       12.0110           0
       392 MEMB     22       CHL1     H16A     HGA2     0.900000E-01   1.00800           0
       393 MEMB     22       CHL1     H16B     HGA2     0.900000E-01   1.00800           0
       394 MEMB     22       CHL1     C17      CRL1    -0.900000E-01   12.0110           0
       395 MEMB     22       CHL1     H17      HGA1     0.900000E-01   1.00800           0
       396 MEMB     22       CHL1     C13      CRL1     0.000000       12.0110           0
       397 MEMB     22       CHL1     C18      CTL3    -0.270000       12.0110           0
       398 MEMB     22       CHL1     H18A     HAL3     0.900000E-01   1.00800           0
       399 MEMB     22       CHL1     H18B     HAL3     0.900000E-01   1.00800           0
       400 MEMB     22       CHL1     H18C     HAL3     0.900000E-01   1.00800           0
       401 MEMB     22       CHL1     C12      CRL2    -0.180000       12.0110           0
       402 MEMB     22       CHL1     H12A     HGA2     0.900000E-01   1.00800           0
       403 MEMB     22       CHL1     H12B     HGA2     0.900000E-01   1.00800           0
       404 MEMB     22       CHL1     C11      CRL2    -0.180000       12.0110           0
       405 MEMB     22       CHL1     H11A     HGA2     0.900000E-01   1.00800           0
       406 MEMB     22       CHL1     H11B     HGA2     0.900000E-01   1.00800           0
       407 MEMB     22       CHL1     C9       CRL1    -0.900000E-01   12.0110           0
       408 MEMB     22       CHL1     H9       HGA1     0.900000E-01   1.00800           0
       409 MEMB     22       CHL1     C10      CRL1     0.000000       12.0110           0
       410 MEMB     22       CHL1     C19      CTL3    -0.270000       12.0110           0
       411 MEMB     22       CHL1     H19A     HAL3     0.900000E-01   1.00800           0
       412 MEMB     22       CHL1     H19B     HAL3     0.900000E-01   1.00800           0
       413 MEMB     22       CHL1     H19C     HAL3     0.900000E-01   1.00800           0
       414 MEMB     22       CHL1     C1       CRL2    -0.180000       12.0110           0
       415 MEMB     22       CHL1     H1A      HGA2     0.900000E-01   1.00800           0
       416 MEMB     22       CHL1     H1B      HGA2     0.900000E-01   1.00800           0
       417 MEMB     22       CHL1     C2       CRL2    -0.180000       12.0110           0
       418 MEMB     22       CHL1     H2A      HGA2     0.900000E-01   1.00800           0
       419 MEMB     22       CHL1     H2B      HGA2     0.900000E-01   1.00800           0
       420 MEMB     22       CHL1     C20      CTL1    -0.900000E-01   12.0110           0
       421 MEMB     22       CHL1     H20      HAL1     0.900000E-01   1.00800           0
       422 MEMB     22       CHL1     C21      CTL3    -0.270000       12.0110           0
       423 MEMB     22       CHL1     H21A     HAL3     0.900000E-01   1.00800           0
       424 MEMB     22       CHL1     H21B     HAL3     0.900000E-01   1.00800           0
       425 MEMB     22       CHL1     H21C     HAL3     0.900000E-01   1.00800           0
       426 MEMB     22       CHL1     C22      CTL2    -0.180000       12.0110           0
       427 MEMB     22       CHL1     H22A     HAL2     0.900000E-01   1.00800           0
       428 MEMB     22       CHL1     H22B     HAL2     0.900000E-01   1.00800           0
       429 MEMB     22       CHL1     C23      CTL2    -0.180000       12.0110           0
       430 MEMB     22       CHL1     H23A     HAL2     0.900000E-01   1.00800           0
       431 MEMB     22       CHL1     H23B     HAL2     0.900000E-01   1.00800           0
       432 MEMB     22       CHL1     C24      CTL2    -0.180000       12.0110           0
       433 MEMB     22       CHL1     H24A     HAL2     0.900000E-01   1.00800           0
       434 MEMB     22       CHL1     H24B     HAL2     0.900000E-01   1.00800           0
       435 MEMB     22       CHL1     C25      CTL1    -0.900000E-01   12.0110           0
       436 MEMB     22       CHL1     H25      HAL1     0.900000E-01   1.00800           0
       437 MEMB     22       CHL1     C26      CTL3    -0.270000       12.0110           0
       438 MEMB     22       CHL1     H26A     HAL3     0.900000E-01   1.00800           0
       439 MEMB     22       CHL1     H26B     HAL3     0.900000E-01   1.00800           0
       440 MEMB     22       CHL1     H26C     HAL3     0.900000E-01   1.00800           0
       441 MEMB     22       CHL1     C27      CTL3    -0.270000       12.0110           0
       442 MEMB     22       CHL1     H27A     HAL3     0.900000E-01   1.00800           0
       443 MEMB     22       CHL1     H27B     HAL3     0.900000E-01   1.00800           0
       444 MEMB     22       CHL1     H27C     HAL3     0.900000E-01   1.00800           0
       445 MEMB     32       CHL1     C3       CRL1     0.140000       12.0110           0
       446 MEMB     32       CHL1     H3       HGA1     0.900000E-01   1.00800           0
       447 MEMB     32       CHL1     O3       OHL     -0.660000       15.9994           0
       448 MEMB     32       CHL1     H3'      HOL      0.430000       1.00800           0
       449 MEMB     32       CHL1     C4       CRL2    -0.180000       12.0110           0
       450 MEMB     32       CHL1     H4A      HGA2     0.900000E-01   1.00800           0
       451 MEMB     32       CHL1     H4B      HGA2     0.900000E-01   1.00800           0
       452 MEMB     32       CHL1     C5       CEL1     0.000000       12.0110           0
       453 MEMB     32       CHL1     C6       CEL1    -0.150000       12.0110           0
       454 MEMB     32       CHL1     H6       HEL1     0.150000       1.00800           0
       455 MEMB     32       CHL1     C7       CRL2    -0.180000       12.0110           0
       456 MEMB     32       CHL1     H7A      HGA2     0.900000E-01   1.00800           0
       457 MEMB     32       CHL1     H7B      HGA2     0.900000E-01   1.00800           0
       458 MEMB     32       CHL1     C8       CRL1    -0.900000E-01   12.0110           0
       459 MEMB     32       CHL1     H8       HGA1     0.900000E-01   1.00800           0
       460 MEMB     32       CHL1     C14      CRL1    -0.900000E-01   12.0110           0
       461 MEMB     32       CHL1     H14      HGA1     0.900000E-01   1.00800           0
       462 MEMB     32       CHL1     C15      CRL2    -0.180000       12.0110           0
       463 MEMB     32       CHL1     H15A     HGA2     0.900000E-01   1.00800           0
       464 MEMB     32       CHL1     H15B     HGA2     0.900000E-01   1.00800           0
       465 MEMB     32       CHL1     C16      CRL2    -0.180000       12.0110           0
       466 MEMB     32       CHL1     H16A     HGA2     0.900000E-01   1.00800           0
       467 MEMB     32       CHL1     H16B     HGA2     0.900000E-01   1.00800           0
       468 MEMB     32       CHL1     C17      CRL1    -0.900000E-01   12.0110           0
       469 MEMB     32       CHL1     H17      HGA1     0.900000E-01   1.00800           0
       470 MEMB     32       CHL1     C13      CRL1     0.000000       12.0110           0
       471 MEMB     32       CHL1     C18      CTL3    -0.270000       12.0110           0
       472 MEMB     32       CHL1     H18A     HAL3     0.900000E-01   1.00800           0
       473 MEMB     32       CHL1     H18B     HAL3     0.900000E-01   1.00800           0
       474 MEMB     32       CHL1     H18C     HAL3     0.900000E-01   1.00800           0
       475 MEMB     32       CHL1     C12      CRL2    -0.180000       12.0110           0
       476 MEMB     32       CHL1     H12A     HGA2     0.900000E-01   1.00800           0
       477 MEMB     32       CHL1     H12B     HGA2     0.900000E-01   1.00800           0
       478 MEMB     32       CHL1     C11      CRL2    -0.180000       12.0110           0
       479 MEMB     32       CHL1     H11A     HGA2     0.900000E-01   1.00800           0
       480 MEMB     32       CHL1     H11B     HGA2     0.900000E-01   1.00800           0
       481 MEMB     32       CHL1     C9       CRL1    -0.900000E-01   12.0110           0
       482 MEMB     32       CHL1     H9       HGA1     0.900000E-01   1.00800           0
       483 MEMB     32       CHL1     C10      CRL1     0.000000       12.0110           0
       484 MEMB     32       CHL1     C19      CTL3    -0.270000       12.0110           0
       485 MEMB     32       CHL1     H19A     HAL3     0.900000E-01   1.00800           0
       486 MEMB     32       CHL1     H19B     HAL3     0.900000E-01   1.00800           0
       487 MEMB     32       CHL1     H19C     HAL3     0.900000E-01   1.00800           0
       488 MEMB     32       CHL1     C1       CRL2    -0.180000       12.0110           0
       489 MEMB     32       CHL1     H1A      HGA2     0.900000E-01   1.00800           0
       490 MEMB     32       CHL1     H1B      HGA2     0.900000E-01   1.00800           0
       491 MEMB     32       CHL1     C2       CRL2    -0.180000       12.0110           0
       492 MEMB     32       CHL1     H2A      HGA2     0.900000E-01   1.00800           0
       493 MEMB     32       CHL1     H2B      HGA2     0.900000E-01   1.00800           0
       494 MEMB     32       CHL1     C20      CTL1    -0.900000E-01   12.0110           0
       495 MEMB     32       CHL1     H20      HAL1     0.900000E-01   1.00800           0
       496 MEMB     32       CHL1     C21      CTL3    -0.270000       12.0110           0
       497 MEMB     32       CHL1     H21A     HAL3     0.900000E-01   1.00800           0
       498 MEMB     32       CHL1     H21B     HAL3     0.900000E-01   1.00800           0
       499 MEMB     32       CHL1     H21C     HAL3     0.900000E-01   1.00800           0
       500 MEMB     32       CHL1     C22      CTL2    -0.180000       12.0110           0
       501 MEMB     32       CHL1     H22A     HAL2     0.900000E-01   1.00800           0
       502 MEMB     32       CHL1     H22B     HAL2     0.900000E-01   1.00800           0
       503 MEMB     32       CHL1     C23      CTL2    -0.180000       12.0110           0
       504 MEMB     32       CHL1     H23A     HAL2     0.900000E-01   1.00800           0
       505 MEMB     32       CHL1     H23B     HAL2     0.900000E-01   1.00800           0
       506 MEMB     32       CHL1     C24      CTL2    -0.180000       12.0110           0
       507 MEMB     32       CHL1     H24A     HAL2     0.900000E-01   1.00800           0
       508 MEMB     32       CHL1     H24B     HAL2     0.900000E-01   1.00800           0
       509 MEMB     32       CHL1     C25      CTL1    -0.900000E-01   12.0110           0
       510 MEMB     32       CHL1     H25      HAL1     0.900000E-01   1.00800           0
       511 MEMB     32       CHL1     C26      CTL3    -0.270000       12.0110           0
       512 MEMB     32       CHL1     H26A     HAL3     0.900000E-01   1.00800           0
       513 MEMB     32       CHL1     H26B     HAL3     0.900000E-01   1.00800           0
       514 MEMB     32       CHL1     H26C     HAL3     0.900000E-01   1.00800           0
       515 MEMB     32       CHL1     C27      CTL3    -0.270000       12.0110           0
       516 MEMB     32       CHL1     H27A     HAL3     0.900000E-01   1.00800           0
       517 MEMB     32       CHL1     H27B     HAL3     0.900000E-01   1.00800           0
       518 MEMB     32       CHL1     H27C     HAL3     0.900000E-01   1.00800           0
       519 MEMB     36       CHL1     C3       CRL1     0.140000       12.0110           0
       520 MEMB     36       CHL1     H3       HGA1     0.900000E-01   1.00800           0
       521 MEMB     36       CHL1     O3       OHL     -0.660000       15.9994           0
       522 MEMB     36       CHL1     H3'      HOL      0.430000       1.00800           0
       523 MEMB     36       CHL1     C4       CRL2    -0.180000       12.0110           0
       524 MEMB     36       CHL1     H4A      HGA2     0.900000E-01   1.00800           0
       525 MEMB     36       CHL1     H4B      HGA2     0.900000E-01   1.00800           0
       526 MEMB     36       CHL1     C5       CEL1     0.000000       12.0110           0
       527 MEMB     36       CHL1     C6       CEL1    -0.150000       12.0110           0
       528 MEMB     36       CHL1     H6       HEL1     0.150000       1.00800           0
       529 MEMB     36       CHL1     C7       CRL2    -0.180000       12.0110           0
       530 MEMB     36       CHL1     H7A      HGA2     0.900000E-01   1.00800           0
       531 MEMB     36       CHL1     H7B      HGA2     0.900000E-01   1.00800           0
       532 MEMB     36       CHL1     C8       CRL1    -0.900000E-01   12.0110           0
       533 MEMB     36       CHL1     H8       HGA1     0.900000E-01   1.00800           0
       534 MEMB     36       CHL1     C14      CRL1    -0.900000E-01   12.0110           0
       535 MEMB     36       CHL1     H14      HGA1     0.900000E-01   1.00800           0
       536 MEMB     36       CHL1     C15      CRL2    -0.180000       12.0110           0
       537 MEMB     36       CHL1     H15A     HGA2     0.900000E-01   1.00800           0
       538 MEMB     36       CHL1     H15B     HGA2     0.900000E-01   1.00800           0
       539 MEMB     36       CHL1     C16      CRL2    -0.180000       12.0110           0
       540 MEMB     36       CHL1     H16A     HGA2     0.900000E-01   1.00800           0
       541 MEMB     36       CHL1     H16B     HGA2     0.900000E-01   1.00800           0
       542 MEMB     36       CHL1     C17      CRL1    -0.900000E-01   12.0110           0
       543 MEMB     36       CHL1     H17      HGA1     0.900000E-01   1.00800           0
       544 MEMB     36       CHL1     C13      CRL1     0.000000       12.0110           0
       545 MEMB     36       CHL1     C18      CTL3    -0.270000       12.0110           0
       546 MEMB     36       CHL1     H18A     HAL3     0.900000E-01   1.00800           0
       547 MEMB     36       CHL1     H18B     HAL3     0.900000E-01   1.00800           0
       548 MEMB     36       CHL1     H18C     HAL3     0.900000E-01   1.00800           0
       549 MEMB     36       CHL1     C12      CRL2    -0.180000       12.0110           0
       550 MEMB     36       CHL1     H12A     HGA2     0.900000E-01   1.00800           0
       551 MEMB     36       CHL1     H12B     HGA2     0.900000E-01   1.00800           0
       552 MEMB     36       CHL1     C11      CRL2    -0.180000       12.0110           0
       553 MEMB     36       CHL1     H11A     HGA2     0.900000E-01   1.00800           0
       554 MEMB     36       CHL1     H11B     HGA2     0.900000E-01   1.00800           0
       555 MEMB     36       CHL1     C9       CRL1    -0.900000E-01   12.0110           0
       556 MEMB     36       CHL1     H9       HGA1     0.900000E-01   1.00800           0
       557 MEMB     36       CHL1     C10      CRL1     0.000000       12.0110           0
       558 MEMB     36       CHL1     C19      CTL3    -0.270000       12.0110           0
       559 MEMB     36       CHL1     H19A     HAL3     0.900000E-01   1.00800           0
       560 MEMB     36       CHL1     H19B     HAL3     0.900000E-01   1.00800           0
       561 MEMB     36       CHL1     H19C     HAL3     0.900000E-01   1.00800           0
       562 MEMB     36       CHL1     C1       CRL2    -0.180000       12.0110           0
       563 MEMB     36       CHL1     H1A      HGA2     0.900000E-01   1.00800           0
       564 MEMB     36       CHL1     H1B      HGA2     0.900000E-01   1.00800           0
       565 MEMB     36       CHL1     C2       CRL2    -0.180000       12.0110           0
       566 MEMB     36       CHL1     H2A      HGA2     0.900000E-01   1.00800           0
       567 MEMB     36       CHL1     H2B      HGA2     0.900000E-01   1.00800           0
       568 MEMB     36       CHL1     C20      CTL1    -0.900000E-01   12.0110           0
       569 MEMB     36       CHL1     H20      HAL1     0.900000E-01   1.00800           0
       570 MEMB     36       CHL1     C21      CTL3    -0.270000       12.0110           0
       571 MEMB     36       CHL1     H21A     HAL3     0.900000E-01   1.00800           0
       572 MEMB     36       CHL1     H21B     HAL3     0.900000E-01   1.00800           0
       573 MEMB     36       CHL1     H21C     HAL3     0.900000E-01   1.00800           0
       574 MEMB     36       CHL1     C22      CTL2    -0.180000       12.0110           0
       575 MEMB     36       CHL1     H22A     HAL2     0.900000E-01   1.00800           0
       576 MEMB     36       CHL1     H22B     HAL2     0.900000E-01   1.00800           0
       577 MEMB     36       CHL1     C23      CTL2    -0.180000       12.0110           0
       578 MEMB     36       CHL1     H23A     HAL2     0.900000E-01   1.00800           0
       579 MEMB     36       CHL1     H23B     HAL2     0.900000E-01   1.00800           0
       580 MEMB     36       CHL1     C24      CTL2    -0.180000       12.0110           0
       581 MEMB     36       CHL1     H24A     HAL2     0.900000E-01   1.00800           0
       582 MEMB     36       CHL1     H24B     HAL2     0.900000E-01   1.00800           0
       583 MEMB     36       CHL1     C25      CTL1    -0.900000E-01   12.0110           0
       584 MEMB     36       CHL1     H25      HAL1     0.900000E-01   1.00800           0
       585 MEMB     36       CHL1     C26      CTL3    -0.270000       12.0110           0
       586 MEMB     36       CHL1     H26A     HAL3     0.900000E-01   1.00800           0
       587 MEMB     36       CHL1     H26B     HAL3     0.900000E-01   1.00800           0
       588 MEMB     36       CHL1     H26C     HAL3     0.900000E-01   1.00800           0
       589 MEMB     36       CHL1     C27      CTL3    -0.270000       12.0110           0
       590 MEMB     36       CHL1     H27A     HAL3     0.900000E-01   1.00800           0
       591 MEMB     36       CHL1     H27B     HAL3     0.900000E-01   1.00800           0
       592 MEMB     36       CHL1     H27C     HAL3     0.900000E-01   1.00800           0
       593 MEMB     42       CHL1     C3       CRL1     0.140000       12.0110           0
       594 MEMB     42       CHL1     H3       HGA1     0.900000E-01   1.00800           0
       595 MEMB     42       CHL1     O3       OHL     -0.660000       15.9994           0
       596 MEMB     42       CHL1     H3'      HOL      0.430000       1.00800           0
       597 MEMB     42       CHL1     C4       CRL2    -0.180000       12.0110           0
       598 MEMB     42       CHL1     H4A      HGA2     0.900000E-01   1.00800           0
       599 MEMB     42       CHL1     H4B      HGA2     0.900000E-01   1.00800           0
       600 MEMB     42       CHL1     C5       CEL1     0.000000       12.0110           0
       601 MEMB     42       CHL1     C6       CEL1    -0.150000       12.0110           0
       602 MEMB     42       CHL1     H6       HEL1     0.150000       1.00800           0
       603 MEMB     42       CHL1     C7       CRL2    -0.180000       12.0110           0
       604 MEMB     42       CHL1     H7A      HGA2     0.900000E-01   1.00800           0
       605 MEMB     42       CHL1     H7B      HGA2     0.900000E-01   1.00800           0
       606 MEMB     42       CHL1     C8       CRL1    -0.900000E-01   12.0110           0
       607 MEMB     42       CHL1     H8       HGA1     0.900000E-01   1.00800           0
       608 MEMB     42       CHL1     C14      CRL1    -0.900000E-01   12.0110           0
       609 MEMB     42       CHL1     H14      HGA1     0.900000E-01   1.00800           0
       610 MEMB     42       CHL1     C15      CRL2    -0.180000       12.0110           0
       611 MEMB     42       CHL1     H15A     HGA2     0.900000E-01   1.00800           0
       612 MEMB     42       CHL1     H15B     HGA2     0.900000E-01   1.00800           0
       613 MEMB     42       CHL1     C16      CRL2    -0.180000       12.0110           0
       614 MEMB     42       CHL1     H16A     HGA2     0.900000E-01   1.00800           0
       615 MEMB     42       CHL1     H16B     HGA2     0.900000E-01   1.00800           0
       616 MEMB     42       CHL1     C17      CRL1    -0.900000E-01   12.0110           0
       617 MEMB     42       CHL1     H17      HGA1     0.900000E-01   1.00800           0
       618 MEMB     42       CHL1     C13      CRL1     0.000000       12.0110           0
       619 MEMB     42       CHL1     C18      CTL3    -0.270000       12.0110           0
       620 MEMB     42       CHL1     H18A     HAL3     0.900000E-01   1.00800           0
       621 MEMB     42       CHL1     H18B     HAL3     0.900000E-01   1.00800           0
       622 MEMB     42       CHL1     H18C     HAL3     0.900000E-01   1.00800           0
       623 MEMB     42       CHL1     C12      CRL2    -0.180000       12.0110           0
       624 MEMB     42       CHL1     H12A     HGA2     0.900000E-01   1.00800           0
       625 MEMB     42       CHL1     H12B     HGA2     0.900000E-01   1.00800           0
       626 MEMB     42       CHL1     C11      CRL2    -0.180000       12.0110           0
       627 MEMB     42       CHL1     H11A     HGA2     0.900000E-01   1.00800           0
       628 MEMB     42       CHL1     H11B     HGA2     0.900000E-01   1.00800           0
       629 MEMB     42       CHL1     C9       CRL1    -0.900000E-01   12.0110           0
       630 MEMB     42       CHL1     H9       HGA1     0.900000E-01   1.00800           0
       631 MEMB     42       CHL1     C10      CRL1     0.000000       12.0110           0
       632 MEMB     42       CHL1     C19      CTL3    -0.270000       12.0110           0
       633 MEMB     42       CHL1     H19A     HAL3     0.900000E-01   1.00800           0
       634 MEMB     42       CHL1     H19B     HAL3     0.900000E-01   1.00800           0
       635 MEMB     42       CHL1     H19C     HAL3     0.900000E-01   1.00800           0
       636 MEMB     42       CHL1     C1       CRL2    -0.180000       12.0110           0
       637 MEMB     42       CHL1     H1A      HGA2     0.900000E-01   1.00800           0
       638 MEMB     42       CHL1     H1B      HGA2     0.900000E-01   1.00800           0
       639 MEMB     42       CHL1     C2       CRL2    -0.180000       12.0110           0
       640 MEMB     42       CHL1     H2A      HGA2     0.900000E-01   1.00800           0
       641 MEMB     42       CHL1     H2B      HGA2     0.900000E-01   1.00800           0
       642 MEMB     42       CHL1     C20      CTL1    -0.900000E-01   12.0110           0
       643 MEMB     42       CHL1     H20      HAL1     0.900000E-01   1.00800           0
       644 MEMB     42       CHL1     C21      CTL3    -0.270000       12.0110           0
       645 MEMB     42       CHL1     H21A     HAL3     0.900000E-01   1.00800           0
       646 MEMB     42       CHL1     H21B     HAL3     0.900000E-01   1.00800           0
       647 MEMB     42       CHL1     H21C     HAL3     0.900000E-01   1.00800           0
       648 MEMB     42       CHL1     C22      CTL2    -0.180000       12.0110           0
       649 MEMB     42       CHL1     H22A     HAL2     0.900000E-01   1.00800           0
       650 MEMB     42       CHL1     H22B     HAL2     0.900000E-01   1.00800           0
       651 MEMB     42       CHL1     C23      CTL2    -0.180000       12.0110           0
       652 MEMB     42       CHL1     H23A     HAL2     0.900000E-01   1.00800           0
       653 MEMB     42       CHL1     H23B     HAL2     0.900000E-01   1.00800           0
       654 MEMB     42       CHL1     C24      CTL2    -0.180000       12.0110           0
       655 MEMB     42       CHL1     H24A     HAL2     0.900000E-01   1.00800           0
       656 MEMB     42       CHL1     H24B     HAL2     0.900000E-01   1.00800           0
       657 MEMB     42       CHL1     C25      CTL1    -0.900000E-01   12.0110           0
       658 MEMB     42       CHL1     H25      HAL1     0.900000E-01   1.00800           0
       659 MEMB     42       CHL1     C26      CTL3    -0.270000       12.0110           0
       660 MEMB     42       CHL1     H26A     HAL3     0.900000E-01   1.00800           0
       661 MEMB     42       CHL1     H26B     HAL3     0.900000E-01   1.00800           0
       662 MEMB     42       CHL1     H26C     HAL3     0.900000E-01   1.00800           0
       663 MEMB     42       CHL1     C27      CTL3    -0.270000       12.0110           0
       664 MEMB     42       CHL1     H27A     HAL3     0.900000E-01   1.00800           0
       665 MEMB     42       CHL1     H27B     HAL3     0.900000E-01   1.00800           0
       666 MEMB     42       CHL1     H27C     HAL3     0.900000E-01   1.00800           0
       667 MEMB     45       CHL1     C3       CRL1     0.140000       12.0110           0
       668 MEMB     45       CHL1     H3       HGA1     0.900000E-01   1.00800           0
       669 MEMB     45       CHL1     O3       OHL     -0.660000       15.9994           0
       670 MEMB     45       CHL1     H3'      HOL      0.430000       1.00800           0
       671 MEMB     45       CHL1     C4       CRL2    -0.180000       12.0110           0
       672 MEMB     45       CHL1     H4A      HGA2     0.900000E-01   1.00800           0
       673 MEMB     45       CHL1     H4B      HGA2     0.900000E-01   1.00800           0
       674 MEMB     45       CHL1     C5       CEL1     0.000000       12.0110           0
       675 MEMB     45       CHL1     C6       CEL1    -0.150000       12.0110           0
       676 MEMB     45       CHL1     H6       HEL1     0.150000       1.00800           0
       677 MEMB     45       CHL1     C7       CRL2    -0.180000       12.0110           0
       678 MEMB     45       CHL1     H7A      HGA2     0.900000E-01   1.00800           0
       679 MEMB     45       CHL1     H7B      HGA2     0.900000E-01   1.00800           0
       680 MEMB     45       CHL1     C8       CRL1    -0.900000E-01   12.0110           0
       681 MEMB     45       CHL1     H8       HGA1     0.900000E-01   1.00800           0
       682 MEMB     45       CHL1     C14      CRL1    -0.900000E-01   12.0110           0
       683 MEMB     45       CHL1     H14      HGA1     0.900000E-01   1.00800           0
       684 MEMB     45       CHL1     C15      CRL2    -0.180000       12.0110           0
       685 MEMB     45       CHL1     H15A     HGA2     0.900000E-01   1.00800           0
       686 MEMB     45       CHL1     H15B     HGA2     0.900000E-01   1.00800           0
       687 MEMB     45       CHL1     C16      CRL2    -0.180000       12.0110           0
       688 MEMB     45       CHL1     H16A     HGA2     0.900000E-01   1.00800           0
       689 MEMB     45       CHL1     H16B     HGA2     0.900000E-01   1.00800           0
       690 MEMB     45       CHL1     C17      CRL1    -0.900000E-01   12.0110           0
       691 MEMB     45       CHL1     H17      HGA1     0.900000E-01   1.00800           0
       692 MEMB     45       CHL1     C13      CRL1     0.000000       12.0110           0
       693 MEMB     45       CHL1     C18      CTL3    -0.270000       12.0110           0
       694 MEMB     45       CHL1     H18A     HAL3     0.900000E-01   1.00800           0
       695 MEMB     45       CHL1     H18B     HAL3     0.900000E-01   1.00800           0
       696 MEMB     45       CHL1     H18C     HAL3     0.900000E-01   1.00800           0
       697 MEMB     45       CHL1     C12      CRL2    -0.180000       12.0110           0
       698 MEMB     45       CHL1     H12A     HGA2     0.900000E-01   1.00800           0
       699 MEMB     45       CHL1     H12B     HGA2     0.900000E-01   1.00800           0
       700 MEMB     45       CHL1     C11      CRL2    -0.180000       12.0110           0
       701 MEMB     45       CHL1     H11A     HGA2     0.900000E-01   1.00800           0
       702 MEMB     45       CHL1     H11B     HGA2     0.900000E-01   1.00800           0
       703 MEMB     45       CHL1     C9       CRL1    -0.900000E-01   12.0110           0
       704 MEMB     45       CHL1     H9       HGA1     0.900000E-01   1.00800           0
       705 MEMB     45       CHL1     C10      CRL1     0.000000       12.0110           0
       706 MEMB     45       CHL1     C19      CTL3    -0.270000       12.0110           0
       707 MEMB     45       CHL1     H19A     HAL3     0.900000E-01   1.00800           0
       708 MEMB     45       CHL1     H19B     HAL3     0.900000E-01   1.00800           0
       709 MEMB     45       CHL1     H19C     HAL3     0.900000E-01   1.00800           0
       710 MEMB     45       CHL1     C1       CRL2    -0.180000       12.0110           0
       711 MEMB     45       CHL1     H1A      HGA2     0.900000E-01   1.00800           0
       712 MEMB     45       CHL1     H1B      HGA2     0.900000E-01   1.00800           0
       713 MEMB     45       CHL1     C2       CRL2    -0.180000       12.0110           0
       714 MEMB     45       CHL1     H2A      HGA2     0.900000E-01   1.00800           0
       715 MEMB     45       CHL1     H2B      HGA2     0.900000E-01   1.00800           0
       716 MEMB     45       CHL1     C20      CTL1    -0.900000E-01   12.0110           0
       717 MEMB     45       CHL1     H20      HAL1     0.900000E-01   1.00800           0
       718 MEMB     45       CHL1     C21      CTL3    -0.270000       12.0110           0
       719 MEMB     45       CHL1     H21A     HAL3     0.900000E-01   1.00800           0
       720 MEMB     45       CHL1     H21B     HAL3     0.900000E-01   1.00800           0
       721 MEMB     45       CHL1     H21C     HAL3     0.900000E-01   1.00800           0
       722 MEMB     45       CHL1     C22      CTL2    -0.180000       12.0110           0
       723 MEMB     45       CHL1     H22A     HAL2     0.900000E-01   1.00800           0
       724 MEMB     45       CHL1     H22B     HAL2     0.900000E-01   1.00800           0
       725 MEMB     45       CHL1     C23      CTL2    -0.180000       12.0110           0
       726 MEMB     45       CHL1     H23A     HAL2     0.900000E-01   1.00800           0
       727 MEMB     45       CHL1     H23B     HAL2     0.900000E-01   1.00800           0
       728 MEMB     45       CHL1     C24      CTL2    -0.180000       12.0110           0
       729 MEMB     45       CHL1     H24A     HAL2     0.900000E-01   1.00800           0
       730 MEMB     45       CHL1     H24B     HAL2     0.900000E-01   1.00800           0
       731 MEMB     45       CHL1     C25      CTL1    -0.900000E-01   12.0110           0
       732 MEMB     45       CHL1     H25      HAL1     0.900000E-01   1.00800           0
       733 MEMB     45       CHL1     C26      CTL3    -0.270000       12.0110           0
       734 MEMB     45       CHL1     H26A     HAL3     0.900000E-01   1.00800           0
       735 MEMB     45       CHL1     H26B     HAL3     0.900000E-01   1.00800           0
       736 MEMB     45       CHL1     H26C     HAL3     0.900000E-01   1.00800           0
       737 MEMB     45       CHL1     C27      CTL3    -0.270000       12.0110           0
       738 MEMB     45       CHL1     H27A     HAL3     0.900000E-01   1.00800           0
       739 MEMB     45       CHL1     H27B     HAL3     0.900000E-01   1.00800           0
       740 MEMB     45       CHL1     H27C     HAL3     0.900000E-01   1.00800           0
       741 MEMB     61       CHL1     C3       CRL1     0.140000       12.0110           0
       742 MEMB     61       CHL1     H3       HGA1     0.900000E-01   1.00800           0
       743 MEMB     61       CHL1     O3       OHL     -0.660000       15.9994           0
       744 MEMB     61       CHL1     H3'      HOL      0.430000       1.00800           0
       745 MEMB     61       CHL1     C4       CRL2    -0.180000       12.0110           0
       746 MEMB     61       CHL1     H4A      HGA2     0.900000E-01   1.00800           0
       747 MEMB     61       CHL1     H4B      HGA2     0.900000E-01   1.00800           0
       748 MEMB     61       CHL1     C5       CEL1     0.000000       12.0110           0
       749 MEMB     61       CHL1     C6       CEL1    -0.150000       12.0110           0
       750 MEMB     61       CHL1     H6       HEL1     0.150000       1.00800           0
       751 MEMB     61       CHL1     C7       CRL2    -0.180000       12.0110           0
       752 MEMB     61       CHL1     H7A      HGA2     0.900000E-01   1.00800           0
       753 MEMB     61       CHL1     H7B      HGA2     0.900000E-01   1.00800           0
       754 MEMB     61       CHL1     C8       CRL1    -0.900000E-01   12.0110           0
       755 MEMB     61       CHL1     H8       HGA1     0.900000E-01   1.00800           0
       756 MEMB     61       CHL1     C14      CRL1    -0.900000E-01   12.0110           0
       757 MEMB     61       CHL1     H14      HGA1     0.900000E-01   1.00800           0
       758 MEMB     61       CHL1     C15      CRL2    -0.180000       12.0110           0
       759 MEMB     61       CHL1     H15A     HGA2     0.900000E-01   1.00800           0
       760 MEMB     61       CHL1     H15B     HGA2     0.900000E-01   1.00800           0
       761 MEMB     61       CHL1     C16      CRL2    -0.180000       12.0110           0
       762 MEMB     61       CHL1     H16A     HGA2     0.900000E-01   1.00800           0
       763 MEMB     61       CHL1     H16B     HGA2     0.900000E-01   1.00800           0
       764 MEMB     61       CHL1     C17      CRL1    -0.900000E-01   12.0110           0
       765 MEMB     61       CHL1     H17      HGA1     0.900000E-01   1.00800           0
       766 MEMB     61       CHL1     C13      CRL1     0.000000       12.0110           0
       767 MEMB     61       CHL1     C18      CTL3    -0.270000       12.0110           0
       768 MEMB     61       CHL1     H18A     HAL3     0.900000E-01   1.00800           0
       769 MEMB     61       CHL1     H18B     HAL3     0.900000E-01   1.00800           0
       770 MEMB     61       CHL1     H18C     HAL3     0.900000E-01   1.00800           0
       771 MEMB     61       CHL1     C12      CRL2    -0.180000       12.0110           0
       772 MEMB     61       CHL1     H12A     HGA2     0.900000E-01   1.00800           0
       773 MEMB     61       CHL1     H12B     HGA2     0.900000E-01   1.00800           0
       774 MEMB     61       CHL1     C11      CRL2    -0.180000       12.0110           0
       775 MEMB     61       CHL1     H11A     HGA2     0.900000E-01   1.00800           0
       776 MEMB     61       CHL1     H11B     HGA2     0.900000E-01   1.00800           0
       777 MEMB     61       CHL1     C9       CRL1    -0.900000E-01   12.0110           0
       778 MEMB     61       CHL1     H9       HGA1     0.900000E-01   1.00800           0
       779 MEMB     61       CHL1     C10      CRL1     0.000000       12.0110           0
       780 MEMB     61       CHL1     C19      CTL3    -0.270000       12.0110           0
       781 MEMB     61       CHL1     H19A     HAL3     0.900000E-01   1.00800           0
       782 MEMB     61       CHL1     H19B     HAL3     0.900000E-01   1.00800           0
       783 MEMB     61       CHL1     H19C     HAL3     0.900000E-01   1.00800           0
       784 MEMB     61       CHL1     C1       CRL2    -0.180000       12.0110           0
       785 MEMB     61       CHL1     H1A      HGA2     0.900000E-01   1.00800           0
       786 MEMB     61       CHL1     H1B      HGA2     0.900000E-01   1.00800           0
       787 MEMB     61       CHL1     C2       CRL2    -0.180000       12.0110           0
       788 MEMB     61       CHL1     H2A      HGA2     0.900000E-01   1.00800           0
       789 MEMB     61       CHL1     H2B      HGA2     0.900000E-01   1.00800           0
       790 MEMB     61       CHL1     C20      CTL1    -0.900000E-01   12.0110           0
       791 MEMB     61       CHL1     H20      HAL1     0.900000E-01   1.00800           0
       792 MEMB     61       CHL1     C21      CTL3    -0.270000       12.0110           0
       793 MEMB     61       CHL1     H21A     HAL3     0.900000E-01   1.00800           0
       794 MEMB     61       CHL1     H21B     HAL3     0.900000E-01   1.00800           0
       795 MEMB     61       CHL1     H21C     HAL3     0.900000E-01   1.00800           0
       796 MEMB     61       CHL1     C22      CTL2    -0.180000       12.0110           0
       797 MEMB     61       CHL1     H22A     HAL2     0.900000E-01   1.00800           0
       798 MEMB     61       CHL1     H22B     HAL2     0.900000E-01   1.00800           0
       799 MEMB     61       CHL1     C23      CTL2    -0.180000       12.0110           0
       800 MEMB     61       CHL1     H23A     HAL2     0.900000E-01   1.00800           0
       801 MEMB     61       CHL1     H23B     HAL2     0.900000E-01   1.00800           0
       802 MEMB     61       CHL1     C24      CTL2    -0.180000       12.0110           0
       803 MEMB     61       CHL1     H24A     HAL2     0.900000E-01   1.00800           0
       804 MEMB     61       CHL1     H24B     HAL2     0.900000E-01   1.00800           0
       805 MEMB     61       CHL1     C25      CTL1    -0.900000E-01   12.0110           0
       806 MEMB     61       CHL1     H25      HAL1     0.900000E-01   1.00800           0
       807 MEMB     61       CHL1     C26      CTL3    -0.270000       12.0110           0
       808 MEMB     61       CHL1     H26A     HAL3     0.900000E-01   1.00800           0
       809 MEMB     61       CHL1     H26B     HAL3     0.900000E-01   1.00800           0
       810 MEMB     61       CHL1     H26C     HAL3     0.900000E-01   1.00800           0
       811 MEMB     61       CHL1     C27      CTL3    -0.270000       12.0110           0
       812 MEMB     61       CHL1     H27A     HAL3     0.900000E-01   1.00800           0
       813 MEMB     61       CHL1     H27B     HAL3     0.900000E-01   1.00800           0
       814 MEMB     61       CHL1     H27C     HAL3     0.900000E-01   1.00800           0
       815 MEMB     73       CHL1     C3       CRL1     0.140000       12.0110           0
       816 MEMB     73       CHL1     H3       HGA1     0.900000E-01   1.00800           0
       817 MEMB     73       CHL1     O3       OHL     -0.660000       15.9994           0
       818 MEMB     73       CHL1     H3'      HOL      0.430000       1.00800           0
       819 MEMB     73       CHL1     C4       CRL2    -0.180000       12.0110           0
       820 MEMB     73       CHL1     H4A      HGA2     0.900000E-01   1.00800           0
       821 MEMB     73       CHL1     H4B      HGA2     0.900000E-01   1.00800           0
       822 MEMB     73       CHL1     C5       CEL1     0.000000       12.0110           0
       823 MEMB     73       CHL1     C6       CEL1    -0.150000       12.0110           0
       824 MEMB     73       CHL1     H6       HEL1     0.150000       1.00800           0
       825 MEMB     73       CHL1     C7       CRL2    -0.180000       12.0110           0
       826 MEMB     73       CHL1     H7A      HGA2     0.900000E-01   1.00800           0
       827 MEMB     73       CHL1     H7B      HGA2     0.900000E-01   1.00800           0
       828 MEMB     73       CHL1     C8       CRL1    -0.900000E-01   12.0110           0
       829 MEMB     73       CHL1     H8       HGA1     0.900000E-01   1.00800           0
       830 MEMB     73       CHL1     C14      CRL1    -0.900000E-01   12.0110           0
       831 MEMB     73       CHL1     H14      HGA1     0.900000E-01   1.00800           0
       832 MEMB     73       CHL1     C15      CRL2    -0.180000       12.0110           0
       833 MEMB     73       CHL1     H15A     HGA2     0.900000E-01   1.00800           0
       834 MEMB     73       CHL1     H15B     HGA2     0.900000E-01   1.00800           0
       835 MEMB     73       CHL1     C16      CRL2    -0.180000       12.0110           0
       836 MEMB     73       CHL1     H16A     HGA2     0.900000E-01   1.00800           0
       837 MEMB     73       CHL1     H16B     HGA2     0.900000E-01   1.00800           0
       838 MEMB     73       CHL1     C17      CRL1    -0.900000E-01   12.0110           0
       839 MEMB     73       CHL1     H17      HGA1     0.900000E-01   1.00800           0
       840 MEMB     73       CHL1     C13      CRL1     0.000000       12.0110           0
       841 MEMB     73       CHL1     C18      CTL3    -0.270000       12.0110           0
       842 MEMB     73       CHL1     H18A     HAL3     0.900000E-01   1.00800           0
       843 MEMB     73       CHL1     H18B     HAL3     0.900000E-01   1.00800           0
       844 MEMB     73       CHL1     H18C     HAL3     0.900000E-01   1.00800           0
       845 MEMB     73       CHL1     C12      CRL2    -0.180000       12.0110           0
       846 MEMB     73       CHL1     H12A     HGA2     0.900000E-01   1.00800           0
       847 MEMB     73       CHL1     H12B     HGA2     0.900000E-01   1.00800           0
       848 MEMB     73       CHL1     C11      CRL2    -0.180000       12.0110           0
       849 MEMB     73       CHL1     H11A     HGA2     0.900000E-01   1.00800           0
       850 MEMB     73       CHL1     H11B     HGA2     0.900000E-01   1.00800           0
       851 MEMB     73       CHL1     C9       CRL1    -0.900000E-01   12.0110           0
       852 MEMB     73       CHL1     H9       HGA1     0.900000E-01   1.00800           0
       853 MEMB     73       CHL1     C10      CRL1     0.000000       12.0110           0
       854 MEMB     73       CHL1     C19      CTL3    -0.270000       12.0110           0
       855 MEMB     73       CHL1     H19A     HAL3     0.900000E-01   1.00800           0
       856 MEMB     73       CHL1     H19B     HAL3     0.900000E-01   1.00800           0
       857 MEMB     73       CHL1     H19C     HAL3     0.900000E-01   1.00800           0
       858 MEMB     73       CHL1     C1       CRL2    -0.180000       12.0110           0
       859 MEMB     73       CHL1     H1A      HGA2     0.900000E-01   1.00800           0
       860 MEMB     73       CHL1     H1B      HGA2     0.900000E-01   1.00800           0
       861 MEMB     73       CHL1     C2       CRL2    -0.180000       12.0110           0
       862 MEMB     73       CHL1     H2A      HGA2     0.900000E-01   1.00800           0
       863 MEMB     73       CHL1     H2B      HGA2     0.900000E-01   1.00800           0
       864 MEMB     73       CHL1     C20      CTL1    -0.900000E-01   12.0110           0
       865 MEMB     73       CHL1     H20      HAL1     0.900000E-01   1.00800           0
       866 MEMB     73       CHL1     C21      CTL3    -0.270000       12.0110           0
       867 MEMB     73       CHL1     H21A     HAL3     0.900000E-01   1.00800           0
       868 MEMB     73       CHL1     H21B     HAL3     0.900000E-01   1.00800           0
       869 MEMB     73       CHL1     H21C     HAL3     0.900000E-01   1.00800           0
       870 MEMB     73       CHL1     C22      CTL2    -0.180000       12.0110           0
       871 MEMB     73       CHL1     H22A     HAL2     0.900000E-01   1.00800           0
       872 MEMB     73       CHL1     H22B     HAL2     0.900000E-01   1.00800           0
       873 MEMB     73       CHL1     C23      CTL2    -0.180000       12.0110           0
       874 MEMB     73       CHL1     H23A     HAL2     0.900000E-01   1.00800           0
       875 MEMB     73       CHL1     H23B     HAL2     0.900000E-01   1.00800           0
       876 MEMB     73       CHL1     C24      CTL2    -0.180000       12.0110           0
       877 MEMB     73       CHL1     H24A     HAL2     0.900000E-01   1.00800           0
       878 MEMB     73       CHL1     H24B     HAL2     0.900000E-01   1.00800           0
       879 MEMB     73       CHL1     C25      CTL1    -0.900000E-01   12.0110           0
       880 MEMB     73       CHL1     H25      HAL1     0.900000E-01   1.00800           0
       881 MEMB     73       CHL1     C26      CTL3    -0.270000       12.0110           0
       882 MEMB     73       CHL1     H26A     HAL3     0.900000E-01   1.00800           0
       883 MEMB     73       CHL1     H26B     HAL3     0.900000E-01   1.00800           0
       884 MEMB     73       CHL1     H26C     HAL3     0.900000E-01   1.00800           0
       885 MEMB     73       CHL1     C27      CTL3    -0.270000       12.0110           0
       886 MEMB     73       CHL1     H27A     HAL3     0.900000E-01   1.00800           0
       887 MEMB     73       CHL1     H27B     HAL3     0.900000E-01   1.00800           0
       888 MEMB     73       CHL1     H27C     HAL3     0.900000E-01   1.00800           0
       889 MEMB     74       CHL1     C3       CRL1     0.140000       12.0110           0
       890 MEMB     74       CHL1     H3       HGA1     0.900000E-01   1.00800           0
       891 MEMB     74       CHL1     O3       OHL     -0.660000       15.9994           0
       892 MEMB     74       CHL1     H3'      HOL      0.430000       1.00800           0
       893 MEMB     74       CHL1     C4       CRL2    -0.180000       12.0110           0
       894 MEMB     74       CHL1     H4A      HGA2     0.900000E-01   1.00800           0
       895 MEMB     74       CHL1     H4B      HGA2     0.900000E-01   1.00800           0
       896 MEMB     74       CHL1     C5       CEL1     0.000000       12.0110           0
       897 MEMB     74       CHL1     C6       CEL1    -0.150000       12.0110           0
       898 MEMB     74       CHL1     H6       HEL1     0.150000       1.00800           0
       899 MEMB     74       CHL1     C7       CRL2    -0.180000       12.0110           0
       900 MEMB     74       CHL1     H7A      HGA2     0.900000E-01   1.00800           0
       901 MEMB     74       CHL1     H7B      HGA2     0.900000E-01   1.00800           0
       902 MEMB     74       CHL1     C8       CRL1    -0.900000E-01   12.0110           0
       903 MEMB     74       CHL1     H8       HGA1     0.900000E-01   1.00800           0
       904 MEMB     74       CHL1     C14      CRL1    -0.900000E-01   12.0110           0
       905 MEMB     74       CHL1     H14      HGA1     0.900000E-01   1.00800           0
       906 MEMB     74       CHL1     C15      CRL2    -0.180000       12.0110           0
       907 MEMB     74       CHL1     H15A     HGA2     0.900000E-01   1.00800           0
       908 MEMB     74       CHL1     H15B     HGA2     0.900000E-01   1.00800           0
       909 MEMB     74       CHL1     C16      CRL2    -0.180000       12.0110           0
       910 MEMB     74       CHL1     H16A     HGA2     0.900000E-01   1.00800           0
       911 MEMB     74       CHL1     H16B     HGA2     0.900000E-01   1.00800           0
       912 MEMB     74       CHL1     C17      CRL1    -0.900000E-01   12.0110           0
       913 MEMB     74       CHL1     H17      HGA1     0.900000E-01   1.00800           0
       914 MEMB     74       CHL1     C13      CRL1     0.000000       12.0110           0
       915 MEMB     74       CHL1     C18      CTL3    -0.270000       12.0110           0
       916 MEMB     74       CHL1     H18A     HAL3     0.900000E-01   1.00800           0
       917 MEMB     74       CHL1     H18B     HAL3     0.900000E-01   1.00800           0
       918 MEMB     74       CHL1     H18C     HAL3     0.900000E-01   1.00800           0
       919 MEMB     74       CHL1     C12      CRL2    -0.180000       12.0110           0
       920 MEMB     74       CHL1     H12A     HGA2     0.900000E-01   1.00800           0
       921 MEMB     74       CHL1     H12B     HGA2     0.900000E-01   1.00800           0
       922 MEMB     74       CHL1     C11      CRL2    -0.180000       12.0110           0
       923 MEMB     74       CHL1     H11A     HGA2     0.900000E-01   1.00800           0
       924 MEMB     74       CHL1     H11B     HGA2     0.900000E-01   1.00800           0
       925 MEMB     74       CHL1     C9       CRL1    -0.900000E-01   12.0110           0
       926 MEMB     74       CHL1     H9       HGA1     0.900000E-01   1.00800           0
       927 MEMB     74       CHL1     C10      CRL1     0.000000       12.0110           0
       928 MEMB     74       CHL1     C19      CTL3    -0.270000       12.0110           0
       929 MEMB     74       CHL1     H19A     HAL3     0.900000E-01   1.00800           0
       930 MEMB     74       CHL1     H19B     HAL3     0.900000E-01   1.00800           0
       931 MEMB     74       CHL1     H19C     HAL3     0.900000E-01   1.00800           0
       932 MEMB     74       CHL1     C1       CRL2    -0.180000       12.0110           0
       933 MEMB     74       CHL1     H1A      HGA2     0.900000E-01   1.00800           0
       934 MEMB     74       CHL1     H1B      HGA2     0.900000E-01   1.00800           0
       935 MEMB     74       CHL1     C2       CRL2    -0.180000       12.0110           0
       936 MEMB     74       CHL1     H2A      HGA2     0.900000E-01   1.00800           0
       937 MEMB     74       CHL1     H2B      HGA2     0.900000E-01   1.00800           0
       938 MEMB     74       CHL1     C20      CTL1    -0.900000E-01   12.0110           0
       939 MEMB     74       CHL1     H20      HAL1     0.900000E-01   1.00800           0
       940 MEMB     74       CHL1     C21      CTL3    -0.270000       12.0110           0
       941 MEMB     74       CHL1     H21A     HAL3     0.900000E-01   1.00800           0
       942 MEMB     74       CHL1     H21B     HAL3     0.900000E-01   1.00800           0
       943 MEMB     74       CHL1     H21C     HAL3     0.900000E-01   1.00800           0
       944 MEMB     74       CHL1     C22      CTL2    -0.180000       12.0110           0
       945 MEMB     74       CHL1     H22A     HAL2     0.900000E-01   1.00800           0
       946 MEMB     74       CHL1     H22B     HAL2     0.900000E-01   1.00800           0
       947 MEMB     74       CHL1     C23      CTL2    -0.180000       12.0110           0
       948 MEMB     74       CHL1     H23A     HAL2     0.900000E-01   1.00800           0
       949 MEMB     74       CHL1     H23B     HAL2     0.900000E-01   1.00800           0
       950 MEMB     74       CHL1     C24      CTL2    -0.180000       12.0110           0
       951 MEMB     74       CHL1     H24A     HAL2     0.900000E-01   1.00800           0
       952 MEMB     74       CHL1     H24B     HAL2     0.900000E-01   1.00800           0
       953 MEMB     74       CHL1     C25      CTL1    -0.900000E-01   12.0110           0
       954 MEMB     74       CHL1     H25      HAL1     0.900000E-01   1.00800           0
       955 MEMB     74       CHL1     C26      CTL3    -0.270000       12.0110           0
       956 MEMB     74       CHL1     H26A     HAL3     0.900000E-01   1.00800           0
       957 MEMB     74       CHL1     H26B     HAL3     0.900000E-01   1.00800           0
       958 MEMB     74       CHL1     H26C     HAL3     0.900000E-01   1.00800           0
       959 MEMB     74       CHL1     C27      CTL3    -0.270000       12.0110           0
       960 MEMB     74       CHL1     H27A     HAL3     0.900000E-01   1.00800           0
       961 MEMB     74       CHL1     H27B     HAL3     0.900000E-01   1.00800           0
       962 MEMB     74       CHL1     H27C     HAL3     0.900000E-01   1.00800           0
       963 MEMB     93       CHL1     C3       CRL1     0.140000       12.0110           0
       964 MEMB     93       CHL1     H3       HGA1     0.900000E-01   1.00800           0
       965 MEMB     93       CHL1     O3       OHL     -0.660000       15.9994           0
       966 MEMB     93       CHL1     H3'      HOL      0.430000       1.00800           0
       967 MEMB     93       CHL1     C4       CRL2    -0.180000       12.0110           0
       968 MEMB     93       CHL1     H4A      HGA2     0.900000E-01   1.00800           0
       969 MEMB     93       CHL1     H4B      HGA2     0.900000E-01   1.00800           0
       970 MEMB     93       CHL1     C5       CEL1     0.000000       12.0110           0
       971 MEMB     93       CHL1     C6       CEL1    -0.150000       12.0110           0
       972 MEMB     93       CHL1     H6       HEL1     0.150000       1.00800           0
       973 MEMB     93       CHL1     C7       CRL2    -0.180000       12.0110           0
       974 MEMB     93       CHL1     H7A      HGA2     0.900000E-01   1.00800           0
       975 MEMB     93       CHL1     H7B      HGA2     0.900000E-01   1.00800           0
       976 MEMB     93       CHL1     C8       CRL1    -0.900000E-01   12.0110           0
       977 MEMB     93       CHL1     H8       HGA1     0.900000E-01   1.00800           0
       978 MEMB     93       CHL1     C14      CRL1    -0.900000E-01   12.0110           0
       979 MEMB     93       CHL1     H14      HGA1     0.900000E-01   1.00800           0
       980 MEMB     93       CHL1     C15      CRL2    -0.180000       12.0110           0
       981 MEMB     93       CHL1     H15A     HGA2     0.900000E-01   1.00800           0
       982 MEMB     93       CHL1     H15B     HGA2     0.900000E-01   1.00800           0
       983 MEMB     93       CHL1     C16      CRL2    -0.180000       12.0110           0
       984 MEMB     93       CHL1     H16A     HGA2     0.900000E-01   1.00800           0
       985 MEMB     93       CHL1     H16B     HGA2     0.900000E-01   1.00800           0
       986 MEMB     93       CHL1     C17      CRL1    -0.900000E-01   12.0110           0
       987 MEMB     93       CHL1     H17      HGA1     0.900000E-01   1.00800           0
       988 MEMB     93       CHL1     C13      CRL1     0.000000       12.0110           0
       989 MEMB     93       CHL1     C18      CTL3    -0.270000       12.0110           0
       990 MEMB     93       CHL1     H18A     HAL3     0.900000E-01   1.00800           0
       991 MEMB     93       CHL1     H18B     HAL3     0.900000E-01   1.00800           0
       992 MEMB     93       CHL1     H18C     HAL3     0.900000E-01   1.00800           0
       993 MEMB     93       CHL1     C12      CRL2    -0.180000       12.0110           0
       994 MEMB     93       CHL1     H12A     HGA2     0.900000E-01   1.00800           0
       995 MEMB     93       CHL1     H12B     HGA2     0.900000E-01   1.00800           0
       996 MEMB     93       CHL1     C11      CRL2    -0.180000       12.0110           0
       997 MEMB     93       CHL1     H11A     HGA2     0.900000E-01   1.00800           0
       998 MEMB     93       CHL1     H11B     HGA2     0.900000E-01   1.00800           0
       999 MEMB     93       CHL1     C9       CRL1    -0.900000E-01   12.0110           0
      1000 MEMB     93       CHL1     H9       HGA1     0.900000E-01   1.00800           0
      1001 MEMB     93       CHL1     C10      CRL1     0.000000       12.0110           0
      1002 MEMB     93       CHL1     C19      CTL3    -0.270000       12.0110           0
      1003 MEMB     93       CHL1     H19A     HAL3     0.900000E-01   1.00800           0
      1004 MEMB     93       CHL1     H19B     HAL3     0.900000E-01   1.00800           0
      1005 MEMB     93       CHL1     H19C     HAL3     0.900000E-01   1.00800           0
      1006 MEMB     93       CHL1     C1       CRL2    -0.180000       12.0110           0
      1007 MEMB     93       CHL1     H1A      HGA2     0.900000E-01   1.00800           0
      1008 MEMB     93       CHL1     H1B      HGA2     0.900000E-01   1.00800           0
      1009 MEMB     93       CHL1     C2       CRL2    -0.180000       12.0110           0
      1010 MEMB     93       CHL1     H2A      HGA2     0.900000E-01   1.00800           0
      1011 MEMB     93       CHL1     H2B      HGA2     0.900000E-01   1.00800           0
      1012 MEMB     93       CHL1     C20      CTL1    -0.900000E-01   12.0110           0
      1013 MEMB     93       CHL1     H20      HAL1     0.900000E-01   1.00800           0
      1014 MEMB     93       CHL1     C21      CTL3    -0.270000       12.0110           0
      1015 MEMB     93       CHL1     H21A     HAL3     0.900000E-01   1.00800           0
      1016 MEMB     93       CHL1     H21B     HAL3     0.900000E-01   1.00800           0
      1017 MEMB     93       CHL1     H21C     HAL3     0.900000E-01   1.00800           0
      1018 MEMB     93       CHL1     C22      CTL2    -0.180000       12.0110           0
      1019 MEMB     93       CHL1     H22A     HAL2     0.900000E-01   1.00800           0
      1020 MEMB     93       CHL1     H22B     HAL2     0.900000E-01   1.00800           0
      1021 MEMB     93       CHL1     C23      CTL2    -0.180000       12.0110           0
      1022 MEMB     93       CHL1     H23A     HAL2     0.900000E-01   1.00800           0
      1023 MEMB     93       CHL1     H23B     HAL2     0.900000E-01   1.00800           0
      1024 MEMB     93       CHL1     C24      CTL2    -0.180000       12.0110           0
      1025 MEMB     93       CHL1     H24A     HAL2     0.900000E-01   1.00800           0
      1026 MEMB     93       CHL1     H24B     HAL2     0.900000E-01   1.00800           0
      1027 MEMB     93       CHL1     C25      CTL1    -0.900000E-01   12.0110           0
      1028 MEMB     93       CHL1     H25      HAL1     0.900000E-01   1.00800           0
      1029 MEMB     93       CHL1     C26      CTL3    -0.270000       12.0110           0
      1030 MEMB     93       CHL1     H26A     HAL3     0.900000E-01   1.00800           0
      1031 MEMB     93       CHL1     H26B     HAL3     0.900000E-01   1.00800           0
      1032 MEMB     93       CHL1     H26C     HAL3     0.900000E-01   1.00800           0
      1033 MEMB     93       CHL1     C27      CTL3    -0.270000       12.0110           0
      1034 MEMB     93       CHL1     H27A     HAL3     0.900000E-01   1.00800           0
      1035 MEMB     93       CHL1     H27B     HAL3     0.900000E-01   1.00800           0
      1036 MEMB     93       CHL1     H27C     HAL3     0.900000E-01   1.00800           0
      1037 MEMB     97       CHL1     C3       CRL1     0.140000       12.0110           0
      1038 MEMB     97       CHL1     H3       HGA1     0.900000E-01   1.00800           0
      1039 MEMB     97       CHL1     O3       OHL     -0.660000       15.9994           0
      1040 MEMB     97       CHL1     H3'      HOL      0.430000       1.00800           0
      1041 MEMB     97       CHL1     C4       CRL2    -0.180000       12.0110           0
      1042 MEMB     97       CHL1     H4A      HGA2     0.900000E-01   1.00800           0
      1043 MEMB     97       CHL1     H4B      HGA2     0.900000E-01   1.00800           0
      1044 MEMB     97       CHL1     C5       CEL1     0.000000       12.0110           0
      1045 MEMB     97       CHL1     C6       CEL1    -0.150000       12.0110           0
      1046 MEMB     97       CHL1     H6       HEL1     0.150000       1.00800           0
      1047 MEMB     97       CHL1     C7       CRL2    -0.180000       12.0110           0
      1048 MEMB     97       CHL1     H7A      HGA2     0.900000E-01   1.00800           0
      1049 MEMB     97       CHL1     H7B      HGA2     0.900000E-01   1.00800           0
      1050 MEMB     97       CHL1     C8       CRL1    -0.900000E-01   12.0110           0
      1051 MEMB     97       CHL1     H8       HGA1     0.900000E-01   1.00800           0
      1052 MEMB     97       CHL1     C14      CRL1    -0.900000E-01   12.0110           0
      1053 MEMB     97       CHL1     H14      HGA1     0.900000E-01   1.00800           0
      1054 MEMB     97       CHL1     C15      CRL2    -0.180000       12.0110           0
      1055 MEMB     97       CHL1     H15A     HGA2     0.900000E-01   1.00800           0
      1056 MEMB     97       CHL1     H15B     HGA2     0.900000E-01   1.00800           0
      1057 MEMB     97       CHL1     C16      CRL2    -0.180000       12.0110           0
      1058 MEMB     97       CHL1     H16A     HGA2     0.900000E-01   1.00800           0
      1059 MEMB     97       CHL1     H16B     HGA2     0.900000E-01   1.00800           0
      1060 MEMB     97       CHL1     C17      CRL1    -0.900000E-01   12.0110           0
      1061 MEMB     97       CHL1     H17      HGA1     0.900000E-01   1.00800           0
      1062 MEMB     97       CHL1     C13      CRL1     0.000000       12.0110           0
      1063 MEMB     97       CHL1     C18      CTL3    -0.270000       12.0110           0
      1064 MEMB     97       CHL1     H18A     HAL3     0.900000E-01   1.00800           0
      1065 MEMB     97       CHL1     H18B     HAL3     0.900000E-01   1.00800           0
      1066 MEMB     97       CHL1     H18C     HAL3     0.900000E-01   1.00800           0
      1067 MEMB     97       CHL1     C12      CRL2    -0.180000       12.0110           0
      1068 MEMB     97       CHL1     H12A     HGA2     0.900000E-01   1.00800           0
      1069 MEMB     97       CHL1     H12B     HGA2     0.900000E-01   1.00800           0
      1070 MEMB     97       CHL1     C11      CRL2    -0.180000       12.0110           0
      1071 MEMB     97       CHL1     H11A     HGA2     0.900000E-01   1.00800           0
      1072 MEMB     97       CHL1     H11B     HGA2     0.900000E-01   1.00800           0
      1073 MEMB     97       CHL1     C9       CRL1    -0.900000E-01   12.0110           0
      1074 MEMB     97       CHL1     H9       HGA1     0.900000E-01   1.00800           0
      1075 MEMB     97       CHL1     C10      CRL1     0.000000       12.0110           0
      1076 MEMB     97       CHL1     C19      CTL3    -0.270000       12.0110           0
      1077 MEMB     97       CHL1     H19A     HAL3     0.900000E-01   1.00800           0
      1078 MEMB     97       CHL1     H19B     HAL3     0.900000E-01   1.00800           0
      1079 MEMB     97       CHL1     H19C     HAL3     0.900000E-01   1.00800           0
      1080 MEMB     97       CHL1     C1       CRL2    -0.180000       12.0110           0
      1081 MEMB     97       CHL1     H1A      HGA2     0.900000E-01   1.00800           0
      1082 MEMB     97       CHL1     H1B      HGA2     0.900000E-01   1.00800           0
      1083 MEMB     97       CHL1     C2       CRL2    -0.180000       12.0110           0
      1084 MEMB     97       CHL1     H2A      HGA2     0.900000E-01   1.00800           0
      1085 MEMB     97       CHL1     H2B      HGA2     0.900000E-01   1.00800           0
      1086 MEMB     97       CHL1     C20      CTL1    -0.900000E-01   12.0110           0
      1087 MEMB     97       CHL1     H20      HAL1     0.900000E-01   1.00800           0
      1088 MEMB     97       CHL1     C21      CTL3    -0.270000       12.0110           0
      1089 MEMB     97       CHL1     H21A     HAL3     0.900000E-01   1.00800           0
      1090 MEMB     97       CHL1     H21B     HAL3     0.900000E-01   1.00800           0
      1091 MEMB     97       CHL1     H21C     HAL3     0.900000E-01   1.00800           0
      1092 MEMB     97       CHL1     C22      CTL2    -0.180000       12.0110           0
      1093 MEMB     97       CHL1     H22A     HAL2     0.900000E-01   1.00800           0
      1094 MEMB     97       CHL1     H22B     HAL2     0.900000E-01   1.00800           0
      1095 MEMB     97       CHL1     C23      CTL2    -0.180000       12.0110           0
      1096 MEMB     97       CHL1     H23A     HAL2     0.900000E-01   1.00800           0
      1097 MEMB     97       CHL1     H23B     HAL2     0.900000E-01   1.00800           0
      1098 MEMB     97       CHL1     C24      CTL2    -0.180000       12.0110           0
      1099 MEMB     97       CHL1     H24A     HAL2     0.900000E-01   1.00800           0
      1100 MEMB     97       CHL1     H24B     HAL2     0.900000E-01   1.00800           0
      1101 MEMB     97       CHL1     C25      CTL1    -0.900000E-01   12.0110           0
      1102 MEMB     97       CHL1     H25      HAL1     0.900000E-01   1.00800           0
      1103 MEMB     97       CHL1     C26      CTL3    -0.270000       12.0110           0
      1104 MEMB     97       CHL1     H26A     HAL3     0.900000E-01   1.00800           0
      1105 MEMB     97       CHL1     H26B     HAL3     0.900000E-01   1.00800           0
      1106 MEMB     97       CHL1     H26C     HAL3     0.900000E-01   1.00800           0
      1107 MEMB     97       CHL1     C27      CTL3    -0.270000       12.0110           0
      1108 MEMB     97       CHL1     H27A     HAL3     0.900000E-01   1.00800           0
      1109 MEMB     97       CHL1     H27B     HAL3     0.900000E-01   1.00800           0
      1110 MEMB     97       CHL1     H27C     HAL3     0.900000E-01   1.00800           0
      1111 MEMB     104      CHL1     C3       CRL1     0.140000       12.0110           0
      1112 MEMB     104      CHL1     H3       HGA1     0.900000E-01   1.00800           0
      1113 MEMB     104      CHL1     O3       OHL     -0.660000       15.9994           0
      1114 MEMB     104      CHL1     H3'      HOL      0.430000       1.00800           0
      1115 MEMB     104      CHL1     C4       CRL2    -0.180000       12.0110           0
      1116 MEMB     104      CHL1     H4A      HGA2     0.900000E-01   1.00800           0
      1117 MEMB     104      CHL1     H4B      HGA2     0.900000E-01   1.00800           0
      1118 MEMB     104      CHL1     C5       CEL1     0.000000       12.0110           0
      1119 MEMB     104      CHL1     C6       CEL1    -0.150000       12.0110           0
      1120 MEMB     104      CHL1     H6       HEL1     0.150000       1.00800           0
      1121 MEMB     104      CHL1     C7       CRL2    -0.180000       12.0110           0
      1122 MEMB     104      CHL1     H7A      HGA2     0.900000E-01   1.00800           0
      1123 MEMB     104      CHL1     H7B      HGA2     0.900000E-01   1.00800           0
      1124 MEMB     104      CHL1     C8       CRL1    -0.900000E-01   12.0110           0
      1125 MEMB     104      CHL1     H8       HGA1     0.900000E-01   1.00800           0
      1126 MEMB     104      CHL1     C14      CRL1    -0.900000E-01   12.0110           0
      1127 MEMB     104      CHL1     H14      HGA1     0.900000E-01   1.00800           0
      1128 MEMB     104      CHL1     C15      CRL2    -0.180000       12.0110           0
      1129 MEMB     104      CHL1     H15A     HGA2     0.900000E-01   1.00800           0
      1130 MEMB     104      CHL1     H15B     HGA2     0.900000E-01   1.00800           0
      1131 MEMB     104      CHL1     C16      CRL2    -0.180000       12.0110           0
      1132 MEMB     104      CHL1     H16A     HGA2     0.900000E-01   1.00800           0
      1133 MEMB     104      CHL1     H16B     HGA2     0.900000E-01   1.00800           0
      1134 MEMB     104      CHL1     C17      CRL1    -0.900000E-01   12.0110           0
      1135 MEMB     104      CHL1     H17      HGA1     0.900000E-01   1.00800           0
      1136 MEMB     104      CHL1     C13      CRL1     0.000000       12.0110           0
      1137 MEMB     104      CHL1     C18      CTL3    -0.270000       12.0110           0
      1138 MEMB     104      CHL1     H18A     HAL3     0.900000E-01   1.00800           0
      1139 MEMB     104      CHL1     H18B     HAL3     0.900000E-01   1.00800           0
      1140 MEMB     104      CHL1     H18C     HAL3     0.900000E-01   1.00800           0
      1141 MEMB     104      CHL1     C12      CRL2    -0.180000       12.0110           0
      1142 MEMB     104      CHL1     H12A     HGA2     0.900000E-01   1.00800           0
      1143 MEMB     104      CHL1     H12B     HGA2     0.900000E-01   1.00800           0
      1144 MEMB     104      CHL1     C11      CRL2    -0.180000       12.0110           0
      1145 MEMB     104      CHL1     H11A     HGA2     0.900000E-01   1.00800           0
      1146 MEMB     104      CHL1     H11B     HGA2     0.900000E-01   1.00800           0
      1147 MEMB     104      CHL1     C9       CRL1    -0.900000E-01   12.0110           0
      1148 MEMB     104      CHL1     H9       HGA1     0.900000E-01   1.00800           0
      1149 MEMB     104      CHL1     C10      CRL1     0.000000       12.0110           0
      1150 MEMB     104      CHL1     C19      CTL3    -0.270000       12.0110           0
      1151 MEMB     104      CHL1     H19A     HAL3     0.900000E-01   1.00800           0
      1152 MEMB     104      CHL1     H19B     HAL3     0.900000E-01   1.00800           0
      1153 MEMB     104      CHL1     H19C     HAL3     0.900000E-01   1.00800           0
      1154 MEMB     104      CHL1     C1       CRL2    -0.180000       12.0110           0
      1155 MEMB     104      CHL1     H1A      HGA2     0.900000E-01   1.00800           0
      1156 MEMB     104      CHL1     H1B      HGA2     0.900000E-01   1.00800           0
      1157 MEMB     104      CHL1     C2       CRL2    -0.180000       12.0110           0
      1158 MEMB     104      CHL1     H2A      HGA2     0.900000E-01   1.00800           0
      1159 MEMB     104      CHL1     H2B      HGA2     0.900000E-01   1.00800           0
      1160 MEMB     104      CHL1     C20      CTL1    -0.900000E-01   12.0110           0
      1161 MEMB     104      CHL1     H20      HAL1     0.900000E-01   1.00800           0
      1162 MEMB     104      CHL1     C21      CTL3    -0.270000       12.0110           0
      1163 MEMB     104      CHL1     H21A     HAL3     0.900000E-01   1.00800           0
      1164 MEMB     104      CHL1     H21B     HAL3     0.900000E-01   1.00800           0
      1165 MEMB     104      CHL1     H21C     HAL3     0.900000E-01   1.00800           0
      1166 MEMB     104      CHL1     C22      CTL2    -0.180000       12.0110           0
      1167 MEMB     104      CHL1     H22A     HAL2     0.900000E-01   1.00800           0
      1168 MEMB     104      CHL1     H22B     HAL2     0.900000E-01   1.00800           0
      1169 MEMB     104      CHL1     C23      CTL2    -0.180000       12.0110           0
      1170 MEMB     104      CHL1     H23A     HAL2     0.900000E-01   1.00800           0
      1171 MEMB     104      CHL1     H23B     HAL2     0.900000E-01   1.00800           0
      1172 MEMB     104      CHL1     C24      CTL2    -0.180000       12.0110           0
      1173 MEMB     104      CHL1     H24A     HAL2     0.900000E-01   1.00800           0
      1174 MEMB     104      CHL1     H24B     HAL2     0.900000E-01   1.00800           0
      1175 MEMB     104      CHL1     C25      CTL1    -0.900000E-01   12.0110           0
      1176 MEMB     104      CHL1     H25      HAL1     0.900000E-01   1.00800           0
      1177 MEMB     104      CHL1     C26      CTL3    -0.270000       12.0110           0
      1178 MEMB     104      CHL1     H26A     HAL3     0.900000E-01   1.00800           0
      1179 MEMB     104      CHL1     H26B     HAL3     0.900000E-01   1.00800           0
      1180 MEMB     104      CHL1     H26C     HAL3     0.900000E-01   1.00800           0
      1181 MEMB     104      CHL1     C27      CTL3    -0.270000       12.0110           0
      1182 MEMB     104      CHL1     H27A     HAL3     0.900000E-01   1.00800           0
      1183 MEMB     104      CHL1     H27B     HAL3     0.900000E-01   1.00800           0
      1184 MEMB     104      CHL1     H27C     HAL3     0.900000E-01   1.00800           0
      1185 MEMB     107      CHL1     C3       CRL1     0.140000       12.0110           0
      1186 MEMB     107      CHL1     H3       HGA1     0.900000E-01   1.00800           0
      1187 MEMB     107      CHL1     O3       OHL     -0.660000       15.9994           0
      1188 MEMB     107      CHL1     H3'      HOL      0.430000       1.00800           0
      1189 MEMB     107      CHL1     C4       CRL2    -0.180000       12.0110           0
      1190 MEMB     107      CHL1     H4A      HGA2     0.900000E-01   1.00800           0
      1191 MEMB     107      CHL1     H4B      HGA2     0.900000E-01   1.00800           0
      1192 MEMB     107      CHL1     C5       CEL1     0.000000       12.0110           0
      1193 MEMB     107      CHL1     C6       CEL1    -0.150000       12.0110           0
      1194 MEMB     107      CHL1     H6       HEL1     0.150000       1.00800           0
      1195 MEMB     107      CHL1     C7       CRL2    -0.180000       12.0110           0
      1196 MEMB     107      CHL1     H7A      HGA2     0.900000E-01   1.00800           0
      1197 MEMB     107      CHL1     H7B      HGA2     0.900000E-01   1.00800           0
      1198 MEMB     107      CHL1     C8       CRL1    -0.900000E-01   12.0110           0
      1199 MEMB     107      CHL1     H8       HGA1     0.900000E-01   1.00800           0
      1200 MEMB     107      CHL1     C14      CRL1    -0.900000E-01   12.0110           0
      1201 MEMB     107      CHL1     H14      HGA1     0.900000E-01   1.00800           0
      1202 MEMB     107      CHL1     C15      CRL2    -0.180000       12.0110           0
      1203 MEMB     107      CHL1     H15A     HGA2     0.900000E-01   1.00800           0
      1204 MEMB     107      CHL1     H15B     HGA2     0.900000E-01   1.00800           0
      1205 MEMB     107      CHL1     C16      CRL2    -0.180000       12.0110           0
      1206 MEMB     107      CHL1     H16A     HGA2     0.900000E-01   1.00800           0
      1207 MEMB     107      CHL1     H16B     HGA2     0.900000E-01   1.00800           0
      1208 MEMB     107      CHL1     C17      CRL1    -0.900000E-01   12.0110           0
      1209 MEMB     107      CHL1     H17      HGA1     0.900000E-01   1.00800           0
      1210 MEMB     107      CHL1     C13      CRL1     0.000000       12.0110           0
      1211 MEMB     107      CHL1     C18      CTL3    -0.270000       12.0110           0
      1212 MEMB     107      CHL1     H18A     HAL3     0.900000E-01   1.00800           0
      1213 MEMB     107      CHL1     H18B     HAL3     0.900000E-01   1.00800           0
      1214 MEMB     107      CHL1     H18C     HAL3     0.900000E-01   1.00800           0
      1215 MEMB     107      CHL1     C12      CRL2    -0.180000       12.0110           0
      1216 MEMB     107      CHL1     H12A     HGA2     0.900000E-01   1.00800           0
      1217 MEMB     107      CHL1     H12B     HGA2     0.900000E-01   1.00800           0
      1218 MEMB     107      CHL1     C11      CRL2    -0.180000       12.0110           0
      1219 MEMB     107      CHL1     H11A     HGA2     0.900000E-01   1.00800           0
      1220 MEMB     107      CHL1     H11B     HGA2     0.900000E-01   1.00800           0
      1221 MEMB     107      CHL1     C9       CRL1    -0.900000E-01   12.0110           0
      1222 MEMB     107      CHL1     H9       HGA1     0.900000E-01   1.00800           0
      1223 MEMB     107      CHL1     C10      CRL1     0.000000       12.0110           0
      1224 MEMB     107      CHL1     C19      CTL3    -0.270000       12.0110           0
      1225 MEMB     107      CHL1     H19A     HAL3     0.900000E-01   1.00800           0
      1226 MEMB     107      CHL1     H19B     HAL3     0.900000E-01   1.00800           0
      1227 MEMB     107      CHL1     H19C     HAL3     0.900000E-01   1.00800           0
      1228 MEMB     107      CHL1     C1       CRL2    -0.180000       12.0110           0
      1229 MEMB     107      CHL1     H1A      HGA2     0.900000E-01   1.00800           0
      1230 MEMB     107      CHL1     H1B      HGA2     0.900000E-01   1.00800           0
      1231 MEMB     107      CHL1     C2       CRL2    -0.180000       12.0110           0
      1232 MEMB     107      CHL1     H2A      HGA2     0.900000E-01   1.00800           0
      1233 MEMB     107      CHL1     H2B      HGA2     0.900000E-01   1.00800           0
      1234 MEMB     107      CHL1     C20      CTL1    -0.900000E-01   12.0110           0
      1235 MEMB     107      CHL1     H20      HAL1     0.900000E-01   1.00800           0
      1236 MEMB     107      CHL1     C21      CTL3    -0.270000       12.0110           0
      1237 MEMB     107      CHL1     H21A     HAL3     0.900000E-01   1.00800           0
      1238 MEMB     107      CHL1     H21B     HAL3     0.900000E-01   1.00800           0
      1239 MEMB     107      CHL1     H21C     HAL3     0.900000E-01   1.00800           0
      1240 MEMB     107      CHL1     C22      CTL2    -0.180000       12.0110           0
      1241 MEMB     107      CHL1     H22A     HAL2     0.900000E-01   1.00800           0
      1242 MEMB     107      CHL1     H22B     HAL2     0.900000E-01   1.00800           0
      1243 MEMB     107      CHL1     C23      CTL2    -0.180000       12.0110           0
      1244 MEMB     107      CHL1     H23A     HAL2     0.900000E-01   1.00800           0
      1245 MEMB     107      CHL1     H23B     HAL2     0.900000E-01   1.00800           0
      1246 MEMB     107      CHL1     C24      CTL2    -0.180000       12.0110           0
      1247 MEMB     107      CHL1     H24A     HAL2     0.900000E-01   1.00800           0
      1248 MEMB     107      CHL1     H24B     HAL2     0.900000E-01   1.00800           0
      1249 MEMB     107      CHL1     C25      CTL1    -0.900000E-01   12.0110           0
      1250 MEMB     107      CHL1     H25      HAL1     0.900000E-01   1.00800           0
      1251 MEMB     107      CHL1     C26      CTL3    -0.270000       12.0110           0
      1252 MEMB     107      CHL1     H26A     HAL3     0.900000E-01   1.00800           0
      1253 MEMB     107      CHL1     H26B     HAL3     0.900000E-01   1.00800           0
      1254 MEMB     107      CHL1     H26C     HAL3     0.900000E-01   1.00800           0
      1255 MEMB     107      CHL1     C27      CTL3    -0.270000       12.0110           0
      1256 MEMB     107      CHL1     H27A     HAL3     0.900000E-01   1.00800           0
      1257 MEMB     107      CHL1     H27B     HAL3     0.900000E-01   1.00800           0
      1258 MEMB     107      CHL1     H27C     HAL3     0.900000E-01   1.00800           0
      1259 MEMB     108      CHL1     C3       CRL1     0.140000       12.0110           0
      1260 MEMB     108      CHL1     H3       HGA1     0.900000E-01   1.00800           0
      1261 MEMB     108      CHL1     O3       OHL     -0.660000       15.9994           0
      1262 MEMB     108      CHL1     H3'      HOL      0.430000       1.00800           0
      1263 MEMB     108      CHL1     C4       CRL2    -0.180000       12.0110           0
      1264 MEMB     108      CHL1     H4A      HGA2     0.900000E-01   1.00800           0
      1265 MEMB     108      CHL1     H4B      HGA2     0.900000E-01   1.00800           0
      1266 MEMB     108      CHL1     C5       CEL1     0.000000       12.0110           0
      1267 MEMB     108      CHL1     C6       CEL1    -0.150000       12.0110           0
      1268 MEMB     108      CHL1     H6       HEL1     0.150000       1.00800           0
      1269 MEMB     108      CHL1     C7       CRL2    -0.180000       12.0110           0
      1270 MEMB     108      CHL1     H7A      HGA2     0.900000E-01   1.00800           0
      1271 MEMB     108      CHL1     H7B      HGA2     0.900000E-01   1.00800           0
      1272 MEMB     108      CHL1     C8       CRL1    -0.900000E-01   12.0110           0
      1273 MEMB     108      CHL1     H8       HGA1     0.900000E-01   1.00800           0
      1274 MEMB     108      CHL1     C14      CRL1    -0.900000E-01   12.0110           0
      1275 MEMB     108      CHL1     H14      HGA1     0.900000E-01   1.00800           0
      1276 MEMB     108      CHL1     C15      CRL2    -0.180000       12.0110           0
      1277 MEMB     108      CHL1     H15A     HGA2     0.900000E-01   1.00800           0
      1278 MEMB     108      CHL1     H15B     HGA2     0.900000E-01   1.00800           0
      1279 MEMB     108      CHL1     C16      CRL2    -0.180000       12.0110           0
      1280 MEMB     108      CHL1     H16A     HGA2     0.900000E-01   1.00800           0
      1281 MEMB     108      CHL1     H16B     HGA2     0.900000E-01   1.00800           0
      1282 MEMB     108      CHL1     C17      CRL1    -0.900000E-01   12.0110           0
      1283 MEMB     108      CHL1     H17      HGA1     0.900000E-01   1.00800           0
      1284 MEMB     108      CHL1     C13      CRL1     0.000000       12.0110           0
      1285 MEMB     108      CHL1     C18      CTL3    -0.270000       12.0110           0
      1286 MEMB     108      CHL1     H18A     HAL3     0.900000E-01   1.00800           0
      1287 MEMB     108      CHL1     H18B     HAL3     0.900000E-01   1.00800           0
      1288 MEMB     108      CHL1     H18C     HAL3     0.900000E-01   1.00800           0
      1289 MEMB     108      CHL1     C12      CRL2    -0.180000       12.0110           0
      1290 MEMB     108      CHL1     H12A     HGA2     0.900000E-01   1.00800           0
      1291 MEMB     108      CHL1     H12B     HGA2     0.900000E-01   1.00800           0
      1292 MEMB     108      CHL1     C11      CRL2    -0.180000       12.0110           0
      1293 MEMB     108      CHL1     H11A     HGA2     0.900000E-01   1.00800           0
      1294 MEMB     108      CHL1     H11B     HGA2     0.900000E-01   1.00800           0
      1295 MEMB     108      CHL1     C9       CRL1    -0.900000E-01   12.0110           0
      1296 MEMB     108      CHL1     H9       HGA1     0.900000E-01   1.00800           0
      1297 MEMB     108      CHL1     C10      CRL1     0.000000       12.0110           0
      1298 MEMB     108      CHL1     C19      CTL3    -0.270000       12.0110           0
      1299 MEMB     108      CHL1     H19A     HAL3     0.900000E-01   1.00800           0
      1300 MEMB     108      CHL1     H19B     HAL3     0.900000E-01   1.00800           0
      1301 MEMB     108      CHL1     H19C     HAL3     0.900000E-01   1.00800           0
      1302 MEMB     108      CHL1     C1       CRL2    -0.180000       12.0110           0
      1303 MEMB     108      CHL1     H1A      HGA2     0.900000E-01   1.00800           0
      1304 MEMB     108      CHL1     H1B      HGA2     0.900000E-01   1.00800           0
      1305 MEMB     108      CHL1     C2       CRL2    -0.180000       12.0110           0
      1306 MEMB     108      CHL1     H2A      HGA2     0.900000E-01   1.00800           0
      1307 MEMB     108      CHL1     H2B      HGA2     0.900000E-01   1.00800           0
      1308 MEMB     108      CHL1     C20      CTL1    -0.900000E-01   12.0110           0
      1309 MEMB     108      CHL1     H20      HAL1     0.900000E-01   1.00800           0
      1310 MEMB     108      CHL1     C21      CTL3    -0.270000       12.0110           0
      1311 MEMB     108      CHL1     H21A     HAL3     0.900000E-01   1.00800           0
      1312 MEMB     108      CHL1     H21B     HAL3     0.900000E-01   1.00800           0
      1313 MEMB     108      CHL1     H21C     HAL3     0.900000E-01   1.00800           0
      1314 MEMB     108      CHL1     C22      CTL2    -0.180000       12.0110           0
      1315 MEMB     108      CHL1     H22A     HAL2     0.900000E-01   1.00800           0
      1316 MEMB     108      CHL1     H22B     HAL2     0.900000E-01   1.00800           0
      1317 MEMB     108      CHL1     C23      CTL2    -0.180000       12.0110           0
      1318 MEMB     108      CHL1     H23A     HAL2     0.900000E-01   1.00800           0
      1319 MEMB     108      CHL1     H23B     HAL2     0.900000E-01   1.00800           0
      1320 MEMB     108      CHL1     C24      CTL2    -0.180000       12.0110           0
      1321 MEMB     108      CHL1     H24A     HAL2     0.900000E-01   1.00800           0
      1322 MEMB     108      CHL1     H24B     HAL2     0.900000E-01   1.00800           0
      1323 MEMB     108      CHL1     C25      CTL1    -0.900000E-01   12.0110           0
      1324 MEMB     108      CHL1     H25      HAL1     0.900000E-01   1.00800           0
      1325 MEMB     108      CHL1     C26      CTL3    -0.270000       12.0110           0
      1326 MEMB     108      CHL1     H26A     HAL3     0.900000E-01   1.00800           0
      1327 MEMB     108      CHL1     H26B     HAL3     0.900000E-01   1.00800           0
      1328 MEMB     108      CHL1     H26C     HAL3     0.900000E-01   1.00800           0
      1329 MEMB     108      CHL1     C27      CTL3    -0.270000       12.0110           0
      1330 MEMB     108      CHL1     H27A     HAL3     0.900000E-01   1.00800           0
      1331 MEMB     108      CHL1     H27B     HAL3     0.900000E-01   1.00800           0
      1332 MEMB     108      CHL1     H27C     HAL3     0.900000E-01   1.00800           0
      1333 MEMB     119      CHL1     C3       CRL1     0.140000       12.0110           0
      1334 MEMB     119      CHL1     H3       HGA1     0.900000E-01   1.00800           0
      1335 MEMB     119      CHL1     O3       OHL     -0.660000       15.9994           0
      1336 MEMB     119      CHL1     H3'      HOL      0.430000       1.00800           0
      1337 MEMB     119      CHL1     C4       CRL2    -0.180000       12.0110           0
      1338 MEMB     119      CHL1     H4A      HGA2     0.900000E-01   1.00800           0
      1339 MEMB     119      CHL1     H4B      HGA2     0.900000E-01   1.00800           0
      1340 MEMB     119      CHL1     C5       CEL1     0.000000       12.0110           0
      1341 MEMB     119      CHL1     C6       CEL1    -0.150000       12.0110           0
      1342 MEMB     119      CHL1     H6       HEL1     0.150000       1.00800           0
      1343 MEMB     119      CHL1     C7       CRL2    -0.180000       12.0110           0
      1344 MEMB     119      CHL1     H7A      HGA2     0.900000E-01   1.00800           0
      1345 MEMB     119      CHL1     H7B      HGA2     0.900000E-01   1.00800           0
      1346 MEMB     119      CHL1     C8       CRL1    -0.900000E-01   12.0110           0
      1347 MEMB     119      CHL1     H8       HGA1     0.900000E-01   1.00800           0
      1348 MEMB     119      CHL1     C14      CRL1    -0.900000E-01   12.0110           0
      1349 MEMB     119      CHL1     H14      HGA1     0.900000E-01   1.00800           0
      1350 MEMB     119      CHL1     C15      CRL2    -0.180000       12.0110           0
      1351 MEMB     119      CHL1     H15A     HGA2     0.900000E-01   1.00800           0
      1352 MEMB     119      CHL1     H15B     HGA2     0.900000E-01   1.00800           0
      1353 MEMB     119      CHL1     C16      CRL2    -0.180000       12.0110           0
      1354 MEMB     119      CHL1     H16A     HGA2     0.900000E-01   1.00800           0
      1355 MEMB     119      CHL1     H16B     HGA2     0.900000E-01   1.00800           0
      1356 MEMB     119      CHL1     C17      CRL1    -0.900000E-01   12.0110           0
      1357 MEMB     119      CHL1     H17      HGA1     0.900000E-01   1.00800           0
      1358 MEMB     119      CHL1     C13      CRL1     0.000000       12.0110           0
      1359 MEMB     119      CHL1     C18      CTL3    -0.270000       12.0110           0
      1360 MEMB     119      CHL1     H18A     HAL3     0.900000E-01   1.00800           0
      1361 MEMB     119      CHL1     H18B     HAL3     0.900000E-01   1.00800           0
      1362 MEMB     119      CHL1     H18C     HAL3     0.900000E-01   1.00800           0
      1363 MEMB     119      CHL1     C12      CRL2    -0.180000       12.0110           0
      1364 MEMB     119      CHL1     H12A     HGA2     0.900000E-01   1.00800           0
      1365 MEMB     119      CHL1     H12B     HGA2     0.900000E-01   1.00800           0
      1366 MEMB     119      CHL1     C11      CRL2    -0.180000       12.0110           0
      1367 MEMB     119      CHL1     H11A     HGA2     0.900000E-01   1.00800           0
      1368 MEMB     119      CHL1     H11B     HGA2     0.900000E-01   1.00800           0
      1369 MEMB     119      CHL1     C9       CRL1    -0.900000E-01   12.0110           0
      1370 MEMB     119      CHL1     H9       HGA1     0.900000E-01   1.00800           0
      1371 MEMB     119      CHL1     C10      CRL1     0.000000       12.0110           0
      1372 MEMB     119      CHL1     C19      CTL3    -0.270000       12.0110           0
      1373 MEMB     119      CHL1     H19A     HAL3     0.900000E-01   1.00800           0
      1374 MEMB     119      CHL1     H19B     HAL3     0.900000E-01   1.00800           0
      1375 MEMB     119      CHL1     H19C     HAL3     0.900000E-01   1.00800           0
      1376 MEMB     119      CHL1     C1       CRL2    -0.180000       12.0110           0
      1377 MEMB     119      CHL1     H1A      HGA2     0.900000E-01   1.00800           0
      1378 MEMB     119      CHL1     H1B      HGA2     0.900000E-01   1.00800           0
      1379 MEMB     119      CHL1     C2       CRL2    -0.180000       12.0110           0
      1380 MEMB     119      CHL1     H2A      HGA2     0.900000E-01   1.00800           0
      1381 MEMB     119      CHL1     H2B      HGA2     0.900000E-01   1.00800           0
      1382 MEMB     119      CHL1     C20      CTL1    -0.900000E-01   12.0110           0
      1383 MEMB     119      CHL1     H20      HAL1     0.900000E-01   1.00800           0
      1384 MEMB     119      CHL1     C21      CTL3    -0.270000       12.0110           0
      1385 MEMB     119      CHL1     H21A     HAL3     0.900000E-01   1.00800           0
      1386 MEMB     119      CHL1     H21B     HAL3     0.900000E-01   1.00800           0
      1387 MEMB     119      CHL1     H21C     HAL3     0.900000E-01   1.00800           0
      1388 MEMB     119      CHL1     C22      CTL2    -0.180000       12.0110           0
      1389 MEMB     119      CHL1     H22A     HAL2     0.900000E-01   1.00800           0
      1390 MEMB     119      CHL1     H22B     HAL2     0.900000E-01   1.00800           0
      1391 MEMB     119      CHL1     C23      CTL2    -0.180000       12.0110           0
      1392 MEMB     119      CHL1     H23A     HAL2     0.900000E-01   1.00800           0
      1393 MEMB     119      CHL1     H23B     HAL2     0.900000E-01   1.00800           0
      1394 MEMB     119      CHL1     C24      CTL2    -0.180000       12.0110           0
      1395 MEMB     119      CHL1     H24A     HAL2     0.900000E-01   1.00800           0
      1396 MEMB     119      CHL1     H24B     HAL2     0.900000E-01   1.00800           0
      1397 MEMB     119      CHL1     C25      CTL1    -0.900000E-01   12.0110           0
      1398 MEMB     119      CHL1     H25      HAL1     0.900000E-01   1.00800           0
      1399 MEMB     119      CHL1     C26      CTL3    -0.270000       12.0110           0
      1400 MEMB     119      CHL1     H26A     HAL3     0.900000E-01   1.00800           0
      1401 MEMB     119      CHL1     H26B     HAL3     0.900000E-01   1.00800           0
      1402 MEMB     119      CHL1     H26C     HAL3     0.900000E-01   1.00800           0
      1403 MEMB     119      CHL1     C27      CTL3    -0.270000       12.0110           0
      1404 MEMB     119      CHL1     H27A     HAL3     0.900000E-01   1.00800           0
      1405 MEMB     119      CHL1     H27B     HAL3     0.900000E-01   1.00800           0
      1406 MEMB     119      CHL1     H27C     HAL3     0.900000E-01   1.00800           0
      1407 MEMB     129      CHL1     C3       CRL1     0.140000       12.0110           0
      1408 MEMB     129      CHL1     H3       HGA1     0.900000E-01   1.00800           0
      1409 MEMB     129      CHL1     O3       OHL     -0.660000       15.9994           0
      1410 MEMB     129      CHL1     H3'      HOL      0.430000       1.00800           0
      1411 MEMB     129      CHL1     C4       CRL2    -0.180000       12.0110           0
      1412 MEMB     129      CHL1     H4A      HGA2     0.900000E-01   1.00800           0
      1413 MEMB     129      CHL1     H4B      HGA2     0.900000E-01   1.00800           0
      1414 MEMB     129      CHL1     C5       CEL1     0.000000       12.0110           0
      1415 MEMB     129      CHL1     C6       CEL1    -0.150000       12.0110           0
      1416 MEMB     129      CHL1     H6       HEL1     0.150000       1.00800           0
      1417 MEMB     129      CHL1     C7       CRL2    -0.180000       12.0110           0
      1418 MEMB     129      CHL1     H7A      HGA2     0.900000E-01   1.00800           0
      1419 MEMB     129      CHL1     H7B      HGA2     0.900000E-01   1.00800           0
      1420 MEMB     129      CHL1     C8       CRL1    -0.900000E-01   12.0110           0
      1421 MEMB     129      CHL1     H8       HGA1     0.900000E-01   1.00800           0
      1422 MEMB     129      CHL1     C14      CRL1    -0.900000E-01   12.0110           0
      1423 MEMB     129      CHL1     H14      HGA1     0.900000E-01   1.00800           0
      1424 MEMB     129      CHL1     C15      CRL2    -0.180000       12.0110           0
      1425 MEMB     129      CHL1     H15A     HGA2     0.900000E-01   1.00800           0
      1426 MEMB     129      CHL1     H15B     HGA2     0.900000E-01   1.00800           0
      1427 MEMB     129      CHL1     C16      CRL2    -0.180000       12.0110           0
      1428 MEMB     129      CHL1     H16A     HGA2     0.900000E-01   1.00800           0
      1429 MEMB     129      CHL1     H16B     HGA2     0.900000E-01   1.00800           0
      1430 MEMB     129      CHL1     C17      CRL1    -0.900000E-01   12.0110           0
      1431 MEMB     129      CHL1     H17      HGA1     0.900000E-01   1.00800           0
      1432 MEMB     129      CHL1     C13      CRL1     0.000000       12.0110           0
      1433 MEMB     129      CHL1     C18      CTL3    -0.270000       12.0110           0
      1434 MEMB     129      CHL1     H18A     HAL3     0.900000E-01   1.00800           0
      1435 MEMB     129      CHL1     H18B     HAL3     0.900000E-01   1.00800           0
      1436 MEMB     129      CHL1     H18C     HAL3     0.900000E-01   1.00800           0
      1437 MEMB     129      CHL1     C12      CRL2    -0.180000       12.0110           0
      1438 MEMB     129      CHL1     H12A     HGA2     0.900000E-01   1.00800           0
      1439 MEMB     129      CHL1     H12B     HGA2     0.900000E-01   1.00800           0
      1440 MEMB     129      CHL1     C11      CRL2    -0.180000       12.0110           0
      1441 MEMB     129      CHL1     H11A     HGA2     0.900000E-01   1.00800           0
      1442 MEMB     129      CHL1     H11B     HGA2     0.900000E-01   1.00800           0
      1443 MEMB     129      CHL1     C9       CRL1    -0.900000E-01   12.0110           0
      1444 MEMB     129      CHL1     H9       HGA1     0.900000E-01   1.00800           0
      1445 MEMB     129      CHL1     C10      CRL1     0.000000       12.0110           0
      1446 MEMB     129      CHL1     C19      CTL3    -0.270000       12.0110           0
      1447 MEMB     129      CHL1     H19A     HAL3     0.900000E-01   1.00800           0
      1448 MEMB     129      CHL1     H19B     HAL3     0.900000E-01   1.00800           0
      1449 MEMB     129      CHL1     H19C     HAL3     0.900000E-01   1.00800           0
      1450 MEMB     129      CHL1     C1       CRL2    -0.180000       12.0110           0
      1451 MEMB     129      CHL1     H1A      HGA2     0.900000E-01   1.00800           0
      1452 MEMB     129      CHL1     H1B      HGA2     0.900000E-01   1.00800           0
      1453 MEMB     129      CHL1     C2       CRL2    -0.180000       12.0110           0
      1454 MEMB     129      CHL1     H2A      HGA2     0.900000E-01   1.00800           0
      1455 MEMB     129      CHL1     H2B      HGA2     0.900000E-01   1.00800           0
      1456 MEMB     129      CHL1     C20      CTL1    -0.900000E-01   12.0110           0
      1457 MEMB     129      CHL1     H20      HAL1     0.900000E-01   1.00800           0
      1458 MEMB     129      CHL1     C21      CTL3    -0.270000       12.0110           0
      1459 MEMB     129      CHL1     H21A     HAL3     0.900000E-01   1.00800           0
      1460 MEMB     129      CHL1     H21B     HAL3     0.900000E-01   1.00800           0
      1461 MEMB     129      CHL1     H21C     HAL3     0.900000E-01   1.00800           0
      1462 MEMB     129      CHL1     C22      CTL2    -0.180000       12.0110           0
      1463 MEMB     129      CHL1     H22A     HAL2     0.900000E-01   1.00800           0
      1464 MEMB     129      CHL1     H22B     HAL2     0.900000E-01   1.00800           0
      1465 MEMB     129      CHL1     C23      CTL2    -0.180000       12.0110           0
      1466 MEMB     129      CHL1     H23A     HAL2     0.900000E-01   1.00800           0
      1467 MEMB     129      CHL1     H23B     HAL2     0.900000E-01   1.00800           0
      1468 MEMB     129      CHL1     C24      CTL2    -0.180000       12.0110           0
      1469 MEMB     129      CHL1     H24A     HAL2     0.900000E-01   1.00800           0
      1470 MEMB     129      CHL1     H24B     HAL2     0.900000E-01   1.00800           0
      1471 MEMB     129      CHL1     C25      CTL1    -0.900000E-01   12.0110           0
      1472 MEMB     129      CHL1     H25      HAL1     0.900000E-01   1.00800           0
      1473 MEMB     129      CHL1     C26      CTL3    -0.270000       12.0110           0
      1474 MEMB     129      CHL1     H26A     HAL3     0.900000E-01   1.00800           0
      1475 MEMB     129      CHL1     H26B     HAL3     0.900000E-01   1.00800           0
      1476 MEMB     129      CHL1     H26C     HAL3     0.900000E-01   1.00800           0
      1477 MEMB     129      CHL1     C27      CTL3    -0.270000       12.0110           0
      1478 MEMB     129      CHL1     H27A     HAL3     0.900000E-01   1.00800           0
      1479 MEMB     129      CHL1     H27B     HAL3     0.900000E-01   1.00800           0
      1480 MEMB     129      CHL1     H27C     HAL3     0.900000E-01   1.00800           0
      1481 MEMB     135      CHL1     C3       CRL1     0.140000       12.0110           0
      1482 MEMB     135      CHL1     H3       HGA1     0.900000E-01   1.00800           0
      1483 MEMB     135      CHL1     O3       OHL     -0.660000       15.9994           0
      1484 MEMB     135      CHL1     H3'      HOL      0.430000       1.00800           0
      1485 MEMB     135      CHL1     C4       CRL2    -0.180000       12.0110           0
      1486 MEMB     135      CHL1     H4A      HGA2     0.900000E-01   1.00800           0
      1487 MEMB     135      CHL1     H4B      HGA2     0.900000E-01   1.00800           0
      1488 MEMB     135      CHL1     C5       CEL1     0.000000       12.0110           0
      1489 MEMB     135      CHL1     C6       CEL1    -0.150000       12.0110           0
      1490 MEMB     135      CHL1     H6       HEL1     0.150000       1.00800           0
      1491 MEMB     135      CHL1     C7       CRL2    -0.180000       12.0110           0
      1492 MEMB     135      CHL1     H7A      HGA2     0.900000E-01   1.00800           0
      1493 MEMB     135      CHL1     H7B      HGA2     0.900000E-01   1.00800           0
      1494 MEMB     135      CHL1     C8       CRL1    -0.900000E-01   12.0110           0
      1495 MEMB     135      CHL1     H8       HGA1     0.900000E-01   1.00800           0
      1496 MEMB     135      CHL1     C14      CRL1    -0.900000E-01   12.0110           0
      1497 MEMB     135      CHL1     H14      HGA1     0.900000E-01   1.00800           0
      1498 MEMB     135      CHL1     C15      CRL2    -0.180000       12.0110           0
      1499 MEMB     135      CHL1     H15A     HGA2     0.900000E-01   1.00800           0
      1500 MEMB     135      CHL1     H15B     HGA2     0.900000E-01   1.00800           0
      1501 MEMB     135      CHL1     C16      CRL2    -0.180000       12.0110           0
      1502 MEMB     135      CHL1     H16A     HGA2     0.900000E-01   1.00800           0
      1503 MEMB     135      CHL1     H16B     HGA2     0.900000E-01   1.00800           0
      1504 MEMB     135      CHL1     C17      CRL1    -0.900000E-01   12.0110           0
      1505 MEMB     135      CHL1     H17      HGA1     0.900000E-01   1.00800           0
      1506 MEMB     135      CHL1     C13      CRL1     0.000000       12.0110           0
      1507 MEMB     135      CHL1     C18      CTL3    -0.270000       12.0110           0
      1508 MEMB     135      CHL1     H18A     HAL3     0.900000E-01   1.00800           0
      1509 MEMB     135      CHL1     H18B     HAL3     0.900000E-01   1.00800           0
      1510 MEMB     135      CHL1     H18C     HAL3     0.900000E-01   1.00800           0
      1511 MEMB     135      CHL1     C12      CRL2    -0.180000       12.0110           0
      1512 MEMB     135      CHL1     H12A     HGA2     0.900000E-01   1.00800           0
      1513 MEMB     135      CHL1     H12B     HGA2     0.900000E-01   1.00800           0
      1514 MEMB     135      CHL1     C11      CRL2    -0.180000       12.0110           0
      1515 MEMB     135      CHL1     H11A     HGA2     0.900000E-01   1.00800           0
      1516 MEMB     135      CHL1     H11B     HGA2     0.900000E-01   1.00800           0
      1517 MEMB     135      CHL1     C9       CRL1    -0.900000E-01   12.0110           0
      1518 MEMB     135      CHL1     H9       HGA1     0.900000E-01   1.00800           0
      1519 MEMB     135      CHL1     C10      CRL1     0.000000       12.0110           0
      1520 MEMB     135      CHL1     C19      CTL3    -0.270000       12.0110           0
      1521 MEMB     135      CHL1     H19A     HAL3     0.900000E-01   1.00800           0
      1522 MEMB     135      CHL1     H19B     HAL3     0.900000E-01   1.00800           0
      1523 MEMB     135      CHL1     H19C     HAL3     0.900000E-01   1.00800           0
      1524 MEMB     135      CHL1     C1       CRL2    -0.180000       12.0110           0
      1525 MEMB     135      CHL1     H1A      HGA2     0.900000E-01   1.00800           0
      1526 MEMB     135      CHL1     H1B      HGA2     0.900000E-01   1.00800           0
      1527 MEMB     135      CHL1     C2       CRL2    -0.180000       12.0110           0
      1528 MEMB     135      CHL1     H2A      HGA2     0.900000E-01   1.00800           0
      1529 MEMB     135      CHL1     H2B      HGA2     0.900000E-01   1.00800           0
      1530 MEMB     135      CHL1     C20      CTL1    -0.900000E-01   12.0110           0
      1531 MEMB     135      CHL1     H20      HAL1     0.900000E-01   1.00800           0
      1532 MEMB     135      CHL1     C21      CTL3    -0.270000       12.0110           0
      1533 MEMB     135      CHL1     H21A     HAL3     0.900000E-01   1.00800           0
      1534 MEMB     135      CHL1     H21B     HAL3     0.900000E-01   1.00800           0
      1535 MEMB     135      CHL1     H21C     HAL3     0.900000E-01   1.00800           0
      1536 MEMB     135      CHL1     C22      CTL2    -0.180000       12.0110           0
      1537 MEMB     135      CHL1     H22A     HAL2     0.900000E-01   1.00800           0
      1538 MEMB     135      CHL1     H22B     HAL2     0.900000E-01   1.00800           0
      1539 MEMB     135      CHL1     C23      CTL2    -0.180000       12.0110           0
      1540 MEMB     135      CHL1     H23A     HAL2     0.900000E-01   1.00800           0
      1541 MEMB     135      CHL1     H23B     HAL2     0.900000E-01   1.00800           0
      1542 MEMB     135      CHL1     C24      CTL2    -0.180000       12.0110           0
      1543 MEMB     135      CHL1     H24A     HAL2     0.900000E-01   1.00800           0
      1544 MEMB     135      CHL1     H24B     HAL2     0.900000E-01   1.00800           0
      1545 MEMB     135      CHL1     C25      CTL1    -0.900000E-01   12.0110           0
      1546 MEMB     135      CHL1     H25      HAL1     0.900000E-01   1.00800           0
      1547 MEMB     135      CHL1     C26      CTL3    -0.270000       12.0110           0
      1548 MEMB     135      CHL1     H26A     HAL3     0.900000E-01   1.00800           0
      1549 MEMB     135      CHL1     H26B     HAL3     0.900000E-01   1.00800           0
      1550 MEMB     135      CHL1     H26C     HAL3     0.900000E-01   1.00800           0
      1551 MEMB     135      CHL1     C27      CTL3    -0.270000       12.0110           0
      1552 MEMB     135      CHL1     H27A     HAL3     0.900000E-01   1.00800           0
      1553 MEMB     135      CHL1     H27B     HAL3     0.900000E-01   1.00800           0
      1554 MEMB     135      CHL1     H27C     HAL3     0.900000E-01   1.00800           0
      1555 MEMB     139      CHL1     C3       CRL1     0.140000       12.0110           0
      1556 MEMB     139      CHL1     H3       HGA1     0.900000E-01   1.00800           0
      1557 MEMB     139      CHL1     O3       OHL     -0.660000       15.9994           0
      1558 MEMB     139      CHL1     H3'      HOL      0.430000       1.00800           0
      1559 MEMB     139      CHL1     C4       CRL2    -0.180000       12.0110           0
      1560 MEMB     139      CHL1     H4A      HGA2     0.900000E-01   1.00800           0
      1561 MEMB     139      CHL1     H4B      HGA2     0.900000E-01   1.00800           0
      1562 MEMB     139      CHL1     C5       CEL1     0.000000       12.0110           0
      1563 MEMB     139      CHL1     C6       CEL1    -0.150000       12.0110           0
      1564 MEMB     139      CHL1     H6       HEL1     0.150000       1.00800           0
      1565 MEMB     139      CHL1     C7       CRL2    -0.180000       12.0110           0
      1566 MEMB     139      CHL1     H7A      HGA2     0.900000E-01   1.00800           0
      1567 MEMB     139      CHL1     H7B      HGA2     0.900000E-01   1.00800           0
      1568 MEMB     139      CHL1     C8       CRL1    -0.900000E-01   12.0110           0
      1569 MEMB     139      CHL1     H8       HGA1     0.900000E-01   1.00800           0
      1570 MEMB     139      CHL1     C14      CRL1    -0.900000E-01   12.0110           0
      1571 MEMB     139      CHL1     H14      HGA1     0.900000E-01   1.00800           0
      1572 MEMB     139      CHL1     C15      CRL2    -0.180000       12.0110           0
      1573 MEMB     139      CHL1     H15A     HGA2     0.900000E-01   1.00800           0
      1574 MEMB     139      CHL1     H15B     HGA2     0.900000E-01   1.00800           0
      1575 MEMB     139      CHL1     C16      CRL2    -0.180000       12.0110           0
      1576 MEMB     139      CHL1     H16A     HGA2     0.900000E-01   1.00800           0
      1577 MEMB     139      CHL1     H16B     HGA2     0.900000E-01   1.00800           0
      1578 MEMB     139      CHL1     C17      CRL1    -0.900000E-01   12.0110           0
      1579 MEMB     139      CHL1     H17      HGA1     0.900000E-01   1.00800           0
      1580 MEMB     139      CHL1     C13      CRL1     0.000000       12.0110           0
      1581 MEMB     139      CHL1     C18      CTL3    -0.270000       12.0110           0
      1582 MEMB     139      CHL1     H18A     HAL3     0.900000E-01   1.00800           0
      1583 MEMB     139      CHL1     H18B     HAL3     0.900000E-01   1.00800           0
      1584 MEMB     139      CHL1     H18C     HAL3     0.900000E-01   1.00800           0
      1585 MEMB     139      CHL1     C12      CRL2    -0.180000       12.0110           0
      1586 MEMB     139      CHL1     H12A     HGA2     0.900000E-01   1.00800           0
      1587 MEMB     139      CHL1     H12B     HGA2     0.900000E-01   1.00800           0
      1588 MEMB     139      CHL1     C11      CRL2    -0.180000       12.0110           0
      1589 MEMB     139      CHL1     H11A     HGA2     0.900000E-01   1.00800           0
      1590 MEMB     139      CHL1     H11B     HGA2     0.900000E-01   1.00800           0
      1591 MEMB     139      CHL1     C9       CRL1    -0.900000E-01   12.0110           0
      1592 MEMB     139      CHL1     H9       HGA1     0.900000E-01   1.00800           0
      1593 MEMB     139      CHL1     C10      CRL1     0.000000       12.0110           0
      1594 MEMB     139      CHL1     C19      CTL3    -0.270000       12.0110           0
      1595 MEMB     139      CHL1     H19A     HAL3     0.900000E-01   1.00800           0
      1596 MEMB     139      CHL1     H19B     HAL3     0.900000E-01   1.00800           0
      1597 MEMB     139      CHL1     H19C     HAL3     0.900000E-01   1.00800           0
      1598 MEMB     139      CHL1     C1       CRL2    -0.180000       12.0110           0
      1599 MEMB     139      CHL1     H1A      HGA2     0.900000E-01   1.00800           0
      1600 MEMB     139      CHL1     H1B      HGA2     0.900000E-01   1.00800           0
      1601 MEMB     139      CHL1     C2       CRL2    -0.180000       12.0110           0
      1602 MEMB     139      CHL1     H2A      HGA2     0.900000E-01   1.00800           0
      1603 MEMB     139      CHL1     H2B      HGA2     0.900000E-01   1.00800           0
      1604 MEMB     139      CHL1     C20      CTL1    -0.900000E-01   12.0110           0
      1605 MEMB     139      CHL1     H20      HAL1     0.900000E-01   1.00800           0
      1606 MEMB     139      CHL1     C21      CTL3    -0.270000       12.0110           0
      1607 MEMB     139      CHL1     H21A     HAL3     0.900000E-01   1.00800           0
      1608 MEMB     139      CHL1     H21B     HAL3     0.900000E-01   1.00800           0
      1609 MEMB     139      CHL1     H21C     HAL3     0.900000E-01   1.00800           0
      1610 MEMB     139      CHL1     C22      CTL2    -0.180000       12.0110           0
      1611 MEMB     139      CHL1     H22A     HAL2     0.900000E-01   1.00800           0
      1612 MEMB     139      CHL1     H22B     HAL2     0.900000E-01   1.00800           0
      1613 MEMB     139      CHL1     C23      CTL2    -0.180000       12.0110           0
      1614 MEMB     139      CHL1     H23A     HAL2     0.900000E-01   1.00800           0
      1615 MEMB     139      CHL1     H23B     HAL2     0.900000E-01   1.00800           0
      1616 MEMB     139      CHL1     C24      CTL2    -0.180000       12.0110           0
      1617 MEMB     139      CHL1     H24A     HAL2     0.900000E-01   1.00800           0
      1618 MEMB     139      CHL1     H24B     HAL2     0.900000E-01   1.00800           0
      1619 MEMB     139      CHL1     C25      CTL1    -0.900000E-01   12.0110           0
      1620 MEMB     139      CHL1     H25      HAL1     0.900000E-01   1.00800           0
      1621 MEMB     139      CHL1     C26      CTL3    -0.270000       12.0110           0
      1622 MEMB     139      CHL1     H26A     HAL3     0.900000E-01   1.00800           0
      1623 MEMB     139      CHL1     H26B     HAL3     0.900000E-01   1.00800           0
      1624 MEMB     139      CHL1     H26C     HAL3     0.900000E-01   1.00800           0
      1625 MEMB     139      CHL1     C27      CTL3    -0.270000       12.0110           0
      1626 MEMB     139      CHL1     H27A     HAL3     0.900000E-01   1.00800           0
      1627 MEMB     139      CHL1     H27B     HAL3     0.900000E-01   1.00800           0
      1628 MEMB     139      CHL1     H27C     HAL3     0.900000E-01   1.00800           0
      1629 MEMB     142      CHL1     C3       CRL1     0.140000       12.0110           0
      1630 MEMB     142      CHL1     H3       HGA1     0.900000E-01   1.00800           0
      1631 MEMB     142      CHL1     O3       OHL     -0.660000       15.9994           0
      1632 MEMB     142      CHL1     H3'      HOL      0.430000       1.00800           0
      1633 MEMB     142      CHL1     C4       CRL2    -0.180000       12.0110           0
      1634 MEMB     142      CHL1     H4A      HGA2     0.900000E-01   1.00800           0
      1635 MEMB     142      CHL1     H4B      HGA2     0.900000E-01   1.00800           0
      1636 MEMB     142      CHL1     C5       CEL1     0.000000       12.0110           0
      1637 MEMB     142      CHL1     C6       CEL1    -0.150000       12.0110           0
      1638 MEMB     142      CHL1     H6       HEL1     0.150000       1.00800           0
      1639 MEMB     142      CHL1     C7       CRL2    -0.180000       12.0110           0
      1640 MEMB     142      CHL1     H7A      HGA2     0.900000E-01   1.00800           0
      1641 MEMB     142      CHL1     H7B      HGA2     0.900000E-01   1.00800           0
      1642 MEMB     142      CHL1     C8       CRL1    -0.900000E-01   12.0110           0
      1643 MEMB     142      CHL1     H8       HGA1     0.900000E-01   1.00800           0
      1644 MEMB     142      CHL1     C14      CRL1    -0.900000E-01   12.0110           0
      1645 MEMB     142      CHL1     H14      HGA1     0.900000E-01   1.00800           0
      1646 MEMB     142      CHL1     C15      CRL2    -0.180000       12.0110           0
      1647 MEMB     142      CHL1     H15A     HGA2     0.900000E-01   1.00800           0
      1648 MEMB     142      CHL1     H15B     HGA2     0.900000E-01   1.00800           0
      1649 MEMB     142      CHL1     C16      CRL2    -0.180000       12.0110           0
      1650 MEMB     142      CHL1     H16A     HGA2     0.900000E-01   1.00800           0
      1651 MEMB     142      CHL1     H16B     HGA2     0.900000E-01   1.00800           0
      1652 MEMB     142      CHL1     C17      CRL1    -0.900000E-01   12.0110           0
      1653 MEMB     142      CHL1     H17      HGA1     0.900000E-01   1.00800           0
      1654 MEMB     142      CHL1     C13      CRL1     0.000000       12.0110           0
      1655 MEMB     142      CHL1     C18      CTL3    -0.270000       12.0110           0
      1656 MEMB     142      CHL1     H18A     HAL3     0.900000E-01   1.00800           0
      1657 MEMB     142      CHL1     H18B     HAL3     0.900000E-01   1.00800           0
      1658 MEMB     142      CHL1     H18C     HAL3     0.900000E-01   1.00800           0
      1659 MEMB     142      CHL1     C12      CRL2    -0.180000       12.0110           0
      1660 MEMB     142      CHL1     H12A     HGA2     0.900000E-01   1.00800           0
      1661 MEMB     142      CHL1     H12B     HGA2     0.900000E-01   1.00800           0
      1662 MEMB     142      CHL1     C11      CRL2    -0.180000       12.0110           0
      1663 MEMB     142      CHL1     H11A     HGA2     0.900000E-01   1.00800           0
      1664 MEMB     142      CHL1     H11B     HGA2     0.900000E-01   1.00800           0
      1665 MEMB     142      CHL1     C9       CRL1    -0.900000E-01   12.0110           0
      1666 MEMB     142      CHL1     H9       HGA1     0.900000E-01   1.00800           0
      1667 MEMB     142      CHL1     C10      CRL1     0.000000       12.0110           0
      1668 MEMB     142      CHL1     C19      CTL3    -0.270000       12.0110           0
      1669 MEMB     142      CHL1     H19A     HAL3     0.900000E-01   1.00800           0
      1670 MEMB     142      CHL1     H19B     HAL3     0.900000E-01   1.00800           0
      1671 MEMB     142      CHL1     H19C     HAL3     0.900000E-01   1.00800           0
      1672 MEMB     142      CHL1     C1       CRL2    -0.180000       12.0110           0
      1673 MEMB     142      CHL1     H1A      HGA2     0.900000E-01   1.00800           0
      1674 MEMB     142      CHL1     H1B      HGA2     0.900000E-01   1.00800           0
      1675 MEMB     142      CHL1     C2       CRL2    -0.180000       12.0110           0
      1676 MEMB     142      CHL1     H2A      HGA2     0.900000E-01   1.00800           0
      1677 MEMB     142      CHL1     H2B      HGA2     0.900000E-01   1.00800           0
      1678 MEMB     142      CHL1     C20      CTL1    -0.900000E-01   12.0110           0
      1679 MEMB     142      CHL1     H20      HAL1     0.900000E-01   1.00800           0
      1680 MEMB     142      CHL1     C21      CTL3    -0.270000       12.0110           0
      1681 MEMB     142      CHL1     H21A     HAL3     0.900000E-01   1.00800           0
      1682 MEMB     142      CHL1     H21B     HAL3     0.900000E-01   1.00800           0
      1683 MEMB     142      CHL1     H21C     HAL3     0.900000E-01   1.00800           0
      1684 MEMB     142      CHL1     C22      CTL2    -0.180000       12.0110           0
      1685 MEMB     142      CHL1     H22A     HAL2     0.900000E-01   1.00800           0
      1686 MEMB     142      CHL1     H22B     HAL2     0.900000E-01   1.00800           0
      1687 MEMB     142      CHL1     C23      CTL2    -0.180000       12.0110           0
      1688 MEMB     142      CHL1     H23A     HAL2     0.900000E-01   1.00800           0
      1689 MEMB     142      CHL1     H23B     HAL2     0.900000E-01   1.00800           0
      1690 MEMB     142      CHL1     C24      CTL2    -0.180000       12.0110           0
      1691 MEMB     142      CHL1     H24A     HAL2     0.900000E-01   1.00800           0
      1692 MEMB     142      CHL1     H24B     HAL2     0.900000E-01   1.00800           0
      1693 MEMB     142      CHL1     C25      CTL1    -0.900000E-01   12.0110           0
      1694 MEMB     142      CHL1     H25      HAL1     0.900000E-01   1.00800           0
      1695 MEMB     142      CHL1     C26      CTL3    -0.270000       12.0110           0
      1696 MEMB     142      CHL1     H26A     HAL3     0.900000E-01   1.00800           0
      1697 MEMB     142      CHL1     H26B     HAL3     0.900000E-01   1.00800           0
      1698 MEMB     142      CHL1     H26C     HAL3     0.900000E-01   1.00800           0
      1699 MEMB     142      CHL1     C27      CTL3    -0.270000       12.0110           0
      1700 MEMB     142      CHL1     H27A     HAL3     0.900000E-01   1.00800           0
      1701 MEMB     142      CHL1     H27B     HAL3     0.900000E-01   1.00800           0
      1702 MEMB     142      CHL1     H27C     HAL3     0.900000E-01   1.00800           0
      1703 MEMB     148      CHL1     C3       CRL1     0.140000       12.0110           0
      1704 MEMB     148      CHL1     H3       HGA1     0.900000E-01   1.00800           0
      1705 MEMB     148      CHL1     O3       OHL     -0.660000       15.9994           0
      1706 MEMB     148      CHL1     H3'      HOL      0.430000       1.00800           0
      1707 MEMB     148      CHL1     C4       CRL2    -0.180000       12.0110           0
      1708 MEMB     148      CHL1     H4A      HGA2     0.900000E-01   1.00800           0
      1709 MEMB     148      CHL1     H4B      HGA2     0.900000E-01   1.00800           0
      1710 MEMB     148      CHL1     C5       CEL1     0.000000       12.0110           0
      1711 MEMB     148      CHL1     C6       CEL1    -0.150000       12.0110           0
      1712 MEMB     148      CHL1     H6       HEL1     0.150000       1.00800           0
      1713 MEMB     148      CHL1     C7       CRL2    -0.180000       12.0110           0
      1714 MEMB     148      CHL1     H7A      HGA2     0.900000E-01   1.00800           0
      1715 MEMB     148      CHL1     H7B      HGA2     0.900000E-01   1.00800           0
      1716 MEMB     148      CHL1     C8       CRL1    -0.900000E-01   12.0110           0
      1717 MEMB     148      CHL1     H8       HGA1     0.900000E-01   1.00800           0
      1718 MEMB     148      CHL1     C14      CRL1    -0.900000E-01   12.0110           0
      1719 MEMB     148      CHL1     H14      HGA1     0.900000E-01   1.00800           0
      1720 MEMB     148      CHL1     C15      CRL2    -0.180000       12.0110           0
      1721 MEMB     148      CHL1     H15A     HGA2     0.900000E-01   1.00800           0
      1722 MEMB     148      CHL1     H15B     HGA2     0.900000E-01   1.00800           0
      1723 MEMB     148      CHL1     C16      CRL2    -0.180000       12.0110           0
      1724 MEMB     148      CHL1     H16A     HGA2     0.900000E-01   1.00800           0
      1725 MEMB     148      CHL1     H16B     HGA2     0.900000E-01   1.00800           0
      1726 MEMB     148      CHL1     C17      CRL1    -0.900000E-01   12.0110           0
      1727 MEMB     148      CHL1     H17      HGA1     0.900000E-01   1.00800           0
      1728 MEMB     148      CHL1     C13      CRL1     0.000000       12.0110           0
      1729 MEMB     148      CHL1     C18      CTL3    -0.270000       12.0110           0
      1730 MEMB     148      CHL1     H18A     HAL3     0.900000E-01   1.00800           0
      1731 MEMB     148      CHL1     H18B     HAL3     0.900000E-01   1.00800           0
      1732 MEMB     148      CHL1     H18C     HAL3     0.900000E-01   1.00800           0
      1733 MEMB     148      CHL1     C12      CRL2    -0.180000       12.0110           0
      1734 MEMB     148      CHL1     H12A     HGA2     0.900000E-01   1.00800           0
      1735 MEMB     148      CHL1     H12B     HGA2     0.900000E-01   1.00800           0
      1736 MEMB     148      CHL1     C11      CRL2    -0.180000       12.0110           0
      1737 MEMB     148      CHL1     H11A     HGA2     0.900000E-01   1.00800           0
      1738 MEMB     148      CHL1     H11B     HGA2     0.900000E-01   1.00800           0
      1739 MEMB     148      CHL1     C9       CRL1    -0.900000E-01   12.0110           0
      1740 MEMB     148      CHL1     H9       HGA1     0.900000E-01   1.00800           0
      1741 MEMB     148      CHL1     C10      CRL1     0.000000       12.0110           0
      1742 MEMB     148      CHL1     C19      CTL3    -0.270000       12.0110           0
      1743 MEMB     148      CHL1     H19A     HAL3     0.900000E-01   1.00800           0
      1744 MEMB     148      CHL1     H19B     HAL3     0.900000E-01   1.00800           0
      1745 MEMB     148      CHL1     H19C     HAL3     0.900000E-01   1.00800           0
      1746 MEMB     148      CHL1     C1       CRL2    -0.180000       12.0110           0
      1747 MEMB     148      CHL1     H1A      HGA2     0.900000E-01   1.00800           0
      1748 MEMB     148      CHL1     H1B      HGA2     0.900000E-01   1.00800           0
      1749 MEMB     148      CHL1     C2       CRL2    -0.180000       12.0110           0
      1750 MEMB     148      CHL1     H2A      HGA2     0.900000E-01   1.00800           0
      1751 MEMB     148      CHL1     H2B      HGA2     0.900000E-01   1.00800           0
      1752 MEMB     148      CHL1     C20      CTL1    -0.900000E-01   12.0110           0
      1753 MEMB     148      CHL1     H20      HAL1     0.900000E-01   1.00800           0
      1754 MEMB     148      CHL1     C21      CTL3    -0.270000       12.0110           0
      1755 MEMB     148      CHL1     H21A     HAL3     0.900000E-01   1.00800           0
      1756 MEMB     148      CHL1     H21B     HAL3     0.900000E-01   1.00800           0
      1757 MEMB     148      CHL1     H21C     HAL3     0.900000E-01   1.00800           0
      1758 MEMB     148      CHL1     C22      CTL2    -0.180000       12.0110           0
      1759 MEMB     148      CHL1     H22A     HAL2     0.900000E-01   1.00800           0
      1760 MEMB     148      CHL1     H22B     HAL2     0.900000E-01   1.00800           0
      1761 MEMB     148      CHL1     C23      CTL2    -0.180000       12.0110           0
      1762 MEMB     148      CHL1     H23A     HAL2     0.900000E-01   1.00800           0
      1763 MEMB     148      CHL1     H23B     HAL2     0.900000E-01   1.00800           0
      1764 MEMB     148      CHL1     C24      CTL2    -0.180000       12.0110           0
      1765 MEMB     148      CHL1     H24A     HAL2     0.900000E-01   1.00800           0
      1766 MEMB     148      CHL1     H24B     HAL2     0.900000E-01   1.00800           0
      1767 MEMB     148      CHL1     C25      CTL1    -0.900000E-01   12.0110           0
      1768 MEMB     148      CHL1     H25      HAL1     0.900000E-01   1.00800           0
      1769 MEMB     148      CHL1     C26      CTL3    -0.270000       12.0110           0
      1770 MEMB     148      CHL1     H26A     HAL3     0.900000E-01   1.00800           0
      1771 MEMB     148      CHL1     H26B     HAL3     0.900000E-01   1.00800           0
      1772 MEMB     148      CHL1     H26C     HAL3     0.900000E-01   1.00800           0
      1773 MEMB     148      CHL1     C27      CTL3    -0.270000       12.0110           0
      1774 MEMB     148      CHL1     H27A     HAL3     0.900000E-01   1.00800           0
      1775 MEMB     148      CHL1     H27B     HAL3     0.900000E-01   1.00800           0
      1776 MEMB     148      CHL1     H27C     HAL3     0.900000E-01   1.00800           0
      1777 MEMB     150      CHL1     C3       CRL1     0.140000       12.0110           0
      1778 MEMB     150      CHL1     H3       HGA1     0.900000E-01   1.00800           0
      1779 MEMB     150      CHL1     O3       OHL     -0.660000       15.9994           0
      1780 MEMB     150      CHL1     H3'      HOL      0.430000       1.00800           0
      1781 MEMB     150      CHL1     C4       CRL2    -0.180000       12.0110           0
      1782 MEMB     150      CHL1     H4A      HGA2     0.900000E-01   1.00800           0
      1783 MEMB     150      CHL1     H4B      HGA2     0.900000E-01   1.00800           0
      1784 MEMB     150      CHL1     C5       CEL1     0.000000       12.0110           0
      1785 MEMB     150      CHL1     C6       CEL1    -0.150000       12.0110           0
      1786 MEMB     150      CHL1     H6       HEL1     0.150000       1.00800           0
      1787 MEMB     150      CHL1     C7       CRL2    -0.180000       12.0110           0
      1788 MEMB     150      CHL1     H7A      HGA2     0.900000E-01   1.00800           0
      1789 MEMB     150      CHL1     H7B      HGA2     0.900000E-01   1.00800           0
      1790 MEMB     150      CHL1     C8       CRL1    -0.900000E-01   12.0110           0
      1791 MEMB     150      CHL1     H8       HGA1     0.900000E-01   1.00800           0
      1792 MEMB     150      CHL1     C14      CRL1    -0.900000E-01   12.0110           0
      1793 MEMB     150      CHL1     H14      HGA1     0.900000E-01   1.00800           0
      1794 MEMB     150      CHL1     C15      CRL2    -0.180000       12.0110           0
      1795 MEMB     150      CHL1     H15A     HGA2     0.900000E-01   1.00800           0
      1796 MEMB     150      CHL1     H15B     HGA2     0.900000E-01   1.00800           0
      1797 MEMB     150      CHL1     C16      CRL2    -0.180000       12.0110           0
      1798 MEMB     150      CHL1     H16A     HGA2     0.900000E-01   1.00800           0
      1799 MEMB     150      CHL1     H16B     HGA2     0.900000E-01   1.00800           0
      1800 MEMB     150      CHL1     C17      CRL1    -0.900000E-01   12.0110           0
      1801 MEMB     150      CHL1     H17      HGA1     0.900000E-01   1.00800           0
      1802 MEMB     150      CHL1     C13      CRL1     0.000000       12.0110           0
      1803 MEMB     150      CHL1     C18      CTL3    -0.270000       12.0110           0
      1804 MEMB     150      CHL1     H18A     HAL3     0.900000E-01   1.00800           0
      1805 MEMB     150      CHL1     H18B     HAL3     0.900000E-01   1.00800           0
      1806 MEMB     150      CHL1     H18C     HAL3     0.900000E-01   1.00800           0
      1807 MEMB     150      CHL1     C12      CRL2    -0.180000       12.0110           0
      1808 MEMB     150      CHL1     H12A     HGA2     0.900000E-01   1.00800           0
      1809 MEMB     150      CHL1     H12B     HGA2     0.900000E-01   1.00800           0
      1810 MEMB     150      CHL1     C11      CRL2    -0.180000       12.0110           0
      1811 MEMB     150      CHL1     H11A     HGA2     0.900000E-01   1.00800           0
      1812 MEMB     150      CHL1     H11B     HGA2     0.900000E-01   1.00800           0
      1813 MEMB     150      CHL1     C9       CRL1    -0.900000E-01   12.0110           0
      1814 MEMB     150      CHL1     H9       HGA1     0.900000E-01   1.00800           0
      1815 MEMB     150      CHL1     C10      CRL1     0.000000       12.0110           0
      1816 MEMB     150      CHL1     C19      CTL3    -0.270000       12.0110           0
      1817 MEMB     150      CHL1     H19A     HAL3     0.900000E-01   1.00800           0
      1818 MEMB     150      CHL1     H19B     HAL3     0.900000E-01   1.00800           0
      1819 MEMB     150      CHL1     H19C     HAL3     0.900000E-01   1.00800           0
      1820 MEMB     150      CHL1     C1       CRL2    -0.180000       12.0110           0
      1821 MEMB     150      CHL1     H1A      HGA2     0.900000E-01   1.00800           0
      1822 MEMB     150      CHL1     H1B      HGA2     0.900000E-01   1.00800           0
      1823 MEMB     150      CHL1     C2       CRL2    -0.180000       12.0110           0
      1824 MEMB     150      CHL1     H2A      HGA2     0.900000E-01   1.00800           0
      1825 MEMB     150      CHL1     H2B      HGA2     0.900000E-01   1.00800           0
      1826 MEMB     150      CHL1     C20      CTL1    -0.900000E-01   12.0110           0
      1827 MEMB     150      CHL1     H20      HAL1     0.900000E-01   1.00800           0
      1828 MEMB     150      CHL1     C21      CTL3    -0.270000       12.0110           0
      1829 MEMB     150      CHL1     H21A     HAL3     0.900000E-01   1.00800           0
      1830 MEMB     150      CHL1     H21B     HAL3     0.900000E-01   1.00800           0
      1831 MEMB     150      CHL1     H21C     HAL3     0.900000E-01   1.00800           0
      1832 MEMB     150      CHL1     C22      CTL2    -0.180000       12.0110           0
      1833 MEMB     150      CHL1     H22A     HAL2     0.900000E-01   1.00800           0
      1834 MEMB     150      CHL1     H22B     HAL2     0.900000E-01   1.00800           0
      1835 MEMB     150      CHL1     C23      CTL2    -0.180000       12.0110           0
      1836 MEMB     150      CHL1     H23A     HAL2     0.900000E-01   1.00800           0
      1837 MEMB     150      CHL1     H23B     HAL2     0.900000E-01   1.00800           0
      1838 MEMB     150      CHL1     C24      CTL2    -0.180000       12.0110           0
      1839 MEMB     150      CHL1     H24A     HAL2     0.900000E-01   1.00800           0
      1840 MEMB     150      CHL1     H24B     HAL2     0.900000E-01   1.00800           0
      1841 MEMB     150      CHL1     C25      CTL1    -0.900000E-01   12.0110           0
      1842 MEMB     150      CHL1     H25      HAL1     0.900000E-01   1.00800           0
      1843 MEMB     150      CHL1     C26      CTL3    -0.270000       12.0110           0
      1844 MEMB     150      CHL1     H26A     HAL3     0.900000E-01   1.00800           0
      1845 MEMB     150      CHL1     H26B     HAL3     0.900000E-01   1.00800           0
      1846 MEMB     150      CHL1     H26C     HAL3     0.900000E-01   1.00800           0
      1847 MEMB     150      CHL1     C27      CTL3    -0.270000       12.0110           0
      1848 MEMB     150      CHL1     H27A     HAL3     0.900000E-01   1.00800           0
      1849 MEMB     150      CHL1     H27B     HAL3     0.900000E-01   1.00800           0
      1850 MEMB     150      CHL1     H27C     HAL3     0.900000E-01   1.00800           0
      1851 MEMB     152      CHL1     C3       CRL1     0.140000       12.0110           0
      1852 MEMB     152      CHL1     H3       HGA1     0.900000E-01   1.00800           0
      1853 MEMB     152      CHL1     O3       OHL     -0.660000       15.9994           0
      1854 MEMB     152      CHL1     H3'      HOL      0.430000       1.00800           0
      1855 MEMB     152      CHL1     C4       CRL2    -0.180000       12.0110           0
      1856 MEMB     152      CHL1     H4A      HGA2     0.900000E-01   1.00800           0
      1857 MEMB     152      CHL1     H4B      HGA2     0.900000E-01   1.00800           0
      1858 MEMB     152      CHL1     C5       CEL1     0.000000       12.0110           0
      1859 MEMB     152      CHL1     C6       CEL1    -0.150000       12.0110           0
      1860 MEMB     152      CHL1     H6       HEL1     0.150000       1.00800           0
      1861 MEMB     152      CHL1     C7       CRL2    -0.180000       12.0110           0
      1862 MEMB     152      CHL1     H7A      HGA2     0.900000E-01   1.00800           0
      1863 MEMB     152      CHL1     H7B      HGA2     0.900000E-01   1.00800           0
      1864 MEMB     152      CHL1     C8       CRL1    -0.900000E-01   12.0110           0
      1865 MEMB     152      CHL1     H8       HGA1     0.900000E-01   1.00800           0
      1866 MEMB     152      CHL1     C14      CRL1    -0.900000E-01   12.0110           0
      1867 MEMB     152      CHL1     H14      HGA1     0.900000E-01   1.00800           0
      1868 MEMB     152      CHL1     C15      CRL2    -0.180000       12.0110           0
      1869 MEMB     152      CHL1     H15A     HGA2     0.900000E-01   1.00800           0
      1870 MEMB     152      CHL1     H15B     HGA2     0.900000E-01   1.00800           0
      1871 MEMB     152      CHL1     C16      CRL2    -0.180000       12.0110           0
      1872 MEMB     152      CHL1     H16A     HGA2     0.900000E-01   1.00800           0
      1873 MEMB     152      CHL1     H16B     HGA2     0.900000E-01   1.00800           0
      1874 MEMB     152      CHL1     C17      CRL1    -0.900000E-01   12.0110           0
      1875 MEMB     152      CHL1     H17      HGA1     0.900000E-01   1.00800           0
      1876 MEMB     152      CHL1     C13      CRL1     0.000000       12.0110           0
      1877 MEMB     152      CHL1     C18      CTL3    -0.270000       12.0110           0
      1878 MEMB     152      CHL1     H18A     HAL3     0.900000E-01   1.00800           0
      1879 MEMB     152      CHL1     H18B     HAL3     0.900000E-01   1.00800           0
      1880 MEMB     152      CHL1     H18C     HAL3     0.900000E-01   1.00800           0
      1881 MEMB     152      CHL1     C12      CRL2    -0.180000       12.0110           0
      1882 MEMB     152      CHL1     H12A     HGA2     0.900000E-01   1.00800           0
      1883 MEMB     152      CHL1     H12B     HGA2     0.900000E-01   1.00800           0
      1884 MEMB     152      CHL1     C11      CRL2    -0.180000       12.0110           0
      1885 MEMB     152      CHL1     H11A     HGA2     0.900000E-01   1.00800           0
      1886 MEMB     152      CHL1     H11B     HGA2     0.900000E-01   1.00800           0
      1887 MEMB     152      CHL1     C9       CRL1    -0.900000E-01   12.0110           0
      1888 MEMB     152      CHL1     H9       HGA1     0.900000E-01   1.00800           0
      1889 MEMB     152      CHL1     C10      CRL1     0.000000       12.0110           0
      1890 MEMB     152      CHL1     C19      CTL3    -0.270000       12.0110           0
      1891 MEMB     152      CHL1     H19A     HAL3     0.900000E-01   1.00800           0
      1892 MEMB     152      CHL1     H19B     HAL3     0.900000E-01   1.00800           0
      1893 MEMB     152      CHL1     H19C     HAL3     0.900000E-01   1.00800           0
      1894 MEMB     152      CHL1     C1       CRL2    -0.180000       12.0110           0
      1895 MEMB     152      CHL1     H1A      HGA2     0.900000E-01   1.00800           0
      1896 MEMB     152      CHL1     H1B      HGA2     0.900000E-01   1.00800           0
      1897 MEMB     152      CHL1     C2       CRL2    -0.180000       12.0110           0
      1898 MEMB     152      CHL1     H2A      HGA2     0.900000E-01   1.00800           0
      1899 MEMB     152      CHL1     H2B      HGA2     0.900000E-01   1.00800           0
      1900 MEMB     152      CHL1     C20      CTL1    -0.900000E-01   12.0110           0
      1901 MEMB     152      CHL1     H20      HAL1     0.900000E-01   1.00800           0
      1902 MEMB     152      CHL1     C21      CTL3    -0.270000       12.0110           0
      1903 MEMB     152      CHL1     H21A     HAL3     0.900000E-01   1.00800           0
      1904 MEMB     152      CHL1     H21B     HAL3     0.900000E-01   1.00800           0
      1905 MEMB     152      CHL1     H21C     HAL3     0.900000E-01   1.00800           0
      1906 MEMB     152      CHL1     C22      CTL2    -0.180000       12.0110           0
      1907 MEMB     152      CHL1     H22A     HAL2     0.900000E-01   1.00800           0
      1908 MEMB     152      CHL1     H22B     HAL2     0.900000E-01   1.00800           0
      1909 MEMB     152      CHL1     C23      CTL2    -0.180000       12.0110           0
      1910 MEMB     152      CHL1     H23A     HAL2     0.900000E-01   1.00800           0
      1911 MEMB     152      CHL1     H23B     HAL2     0.900000E-01   1.00800           0
      1912 MEMB     152      CHL1     C24      CTL2    -0.180000       12.0110           0
      1913 MEMB     152      CHL1     H24A     HAL2     0.900000E-01   1.00800           0
      1914 MEMB     152      CHL1     H24B     HAL2     0.900000E-01   1.00800           0
      1915 MEMB     152      CHL1     C25      CTL1    -0.900000E-01   12.0110           0
      1916 MEMB     152      CHL1     H25      HAL1     0.900000E-01   1.00800           0
      1917 MEMB     152      CHL1     C26      CTL3    -0.270000       12.0110           0
      1918 MEMB     152      CHL1     H26A     HAL3     0.900000E-01   1.00800           0
      1919 MEMB     152      CHL1     H26B     HAL3     0.900000E-01   1.00800           0
      1920 MEMB     152      CHL1     H26C     HAL3     0.900000E-01   1.00800           0
      1921 MEMB     152      CHL1     C27      CTL3    -0.270000       12.0110           0
      1922 MEMB     152      CHL1     H27A     HAL3     0.900000E-01   1.00800           0
      1923 MEMB     152      CHL1     H27B     HAL3     0.900000E-01   1.00800           0
      1924 MEMB     152      CHL1     H27C     HAL3     0.900000E-01   1.00800           0
      1925 MEMB     160      CHL1     C3       CRL1     0.140000       12.0110           0
      1926 MEMB     160      CHL1     H3       HGA1     0.900000E-01   1.00800           0
      1927 MEMB     160      CHL1     O3       OHL     -0.660000       15.9994           0
      1928 MEMB     160      CHL1     H3'      HOL      0.430000       1.00800           0
      1929 MEMB     160      CHL1     C4       CRL2    -0.180000       12.0110           0
      1930 MEMB     160      CHL1     H4A      HGA2     0.900000E-01   1.00800           0
      1931 MEMB     160      CHL1     H4B      HGA2     0.900000E-01   1.00800           0
      1932 MEMB     160      CHL1     C5       CEL1     0.000000       12.0110           0
      1933 MEMB     160      CHL1     C6       CEL1    -0.150000       12.0110           0
      1934 MEMB     160      CHL1     H6       HEL1     0.150000       1.00800           0
      1935 MEMB     160      CHL1     C7       CRL2    -0.180000       12.0110           0
      1936 MEMB     160      CHL1     H7A      HGA2     0.900000E-01   1.00800           0
      1937 MEMB     160      CHL1     H7B      HGA2     0.900000E-01   1.00800           0
      1938 MEMB     160      CHL1     C8       CRL1    -0.900000E-01   12.0110           0
      1939 MEMB     160      CHL1     H8       HGA1     0.900000E-01   1.00800           0
      1940 MEMB     160      CHL1     C14      CRL1    -0.900000E-01   12.0110           0
      1941 MEMB     160      CHL1     H14      HGA1     0.900000E-01   1.00800           0
      1942 MEMB     160      CHL1     C15      CRL2    -0.180000       12.0110           0
      1943 MEMB     160      CHL1     H15A     HGA2     0.900000E-01   1.00800           0
      1944 MEMB     160      CHL1     H15B     HGA2     0.900000E-01   1.00800           0
      1945 MEMB     160      CHL1     C16      CRL2    -0.180000       12.0110           0
      1946 MEMB     160      CHL1     H16A     HGA2     0.900000E-01   1.00800           0
      1947 MEMB     160      CHL1     H16B     HGA2     0.900000E-01   1.00800           0
      1948 MEMB     160      CHL1     C17      CRL1    -0.900000E-01   12.0110           0
      1949 MEMB     160      CHL1     H17      HGA1     0.900000E-01   1.00800           0
      1950 MEMB     160      CHL1     C13      CRL1     0.000000       12.0110           0
      1951 MEMB     160      CHL1     C18      CTL3    -0.270000       12.0110           0
      1952 MEMB     160      CHL1     H18A     HAL3     0.900000E-01   1.00800           0
      1953 MEMB     160      CHL1     H18B     HAL3     0.900000E-01   1.00800           0
      1954 MEMB     160      CHL1     H18C     HAL3     0.900000E-01   1.00800           0
      1955 MEMB     160      CHL1     C12      CRL2    -0.180000       12.0110           0
      1956 MEMB     160      CHL1     H12A     HGA2     0.900000E-01   1.00800           0
      1957 MEMB     160      CHL1     H12B     HGA2     0.900000E-01   1.00800           0
      1958 MEMB     160      CHL1     C11      CRL2    -0.180000       12.0110           0
      1959 MEMB     160      CHL1     H11A     HGA2     0.900000E-01   1.00800           0
      1960 MEMB     160      CHL1     H11B     HGA2     0.900000E-01   1.00800           0
      1961 MEMB     160      CHL1     C9       CRL1    -0.900000E-01   12.0110           0
      1962 MEMB     160      CHL1     H9       HGA1     0.900000E-01   1.00800           0
      1963 MEMB     160      CHL1     C10      CRL1     0.000000       12.0110           0
      1964 MEMB     160      CHL1     C19      CTL3    -0.270000       12.0110           0
      1965 MEMB     160      CHL1     H19A     HAL3     0.900000E-01   1.00800           0
      1966 MEMB     160      CHL1     H19B     HAL3     0.900000E-01   1.00800           0
      1967 MEMB     160      CHL1     H19C     HAL3     0.900000E-01   1.00800           0
      1968 MEMB     160      CHL1     C1       CRL2    -0.180000       12.0110           0
      1969 MEMB     160      CHL1     H1A      HGA2     0.900000E-01   1.00800           0
      1970 MEMB     160      CHL1     H1B      HGA2     0.900000E-01   1.00800           0
      1971 MEMB     160      CHL1     C2       CRL2    -0.180000       12.0110           0
      1972 MEMB     160      CHL1     H2A      HGA2     0.900000E-01   1.00800           0
      1973 MEMB     160      CHL1     H2B      HGA2     0.900000E-01   1.00800           0
      1974 MEMB     160      CHL1     C20      CTL1    -0.900000E-01   12.0110           0
      1975 MEMB     160      CHL1     H20      HAL1     0.900000E-01   1.00800           0
      1976 MEMB     160      CHL1     C21      CTL3    -0.270000       12.0110           0
      1977 MEMB     160      CHL1     H21A     HAL3     0.900000E-01   1.00800           0
      1978 MEMB     160      CHL1     H21B     HAL3     0.900000E-01   1.00800           0
      1979 MEMB     160      CHL1     H21C     HAL3     0.900000E-01   1.00800           0
      1980 MEMB     160      CHL1     C22      CTL2    -0.180000       12.0110           0
      1981 MEMB     160      CHL1     H22A     HAL2     0.900000E-01   1.00800           0
      1982 MEMB     160      CHL1     H22B     HAL2     0.900000E-01   1.00800           0
      1983 MEMB     160      CHL1     C23      CTL2    -0.180000       12.0110           0
      1984 MEMB     160      CHL1     H23A     HAL2     0.900000E-01   1.00800           0
      1985 MEMB     160      CHL1     H23B     HAL2     0.900000E-01   1.00800           0
      1986 MEMB     160      CHL1     C24      CTL2    -0.180000       12.0110           0
      1987 MEMB     160      CHL1     H24A     HAL2     0.900000E-01   1.00800           0
      1988 MEMB     160      CHL1     H24B     HAL2     0.900000E-01   1.00800           0
      1989 MEMB     160      CHL1     C25      CTL1    -0.900000E-01   12.0110           0
      1990 MEMB     160      CHL1     H25      HAL1     0.900000E-01   1.00800           0
      1991 MEMB     160      CHL1     C26      CTL3    -0.270000       12.0110           0
      1992 MEMB     160      CHL1     H26A     HAL3     0.900000E-01   1.00800           0
      1993 MEMB     160      CHL1     H26B     HAL3     0.900000E-01   1.00800           0
      1994 MEMB     160      CHL1     H26C     HAL3     0.900000E-01   1.00800           0
      1995 MEMB     160      CHL1     C27      CTL3    -0.270000       12.0110           0
      1996 MEMB     160      CHL1     H27A     HAL3     0.900000E-01   1.00800           0
      1997 MEMB     160      CHL1     H27B     HAL3     0.900000E-01   1.00800           0
      1998 MEMB     160      CHL1     H27C     HAL3     0.900000E-01   1.00800           0
      1999 MEMB     166      CHL1     C3       CRL1     0.140000       12.0110           0
      2000 MEMB     166      CHL1     H3       HGA1     0.900000E-01   1.00800           0
      2001 MEMB     166      CHL1     O3       OHL     -0.660000       15.9994           0
      2002 MEMB     166      CHL1     H3'      HOL      0.430000       1.00800           0
      2003 MEMB     166      CHL1     C4       CRL2    -0.180000       12.0110           0
      2004 MEMB     166      CHL1     H4A      HGA2     0.900000E-01   1.00800           0
      2005 MEMB     166      CHL1     H4B      HGA2     0.900000E-01   1.00800           0
      2006 MEMB     166      CHL1     C5       CEL1     0.000000       12.0110           0
      2007 MEMB     166      CHL1     C6       CEL1    -0.150000       12.0110           0
      2008 MEMB     166      CHL1     H6       HEL1     0.150000       1.00800           0
      2009 MEMB     166      CHL1     C7       CRL2    -0.180000       12.0110           0
      2010 MEMB     166      CHL1     H7A      HGA2     0.900000E-01   1.00800           0
      2011 MEMB     166      CHL1     H7B      HGA2     0.900000E-01   1.00800           0
      2012 MEMB     166      CHL1     C8       CRL1    -0.900000E-01   12.0110           0
      2013 MEMB     166      CHL1     H8       HGA1     0.900000E-01   1.00800           0
      2014 MEMB     166      CHL1     C14      CRL1    -0.900000E-01   12.0110           0
      2015 MEMB     166      CHL1     H14      HGA1     0.900000E-01   1.00800           0
      2016 MEMB     166      CHL1     C15      CRL2    -0.180000       12.0110           0
      2017 MEMB     166      CHL1     H15A     HGA2     0.900000E-01   1.00800           0
      2018 MEMB     166      CHL1     H15B     HGA2     0.900000E-01   1.00800           0
      2019 MEMB     166      CHL1     C16      CRL2    -0.180000       12.0110           0
      2020 MEMB     166      CHL1     H16A     HGA2     0.900000E-01   1.00800           0
      2021 MEMB     166      CHL1     H16B     HGA2     0.900000E-01   1.00800           0
      2022 MEMB     166      CHL1     C17      CRL1    -0.900000E-01   12.0110           0
      2023 MEMB     166      CHL1     H17      HGA1     0.900000E-01   1.00800           0
      2024 MEMB     166      CHL1     C13      CRL1     0.000000       12.0110           0
      2025 MEMB     166      CHL1     C18      CTL3    -0.270000       12.0110           0
      2026 MEMB     166      CHL1     H18A     HAL3     0.900000E-01   1.00800           0
      2027 MEMB     166      CHL1     H18B     HAL3     0.900000E-01   1.00800           0
      2028 MEMB     166      CHL1     H18C     HAL3     0.900000E-01   1.00800           0
      2029 MEMB     166      CHL1     C12      CRL2    -0.180000       12.0110           0
      2030 MEMB     166      CHL1     H12A     HGA2     0.900000E-01   1.00800           0
      2031 MEMB     166      CHL1     H12B     HGA2     0.900000E-01   1.00800           0
      2032 MEMB     166      CHL1     C11      CRL2    -0.180000       12.0110           0
      2033 MEMB     166      CHL1     H11A     HGA2     0.900000E-01   1.00800           0
      2034 MEMB     166      CHL1     H11B     HGA2     0.900000E-01   1.00800           0
      2035 MEMB     166      CHL1     C9       CRL1    -0.900000E-01   12.0110           0
      2036 MEMB     166      CHL1     H9       HGA1     0.900000E-01   1.00800           0
      2037 MEMB     166      CHL1     C10      CRL1     0.000000       12.0110           0
      2038 MEMB     166      CHL1     C19      CTL3    -0.270000       12.0110           0
      2039 MEMB     166      CHL1     H19A     HAL3     0.900000E-01   1.00800           0
      2040 MEMB     166      CHL1     H19B     HAL3     0.900000E-01   1.00800           0
      2041 MEMB     166      CHL1     H19C     HAL3     0.900000E-01   1.00800           0
      2042 MEMB     166      CHL1     C1       CRL2    -0.180000       12.0110           0
      2043 MEMB     166      CHL1     H1A      HGA2     0.900000E-01   1.00800           0
      2044 MEMB     166      CHL1     H1B      HGA2     0.900000E-01   1.00800           0
      2045 MEMB     166      CHL1     C2       CRL2    -0.180000       12.0110           0
      2046 MEMB     166      CHL1     H2A      HGA2     0.900000E-01   1.00800           0
      2047 MEMB     166      CHL1     H2B      HGA2     0.900000E-01   1.00800           0
      2048 MEMB     166      CHL1     C20      CTL1    -0.900000E-01   12.0110           0
      2049 MEMB     166      CHL1     H20      HAL1     0.900000E-01   1.00800           0
      2050 MEMB     166      CHL1     C21      CTL3    -0.270000       12.0110           0
      2051 MEMB     166      CHL1     H21A     HAL3     0.900000E-01   1.00800           0
      2052 MEMB     166      CHL1     H21B     HAL3     0.900000E-01   1.00800           0
      2053 MEMB     166      CHL1     H21C     HAL3     0.900000E-01   1.00800           0
      2054 MEMB     166      CHL1     C22      CTL2    -0.180000       12.0110           0
      2055 MEMB     166      CHL1     H22A     HAL2     0.900000E-01   1.00800           0
      2056 MEMB     166      CHL1     H22B     HAL2     0.900000E-01   1.00800           0
      2057 MEMB     166      CHL1     C23      CTL2    -0.180000       12.0110           0
      2058 MEMB     166      CHL1     H23A     HAL2     0.900000E-01   1.00800           0
      2059 MEMB     166      CHL1     H23B     HAL2     0.900000E-01   1.00800           0
      2060 MEMB     166      CHL1     C24      CTL2    -0.180000       12.0110           0
      2061 MEMB     166      CHL1     H24A     HAL2     0.900000E-01   1.00800           0
      2062 MEMB     166      CHL1     H24B     HAL2     0.900000E-01   1.00800           0
      2063 MEMB     166      CHL1     C25      CTL1    -0.900000E-01   12.0110           0
      2064 MEMB     166      CHL1     H25      HAL1     0.900000E-01   1.00800           0
      2065 MEMB     166      CHL1     C26      CTL3    -0.270000       12.0110           0
      2066 MEMB     166      CHL1     H26A     HAL3     0.900000E-01   1.00800           0
      2067 MEMB     166      CHL1     H26B     HAL3     0.900000E-01   1.00800           0
      2068 MEMB     166      CHL1     H26C     HAL3     0.900000E-01   1.00800           0
      2069 MEMB     166      CHL1     C27      CTL3    -0.270000       12.0110           0
      2070 MEMB     166      CHL1     H27A     HAL3     0.900000E-01   1.00800           0
      2071 MEMB     166      CHL1     H27B     HAL3     0.900000E-01   1.00800           0
      2072 MEMB     166      CHL1     H27C     HAL3     0.900000E-01   1.00800           0
      2073 MEMB     192      CHL1     C3       CRL1     0.140000       12.0110           0
      2074 MEMB     192      CHL1     H3       HGA1     0.900000E-01   1.00800           0
      2075 MEMB     192      CHL1     O3       OHL     -0.660000       15.9994           0
      2076 MEMB     192      CHL1     H3'      HOL      0.430000       1.00800           0
      2077 MEMB     192      CHL1     C4       CRL2    -0.180000       12.0110           0
      2078 MEMB     192      CHL1     H4A      HGA2     0.900000E-01   1.00800           0
      2079 MEMB     192      CHL1     H4B      HGA2     0.900000E-01   1.00800           0
      2080 MEMB     192      CHL1     C5       CEL1     0.000000       12.0110           0
      2081 MEMB     192      CHL1     C6       CEL1    -0.150000       12.0110           0
      2082 MEMB     192      CHL1     H6       HEL1     0.150000       1.00800           0
      2083 MEMB     192      CHL1     C7       CRL2    -0.180000       12.0110           0
      2084 MEMB     192      CHL1     H7A      HGA2     0.900000E-01   1.00800           0
      2085 MEMB     192      CHL1     H7B      HGA2     0.900000E-01   1.00800           0
      2086 MEMB     192      CHL1     C8       CRL1    -0.900000E-01   12.0110           0
      2087 MEMB     192      CHL1     H8       HGA1     0.900000E-01   1.00800           0
      2088 MEMB     192      CHL1     C14      CRL1    -0.900000E-01   12.0110           0
      2089 MEMB     192      CHL1     H14      HGA1     0.900000E-01   1.00800           0
      2090 MEMB     192      CHL1     C15      CRL2    -0.180000       12.0110           0
      2091 MEMB     192      CHL1     H15A     HGA2     0.900000E-01   1.00800           0
      2092 MEMB     192      CHL1     H15B     HGA2     0.900000E-01   1.00800           0
      2093 MEMB     192      CHL1     C16      CRL2    -0.180000       12.0110           0
      2094 MEMB     192      CHL1     H16A     HGA2     0.900000E-01   1.00800           0
      2095 MEMB     192      CHL1     H16B     HGA2     0.900000E-01   1.00800           0
      2096 MEMB     192      CHL1     C17      CRL1    -0.900000E-01   12.0110           0
      2097 MEMB     192      CHL1     H17      HGA1     0.900000E-01   1.00800           0
      2098 MEMB     192      CHL1     C13      CRL1     0.000000       12.0110           0
      2099 MEMB     192      CHL1     C18      CTL3    -0.270000       12.0110           0
      2100 MEMB     192      CHL1     H18A     HAL3     0.900000E-01   1.00800           0
      2101 MEMB     192      CHL1     H18B     HAL3     0.900000E-01   1.00800           0
      2102 MEMB     192      CHL1     H18C     HAL3     0.900000E-01   1.00800           0
      2103 MEMB     192      CHL1     C12      CRL2    -0.180000       12.0110           0
      2104 MEMB     192      CHL1     H12A     HGA2     0.900000E-01   1.00800           0
      2105 MEMB     192      CHL1     H12B     HGA2     0.900000E-01   1.00800           0
      2106 MEMB     192      CHL1     C11      CRL2    -0.180000       12.0110           0
      2107 MEMB     192      CHL1     H11A     HGA2     0.900000E-01   1.00800           0
      2108 MEMB     192      CHL1     H11B     HGA2     0.900000E-01   1.00800           0
      2109 MEMB     192      CHL1     C9       CRL1    -0.900000E-01   12.0110           0
      2110 MEMB     192      CHL1     H9       HGA1     0.900000E-01   1.00800           0
      2111 MEMB     192      CHL1     C10      CRL1     0.000000       12.0110           0
      2112 MEMB     192      CHL1     C19      CTL3    -0.270000       12.0110           0
      2113 MEMB     192      CHL1     H19A     HAL3     0.900000E-01   1.00800           0
      2114 MEMB     192      CHL1     H19B     HAL3     0.900000E-01   1.00800           0
      2115 MEMB     192      CHL1     H19C     HAL3     0.900000E-01   1.00800           0
      2116 MEMB     192      CHL1     C1       CRL2    -0.180000       12.0110           0
      2117 MEMB     192      CHL1     H1A      HGA2     0.900000E-01   1.00800           0
      2118 MEMB     192      CHL1     H1B      HGA2     0.900000E-01   1.00800           0
      2119 MEMB     192      CHL1     C2       CRL2    -0.180000       12.0110           0
      2120 MEMB     192      CHL1     H2A      HGA2     0.900000E-01   1.00800           0
      2121 MEMB     192      CHL1     H2B      HGA2     0.900000E-01   1.00800           0
      2122 MEMB     192      CHL1     C20      CTL1    -0.900000E-01   12.0110           0
      2123 MEMB     192      CHL1     H20      HAL1     0.900000E-01   1.00800           0
      2124 MEMB     192      CHL1     C21      CTL3    -0.270000       12.0110           0
      2125 MEMB     192      CHL1     H21A     HAL3     0.900000E-01   1.00800           0
      2126 MEMB     192      CHL1     H21B     HAL3     0.900000E-01   1.00800           0
      2127 MEMB     192      CHL1     H21C     HAL3     0.900000E-01   1.00800           0
      2128 MEMB     192      CHL1     C22      CTL2    -0.180000       12.0110           0
      2129 MEMB     192      CHL1     H22A     HAL2     0.900000E-01   1.00800           0
      2130 MEMB     192      CHL1     H22B     HAL2     0.900000E-01   1.00800           0
      2131 MEMB     192      CHL1     C23      CTL2    -0.180000       12.0110           0
      2132 MEMB     192      CHL1     H23A     HAL2     0.900000E-01   1.00800           0
      2133 MEMB     192      CHL1     H23B     HAL2     0.900000E-01   1.00800           0
      2134 MEMB     192      CHL1     C24      CTL2    -0.180000       12.0110           0
      2135 MEMB     192      CHL1     H24A     HAL2     0.900000E-01   1.00800           0
      2136 MEMB     192      CHL1     H24B     HAL2     0.900000E-01   1.00800           0
      2137 MEMB     192      CHL1     C25      CTL1    -0.900000E-01   12.0110           0
      2138 MEMB     192      CHL1     H25      HAL1     0.900000E-01   1.00800           0
      2139 MEMB     192      CHL1     C26      CTL3    -0.270000       12.0110           0
      2140 MEMB     192      CHL1     H26A     HAL3     0.900000E-01   1.00800           0
      2141 MEMB     192      CHL1     H26B     HAL3     0.900000E-01   1.00800           0
      2142 MEMB     192      CHL1     H26C     HAL3     0.900000E-01   1.00800           0
      2143 MEMB     192      CHL1     C27      CTL3    -0.270000       12.0110           0
      2144 MEMB     192      CHL1     H27A     HAL3     0.900000E-01   1.00800           0
      2145 MEMB     192      CHL1     H27B     HAL3     0.900000E-01   1.00800           0
      2146 MEMB     192      CHL1     H27C     HAL3     0.900000E-01   1.00800           0
      2147 MEMB     194      CHL1     C3       CRL1     0.140000       12.0110           0
      2148 MEMB     194      CHL1     H3       HGA1     0.900000E-01   1.00800           0
      2149 MEMB     194      CHL1     O3       OHL     -0.660000       15.9994           0
      2150 MEMB     194      CHL1     H3'      HOL      0.430000       1.00800           0
      2151 MEMB     194      CHL1     C4       CRL2    -0.180000       12.0110           0
      2152 MEMB     194      CHL1     H4A      HGA2     0.900000E-01   1.00800           0
      2153 MEMB     194      CHL1     H4B      HGA2     0.900000E-01   1.00800           0
      2154 MEMB     194      CHL1     C5       CEL1     0.000000       12.0110           0
      2155 MEMB     194      CHL1     C6       CEL1    -0.150000       12.0110           0
      2156 MEMB     194      CHL1     H6       HEL1     0.150000       1.00800           0
      2157 MEMB     194      CHL1     C7       CRL2    -0.180000       12.0110           0
      2158 MEMB     194      CHL1     H7A      HGA2     0.900000E-01   1.00800           0
      2159 MEMB     194      CHL1     H7B      HGA2     0.900000E-01   1.00800           0
      2160 MEMB     194      CHL1     C8       CRL1    -0.900000E-01   12.0110           0
      2161 MEMB     194      CHL1     H8       HGA1     0.900000E-01   1.00800           0
      2162 MEMB     194      CHL1     C14      CRL1    -0.900000E-01   12.0110           0
      2163 MEMB     194      CHL1     H14      HGA1     0.900000E-01   1.00800           0
      2164 MEMB     194      CHL1     C15      CRL2    -0.180000       12.0110           0
      2165 MEMB     194      CHL1     H15A     HGA2     0.900000E-01   1.00800           0
      2166 MEMB     194      CHL1     H15B     HGA2     0.900000E-01   1.00800           0
      2167 MEMB     194      CHL1     C16      CRL2    -0.180000       12.0110           0
      2168 MEMB     194      CHL1     H16A     HGA2     0.900000E-01   1.00800           0
      2169 MEMB     194      CHL1     H16B     HGA2     0.900000E-01   1.00800           0
      2170 MEMB     194      CHL1     C17      CRL1    -0.900000E-01   12.0110           0
      2171 MEMB     194      CHL1     H17      HGA1     0.900000E-01   1.00800           0
      2172 MEMB     194      CHL1     C13      CRL1     0.000000       12.0110           0
      2173 MEMB     194      CHL1     C18      CTL3    -0.270000       12.0110           0
      2174 MEMB     194      CHL1     H18A     HAL3     0.900000E-01   1.00800           0
      2175 MEMB     194      CHL1     H18B     HAL3     0.900000E-01   1.00800           0
      2176 MEMB     194      CHL1     H18C     HAL3     0.900000E-01   1.00800           0
      2177 MEMB     194      CHL1     C12      CRL2    -0.180000       12.0110           0
      2178 MEMB     194      CHL1     H12A     HGA2     0.900000E-01   1.00800           0
      2179 MEMB     194      CHL1     H12B     HGA2     0.900000E-01   1.00800           0
      2180 MEMB     194      CHL1     C11      CRL2    -0.180000       12.0110           0
      2181 MEMB     194      CHL1     H11A     HGA2     0.900000E-01   1.00800           0
      2182 MEMB     194      CHL1     H11B     HGA2     0.900000E-01   1.00800           0
      2183 MEMB     194      CHL1     C9       CRL1    -0.900000E-01   12.0110           0
      2184 MEMB     194      CHL1     H9       HGA1     0.900000E-01   1.00800           0
      2185 MEMB     194      CHL1     C10      CRL1     0.000000       12.0110           0
      2186 MEMB     194      CHL1     C19      CTL3    -0.270000       12.0110           0
      2187 MEMB     194      CHL1     H19A     HAL3     0.900000E-01   1.00800           0
      2188 MEMB     194      CHL1     H19B     HAL3     0.900000E-01   1.00800           0
      2189 MEMB     194      CHL1     H19C     HAL3     0.900000E-01   1.00800           0
      2190 MEMB     194      CHL1     C1       CRL2    -0.180000       12.0110           0
      2191 MEMB     194      CHL1     H1A      HGA2     0.900000E-01   1.00800           0
      2192 MEMB     194      CHL1     H1B      HGA2     0.900000E-01   1.00800           0
      2193 MEMB     194      CHL1     C2       CRL2    -0.180000       12.0110           0
      2194 MEMB     194      CHL1     H2A      HGA2     0.900000E-01   1.00800           0
      2195 MEMB     194      CHL1     H2B      HGA2     0.900000E-01   1.00800           0
      2196 MEMB     194      CHL1     C20      CTL1    -0.900000E-01   12.0110           0
      2197 MEMB     194      CHL1     H20      HAL1     0.900000E-01   1.00800           0
      2198 MEMB     194      CHL1     C21      CTL3    -0.270000       12.0110           0
      2199 MEMB     194      CHL1     H21A     HAL3     0.900000E-01   1.00800           0
      2200 MEMB     194      CHL1     H21B     HAL3     0.900000E-01   1.00800           0
      2201 MEMB     194      CHL1     H21C     HAL3     0.900000E-01   1.00800           0
      2202 MEMB     194      CHL1     C22      CTL2    -0.180000       12.0110           0
      2203 MEMB     194      CHL1     H22A     HAL2     0.900000E-01   1.00800           0
      2204 MEMB     194      CHL1     H22B     HAL2     0.900000E-01   1.00800           0
      2205 MEMB     194      CHL1     C23      CTL2    -0.180000       12.0110           0
      2206 MEMB     194      CHL1     H23A     HAL2     0.900000E-01   1.00800           0
      2207 MEMB     194      CHL1     H23B     HAL2     0.900000E-01   1.00800           0
      2208 MEMB     194      CHL1     C24      CTL2    -0.180000       12.0110           0
      2209 MEMB     194      CHL1     H24A     HAL2     0.900000E-01   1.00800           0
      2210 MEMB     194      CHL1     H24B     HAL2     0.900000E-01   1.00800           0
      2211 MEMB     194      CHL1     C25      CTL1    -0.900000E-01   12.0110           0
      2212 MEMB     194      CHL1     H25      HAL1     0.900000E-01   1.00800           0
      2213 MEMB     194      CHL1     C26      CTL3    -0.270000       12.0110           0
      2214 MEMB     194      CHL1     H26A     HAL3     0.900000E-01   1.00800           0
      2215 MEMB     194      CHL1     H26B     HAL3     0.900000E-01   1.00800           0
      2216 MEMB     194      CHL1     H26C     HAL3     0.900000E-01   1.00800           0
      2217 MEMB     194      CHL1     C27      CTL3    -0.270000       12.0110           0
      2218 MEMB     194      CHL1     H27A     HAL3     0.900000E-01   1.00800           0
      2219 MEMB     194      CHL1     H27B     HAL3     0.900000E-01   1.00800           0
      2220 MEMB     194      CHL1     H27C     HAL3     0.900000E-01   1.00800           0
      2221 MEMB     2        POPE     N        NH3L    -0.300000       14.0070           0
      2222 MEMB     2        POPE     HN1      HCL      0.330000       1.00800           0
      2223 MEMB     2        POPE     HN2      HCL      0.330000       1.00800           0
      2224 MEMB     2        POPE     HN3      HCL      0.330000       1.00800           0
      2225 MEMB     2        POPE     C12      CTL2     0.130000       12.0110           0
      2226 MEMB     2        POPE     H12A     HAL2     0.900000E-01   1.00800           0
      2227 MEMB     2        POPE     H12B     HAL2     0.900000E-01   1.00800           0
      2228 MEMB     2        POPE     C11      CTL2    -0.800000E-01   12.0110           0
      2229 MEMB     2        POPE     H11A     HAL2     0.900000E-01   1.00800           0
      2230 MEMB     2        POPE     H11B     HAL2     0.900000E-01   1.00800           0
      2231 MEMB     2        POPE     P        PL       1.500000       30.9740           0
      2232 MEMB     2        POPE     O13      O2L     -0.780000       15.9994           0
      2233 MEMB     2        POPE     O14      O2L     -0.780000       15.9994           0
      2234 MEMB     2        POPE     O11      OSLP    -0.570000       15.9994           0
      2235 MEMB     2        POPE     O12      OSLP    -0.570000       15.9994           0
      2236 MEMB     2        POPE     C1       CTL2    -0.800000E-01   12.0110           0
      2237 MEMB     2        POPE     HA       HAL2     0.900000E-01   1.00800           0
      2238 MEMB     2        POPE     HB       HAL2     0.900000E-01   1.00800           0
      2239 MEMB     2        POPE     C2       CTL1     0.170000       12.0110           0
      2240 MEMB     2        POPE     HS       HAL1     0.900000E-01   1.00800           0
      2241 MEMB     2        POPE     O21      OSL     -0.490000       15.9994           0
      2242 MEMB     2        POPE     C21      CL       0.900000       12.0110           0
      2243 MEMB     2        POPE     O22      OBL     -0.630000       15.9994           0
      2244 MEMB     2        POPE     C22      CTL2    -0.220000       12.0110           0
      2245 MEMB     2        POPE     H2R      HAL2     0.900000E-01   1.00800           0
      2246 MEMB     2        POPE     H2S      HAL2     0.900000E-01   1.00800           0
      2247 MEMB     2        POPE     C3       CTL2     0.800000E-01   12.0110           0
      2248 MEMB     2        POPE     HX       HAL2     0.900000E-01   1.00800           0
      2249 MEMB     2        POPE     HY       HAL2     0.900000E-01   1.00800           0
      2250 MEMB     2        POPE     O31      OSL     -0.490000       15.9994           0
      2251 MEMB     2        POPE     C31      CL       0.900000       12.0110           0
      2252 MEMB     2        POPE     O32      OBL     -0.630000       15.9994           0
      2253 MEMB     2        POPE     C32      CTL2    -0.220000       12.0110           0
      2254 MEMB     2        POPE     H2X      HAL2     0.900000E-01   1.00800           0
      2255 MEMB     2        POPE     H2Y      HAL2     0.900000E-01   1.00800           0
      2256 MEMB     2        POPE     C23      CTL2    -0.180000       12.0110           0
      2257 MEMB     2        POPE     H3R      HAL2     0.900000E-01   1.00800           0
      2258 MEMB     2        POPE     H3S      HAL2     0.900000E-01   1.00800           0
      2259 MEMB     2        POPE     C24      CTL2    -0.180000       12.0110           0
      2260 MEMB     2        POPE     H4R      HAL2     0.900000E-01   1.00800           0
      2261 MEMB     2        POPE     H4S      HAL2     0.900000E-01   1.00800           0
      2262 MEMB     2        POPE     C25      CTL2    -0.180000       12.0110           0
      2263 MEMB     2        POPE     H5R      HAL2     0.900000E-01   1.00800           0
      2264 MEMB     2        POPE     H5S      HAL2     0.900000E-01   1.00800           0
      2265 MEMB     2        POPE     C26      CTL2    -0.180000       12.0110           0
      2266 MEMB     2        POPE     H6R      HAL2     0.900000E-01   1.00800           0
      2267 MEMB     2        POPE     H6S      HAL2     0.900000E-01   1.00800           0
      2268 MEMB     2        POPE     C27      CTL2    -0.180000       12.0110           0
      2269 MEMB     2        POPE     H7R      HAL2     0.900000E-01   1.00800           0
      2270 MEMB     2        POPE     H7S      HAL2     0.900000E-01   1.00800           0
      2271 MEMB     2        POPE     C28      CTL2    -0.180000       12.0110           0
      2272 MEMB     2        POPE     H8R      HAL2     0.900000E-01   1.00800           0
      2273 MEMB     2        POPE     H8S      HAL2     0.900000E-01   1.00800           0
      2274 MEMB     2        POPE     C29      CEL1    -0.150000       12.0110           0
      2275 MEMB     2        POPE     H91      HEL1     0.150000       1.00800           0
      2276 MEMB     2        POPE     C210     CEL1    -0.150000       12.0110           0
      2277 MEMB     2        POPE     H101     HEL1     0.150000       1.00800           0
      2278 MEMB     2        POPE     C211     CTL2    -0.180000       12.0110           0
      2279 MEMB     2        POPE     H11R     HAL2     0.900000E-01   1.00800           0
      2280 MEMB     2        POPE     H11S     HAL2     0.900000E-01   1.00800           0
      2281 MEMB     2        POPE     C212     CTL2    -0.180000       12.0110           0
      2282 MEMB     2        POPE     H12R     HAL2     0.900000E-01   1.00800           0
      2283 MEMB     2        POPE     H12S     HAL2     0.900000E-01   1.00800           0
      2284 MEMB     2        POPE     C213     CTL2    -0.180000       12.0110           0
      2285 MEMB     2        POPE     H13R     HAL2     0.900000E-01   1.00800           0
      2286 MEMB     2        POPE     H13S     HAL2     0.900000E-01   1.00800           0
      2287 MEMB     2        POPE     C214     CTL2    -0.180000       12.0110           0
      2288 MEMB     2        POPE     H14R     HAL2     0.900000E-01   1.00800           0
      2289 MEMB     2        POPE     H14S     HAL2     0.900000E-01   1.00800           0
      2290 MEMB     2        POPE     C215     CTL2    -0.180000       12.0110           0
      2291 MEMB     2        POPE     H15R     HAL2     0.900000E-01   1.00800           0
      2292 MEMB     2        POPE     H15S     HAL2     0.900000E-01   1.00800           0
      2293 MEMB     2        POPE     C216     CTL2    -0.180000       12.0110           0
      2294 MEMB     2        POPE     H16R     HAL2     0.900000E-01   1.00800           0
      2295 MEMB     2        POPE     H16S     HAL2     0.900000E-01   1.00800           0
      2296 MEMB     2        POPE     C217     CTL2    -0.180000       12.0110           0
      2297 MEMB     2        POPE     H17R     HAL2     0.900000E-01   1.00800           0
      2298 MEMB     2        POPE     H17S     HAL2     0.900000E-01   1.00800           0
      2299 MEMB     2        POPE     C218     CTL3    -0.270000       12.0110           0
      2300 MEMB     2        POPE     H18R     HAL3     0.900000E-01   1.00800           0
      2301 MEMB     2        POPE     H18S     HAL3     0.900000E-01   1.00800           0
      2302 MEMB     2        POPE     H18T     HAL3     0.900000E-01   1.00800           0
      2303 MEMB     2        POPE     C33      CTL2    -0.180000       12.0110           0
      2304 MEMB     2        POPE     H3X      HAL2     0.900000E-01   1.00800           0
      2305 MEMB     2        POPE     H3Y      HAL2     0.900000E-01   1.00800           0
      2306 MEMB     2        POPE     C34      CTL2    -0.180000       12.0110           0
      2307 MEMB     2        POPE     H4X      HAL2     0.900000E-01   1.00800           0
      2308 MEMB     2        POPE     H4Y      HAL2     0.900000E-01   1.00800           0
      2309 MEMB     2        POPE     C35      CTL2    -0.180000       12.0110           0
      2310 MEMB     2        POPE     H5X      HAL2     0.900000E-01   1.00800           0
      2311 MEMB     2        POPE     H5Y      HAL2     0.900000E-01   1.00800           0
      2312 MEMB     2        POPE     C36      CTL2    -0.180000       12.0110           0
      2313 MEMB     2        POPE     H6X      HAL2     0.900000E-01   1.00800           0
      2314 MEMB     2        POPE     H6Y      HAL2     0.900000E-01   1.00800           0
      2315 MEMB     2        POPE     C37      CTL2    -0.180000       12.0110           0
      2316 MEMB     2        POPE     H7X      HAL2     0.900000E-01   1.00800           0
      2317 MEMB     2        POPE     H7Y      HAL2     0.900000E-01   1.00800           0
      2318 MEMB     2        POPE     C38      CTL2    -0.180000       12.0110           0
      2319 MEMB     2        POPE     H8X      HAL2     0.900000E-01   1.00800           0
      2320 MEMB     2        POPE     H8Y      HAL2     0.900000E-01   1.00800           0
      2321 MEMB     2        POPE     C39      CTL2    -0.180000       12.0110           0
      2322 MEMB     2        POPE     H9X      HAL2     0.900000E-01   1.00800           0
      2323 MEMB     2        POPE     H9Y      HAL2     0.900000E-01   1.00800           0
      2324 MEMB     2        POPE     C310     CTL2    -0.180000       12.0110           0
      2325 MEMB     2        POPE     H10X     HAL2     0.900000E-01   1.00800           0
      2326 MEMB     2        POPE     H10Y     HAL2     0.900000E-01   1.00800           0
      2327 MEMB     2        POPE     C311     CTL2    -0.180000       12.0110           0
      2328 MEMB     2        POPE     H11X     HAL2     0.900000E-01   1.00800           0
      2329 MEMB     2        POPE     H11Y     HAL2     0.900000E-01   1.00800           0
      2330 MEMB     2        POPE     C312     CTL2    -0.180000       12.0110           0
      2331 MEMB     2        POPE     H12X     HAL2     0.900000E-01   1.00800           0
      2332 MEMB     2        POPE     H12Y     HAL2     0.900000E-01   1.00800           0
      2333 MEMB     2        POPE     C313     CTL2    -0.180000       12.0110           0
      2334 MEMB     2        POPE     H13X     HAL2     0.900000E-01   1.00800           0
      2335 MEMB     2        POPE     H13Y     HAL2     0.900000E-01   1.00800           0
      2336 MEMB     2        POPE     C314     CTL2    -0.180000       12.0110           0
      2337 MEMB     2        POPE     H14X     HAL2     0.900000E-01   1.00800           0
      2338 MEMB     2        POPE     H14Y     HAL2     0.900000E-01   1.00800           0
      2339 MEMB     2        POPE     C315     CTL2    -0.180000       12.0110           0
      2340 MEMB     2        POPE     H15X     HAL2     0.900000E-01   1.00800           0
      2341 MEMB     2        POPE     H15Y     HAL2     0.900000E-01   1.00800           0
      2342 MEMB     2        POPE     C316     CTL3    -0.270000       12.0110           0
      2343 MEMB     2        POPE     H16X     HAL3     0.900000E-01   1.00800           0
      2344 MEMB     2        POPE     H16Y     HAL3     0.900000E-01   1.00800           0
      2345 MEMB     2        POPE     H16Z     HAL3     0.900000E-01   1.00800           0
      2346 MEMB     7        POPE     N        NH3L    -0.300000       14.0070           0
      2347 MEMB     7        POPE     HN1      HCL      0.330000       1.00800           0
      2348 MEMB     7        POPE     HN2      HCL      0.330000       1.00800           0
      2349 MEMB     7        POPE     HN3      HCL      0.330000       1.00800           0
      2350 MEMB     7        POPE     C12      CTL2     0.130000       12.0110           0
      2351 MEMB     7        POPE     H12A     HAL2     0.900000E-01   1.00800           0
      2352 MEMB     7        POPE     H12B     HAL2     0.900000E-01   1.00800           0
      2353 MEMB     7        POPE     C11      CTL2    -0.800000E-01   12.0110           0
      2354 MEMB     7        POPE     H11A     HAL2     0.900000E-01   1.00800           0
      2355 MEMB     7        POPE     H11B     HAL2     0.900000E-01   1.00800           0
      2356 MEMB     7        POPE     P        PL       1.500000       30.9740           0
      2357 MEMB     7        POPE     O13      O2L     -0.780000       15.9994           0
      2358 MEMB     7        POPE     O14      O2L     -0.780000       15.9994           0
      2359 MEMB     7        POPE     O11      OSLP    -0.570000       15.9994           0
      2360 MEMB     7        POPE     O12      OSLP    -0.570000       15.9994           0
      2361 MEMB     7        POPE     C1       CTL2    -0.800000E-01   12.0110           0
      2362 MEMB     7        POPE     HA       HAL2     0.900000E-01   1.00800           0
      2363 MEMB     7        POPE     HB       HAL2     0.900000E-01   1.00800           0
      2364 MEMB     7        POPE     C2       CTL1     0.170000       12.0110           0
      2365 MEMB     7        POPE     HS       HAL1     0.900000E-01   1.00800           0
      2366 MEMB     7        POPE     O21      OSL     -0.490000       15.9994           0
      2367 MEMB     7        POPE     C21      CL       0.900000       12.0110           0
      2368 MEMB     7        POPE     O22      OBL     -0.630000       15.9994           0
      2369 MEMB     7        POPE     C22      CTL2    -0.220000       12.0110           0
      2370 MEMB     7        POPE     H2R      HAL2     0.900000E-01   1.00800           0
      2371 MEMB     7        POPE     H2S      HAL2     0.900000E-01   1.00800           0
      2372 MEMB     7        POPE     C3       CTL2     0.800000E-01   12.0110           0
      2373 MEMB     7        POPE     HX       HAL2     0.900000E-01   1.00800           0
      2374 MEMB     7        POPE     HY       HAL2     0.900000E-01   1.00800           0
      2375 MEMB     7        POPE     O31      OSL     -0.490000       15.9994           0
      2376 MEMB     7        POPE     C31      CL       0.900000       12.0110           0
      2377 MEMB     7        POPE     O32      OBL     -0.630000       15.9994           0
      2378 MEMB     7        POPE     C32      CTL2    -0.220000       12.0110           0
      2379 MEMB     7        POPE     H2X      HAL2     0.900000E-01   1.00800           0
      2380 MEMB     7        POPE     H2Y      HAL2     0.900000E-01   1.00800           0
      2381 MEMB     7        POPE     C23      CTL2    -0.180000       12.0110           0
      2382 MEMB     7        POPE     H3R      HAL2     0.900000E-01   1.00800           0
      2383 MEMB     7        POPE     H3S      HAL2     0.900000E-01   1.00800           0
      2384 MEMB     7        POPE     C24      CTL2    -0.180000       12.0110           0
      2385 MEMB     7        POPE     H4R      HAL2     0.900000E-01   1.00800           0
      2386 MEMB     7        POPE     H4S      HAL2     0.900000E-01   1.00800           0
      2387 MEMB     7        POPE     C25      CTL2    -0.180000       12.0110           0
      2388 MEMB     7        POPE     H5R      HAL2     0.900000E-01   1.00800           0
      2389 MEMB     7        POPE     H5S      HAL2     0.900000E-01   1.00800           0
      2390 MEMB     7        POPE     C26      CTL2    -0.180000       12.0110           0
      2391 MEMB     7        POPE     H6R      HAL2     0.900000E-01   1.00800           0
      2392 MEMB     7        POPE     H6S      HAL2     0.900000E-01   1.00800           0
      2393 MEMB     7        POPE     C27      CTL2    -0.180000       12.0110           0
      2394 MEMB     7        POPE     H7R      HAL2     0.900000E-01   1.00800           0
      2395 MEMB     7        POPE     H7S      HAL2     0.900000E-01   1.00800           0
      2396 MEMB     7        POPE     C28      CTL2    -0.180000       12.0110           0
      2397 MEMB     7        POPE     H8R      HAL2     0.900000E-01   1.00800           0
      2398 MEMB     7        POPE     H8S      HAL2     0.900000E-01   1.00800           0
      2399 MEMB     7        POPE     C29      CEL1    -0.150000       12.0110           0
      2400 MEMB     7        POPE     H91      HEL1     0.150000       1.00800           0
      2401 MEMB     7        POPE     C210     CEL1    -0.150000       12.0110           0
      2402 MEMB     7        POPE     H101     HEL1     0.150000       1.00800           0
      2403 MEMB     7        POPE     C211     CTL2    -0.180000       12.0110           0
      2404 MEMB     7        POPE     H11R     HAL2     0.900000E-01   1.00800           0
      2405 MEMB     7        POPE     H11S     HAL2     0.900000E-01   1.00800           0
      2406 MEMB     7        POPE     C212     CTL2    -0.180000       12.0110           0
      2407 MEMB     7        POPE     H12R     HAL2     0.900000E-01   1.00800           0
      2408 MEMB     7        POPE     H12S     HAL2     0.900000E-01   1.00800           0
      2409 MEMB     7        POPE     C213     CTL2    -0.180000       12.0110           0
      2410 MEMB     7        POPE     H13R     HAL2     0.900000E-01   1.00800           0
      2411 MEMB     7        POPE     H13S     HAL2     0.900000E-01   1.00800           0
      2412 MEMB     7        POPE     C214     CTL2    -0.180000       12.0110           0
      2413 MEMB     7        POPE     H14R     HAL2     0.900000E-01   1.00800           0
      2414 MEMB     7        POPE     H14S     HAL2     0.900000E-01   1.00800           0
      2415 MEMB     7        POPE     C215     CTL2    -0.180000       12.0110           0
      2416 MEMB     7        POPE     H15R     HAL2     0.900000E-01   1.00800           0
      2417 MEMB     7        POPE     H15S     HAL2     0.900000E-01   1.00800           0
      2418 MEMB     7        POPE     C216     CTL2    -0.180000       12.0110           0
      2419 MEMB     7        POPE     H16R     HAL2     0.900000E-01   1.00800           0
      2420 MEMB     7        POPE     H16S     HAL2     0.900000E-01   1.00800           0
      2421 MEMB     7        POPE     C217     CTL2    -0.180000       12.0110           0
      2422 MEMB     7        POPE     H17R     HAL2     0.900000E-01   1.00800           0
      2423 MEMB     7        POPE     H17S     HAL2     0.900000E-01   1.00800           0
      2424 MEMB     7        POPE     C218     CTL3    -0.270000       12.0110           0
      2425 MEMB     7        POPE     H18R     HAL3     0.900000E-01   1.00800           0
      2426 MEMB     7        POPE     H18S     HAL3     0.900000E-01   1.00800           0
      2427 MEMB     7        POPE     H18T     HAL3     0.900000E-01   1.00800           0
      2428 MEMB     7        POPE     C33      CTL2    -0.180000       12.0110           0
      2429 MEMB     7        POPE     H3X      HAL2     0.900000E-01   1.00800           0
      2430 MEMB     7        POPE     H3Y      HAL2     0.900000E-01   1.00800           0
      2431 MEMB     7        POPE     C34      CTL2    -0.180000       12.0110           0
      2432 MEMB     7        POPE     H4X      HAL2     0.900000E-01   1.00800           0
      2433 MEMB     7        POPE     H4Y      HAL2     0.900000E-01   1.00800           0
      2434 MEMB     7        POPE     C35      CTL2    -0.180000       12.0110           0
      2435 MEMB     7        POPE     H5X      HAL2     0.900000E-01   1.00800           0
      2436 MEMB     7        POPE     H5Y      HAL2     0.900000E-01   1.00800           0
      2437 MEMB     7        POPE     C36      CTL2    -0.180000       12.0110           0
      2438 MEMB     7        POPE     H6X      HAL2     0.900000E-01   1.00800           0
      2439 MEMB     7        POPE     H6Y      HAL2     0.900000E-01   1.00800           0
      2440 MEMB     7        POPE     C37      CTL2    -0.180000       12.0110           0
      2441 MEMB     7        POPE     H7X      HAL2     0.900000E-01   1.00800           0
      2442 MEMB     7        POPE     H7Y      HAL2     0.900000E-01   1.00800           0
      2443 MEMB     7        POPE     C38      CTL2    -0.180000       12.0110           0
      2444 MEMB     7        POPE     H8X      HAL2     0.900000E-01   1.00800           0
      2445 MEMB     7        POPE     H8Y      HAL2     0.900000E-01   1.00800           0
      2446 MEMB     7        POPE     C39      CTL2    -0.180000       12.0110           0
      2447 MEMB     7        POPE     H9X      HAL2     0.900000E-01   1.00800           0
      2448 MEMB     7        POPE     H9Y      HAL2     0.900000E-01   1.00800           0
      2449 MEMB     7        POPE     C310     CTL2    -0.180000       12.0110           0
      2450 MEMB     7        POPE     H10X     HAL2     0.900000E-01   1.00800           0
      2451 MEMB     7        POPE     H10Y     HAL2     0.900000E-01   1.00800           0
      2452 MEMB     7        POPE     C311     CTL2    -0.180000       12.0110           0
      2453 MEMB     7        POPE     H11X     HAL2     0.900000E-01   1.00800           0
      2454 MEMB     7        POPE     H11Y     HAL2     0.900000E-01   1.00800           0
      2455 MEMB     7        POPE     C312     CTL2    -0.180000       12.0110           0
      2456 MEMB     7        POPE     H12X     HAL2     0.900000E-01   1.00800           0
      2457 MEMB     7        POPE     H12Y     HAL2     0.900000E-01   1.00800           0
      2458 MEMB     7        POPE     C313     CTL2    -0.180000       12.0110           0
      2459 MEMB     7        POPE     H13X     HAL2     0.900000E-01   1.00800           0
      2460 MEMB     7        POPE     H13Y     HAL2     0.900000E-01   1.00800           0
      2461 MEMB     7        POPE     C314     CTL2    -0.180000       12.0110           0
      2462 MEMB     7        POPE     H14X     HAL2     0.900000E-01   1.00800           0
      2463 MEMB     7        POPE     H14Y     HAL2     0.900000E-01   1.00800           0
      2464 MEMB     7        POPE     C315     CTL2    -0.180000       12.0110           0
      2465 MEMB     7        POPE     H15X     HAL2     0.900000E-01   1.00800           0
      2466 MEMB     7        POPE     H15Y     HAL2     0.900000E-01   1.00800           0
      2467 MEMB     7        POPE     C316     CTL3    -0.270000       12.0110           0
      2468 MEMB     7        POPE     H16X     HAL3     0.900000E-01   1.00800           0
      2469 MEMB     7        POPE     H16Y     HAL3     0.900000E-01   1.00800           0
      2470 MEMB     7        POPE     H16Z     HAL3     0.900000E-01   1.00800           0
      2471 MEMB     10       POPE     N        NH3L    -0.300000       14.0070           0
      2472 MEMB     10       POPE     HN1      HCL      0.330000       1.00800           0
      2473 MEMB     10       POPE     HN2      HCL      0.330000       1.00800           0
      2474 MEMB     10       POPE     HN3      HCL      0.330000       1.00800           0
      2475 MEMB     10       POPE     C12      CTL2     0.130000       12.0110           0
      2476 MEMB     10       POPE     H12A     HAL2     0.900000E-01   1.00800           0
      2477 MEMB     10       POPE     H12B     HAL2     0.900000E-01   1.00800           0
      2478 MEMB     10       POPE     C11      CTL2    -0.800000E-01   12.0110           0
      2479 MEMB     10       POPE     H11A     HAL2     0.900000E-01   1.00800           0
      2480 MEMB     10       POPE     H11B     HAL2     0.900000E-01   1.00800           0
      2481 MEMB     10       POPE     P        PL       1.500000       30.9740           0
      2482 MEMB     10       POPE     O13      O2L     -0.780000       15.9994           0
      2483 MEMB     10       POPE     O14      O2L     -0.780000       15.9994           0
      2484 MEMB     10       POPE     O11      OSLP    -0.570000       15.9994           0
      2485 MEMB     10       POPE     O12      OSLP    -0.570000       15.9994           0
      2486 MEMB     10       POPE     C1       CTL2    -0.800000E-01   12.0110           0
      2487 MEMB     10       POPE     HA       HAL2     0.900000E-01   1.00800           0
      2488 MEMB     10       POPE     HB       HAL2     0.900000E-01   1.00800           0
      2489 MEMB     10       POPE     C2       CTL1     0.170000       12.0110           0
      2490 MEMB     10       POPE     HS       HAL1     0.900000E-01   1.00800           0
      2491 MEMB     10       POPE     O21      OSL     -0.490000       15.9994           0
      2492 MEMB     10       POPE     C21      CL       0.900000       12.0110           0
      2493 MEMB     10       POPE     O22      OBL     -0.630000       15.9994           0
      2494 MEMB     10       POPE     C22      CTL2    -0.220000       12.0110           0
      2495 MEMB     10       POPE     H2R      HAL2     0.900000E-01   1.00800           0
      2496 MEMB     10       POPE     H2S      HAL2     0.900000E-01   1.00800           0
      2497 MEMB     10       POPE     C3       CTL2     0.800000E-01   12.0110           0
      2498 MEMB     10       POPE     HX       HAL2     0.900000E-01   1.00800           0
      2499 MEMB     10       POPE     HY       HAL2     0.900000E-01   1.00800           0
      2500 MEMB     10       POPE     O31      OSL     -0.490000       15.9994           0
      2501 MEMB     10       POPE     C31      CL       0.900000       12.0110           0
      2502 MEMB     10       POPE     O32      OBL     -0.630000       15.9994           0
      2503 MEMB     10       POPE     C32      CTL2    -0.220000       12.0110           0
      2504 MEMB     10       POPE     H2X      HAL2     0.900000E-01   1.00800           0
      2505 MEMB     10       POPE     H2Y      HAL2     0.900000E-01   1.00800           0
      2506 MEMB     10       POPE     C23      CTL2    -0.180000       12.0110           0
      2507 MEMB     10       POPE     H3R      HAL2     0.900000E-01   1.00800           0
      2508 MEMB     10       POPE     H3S      HAL2     0.900000E-01   1.00800           0
      2509 MEMB     10       POPE     C24      CTL2    -0.180000       12.0110           0
      2510 MEMB     10       POPE     H4R      HAL2     0.900000E-01   1.00800           0
      2511 MEMB     10       POPE     H4S      HAL2     0.900000E-01   1.00800           0
      2512 MEMB     10       POPE     C25      CTL2    -0.180000       12.0110           0
      2513 MEMB     10       POPE     H5R      HAL2     0.900000E-01   1.00800           0
      2514 MEMB     10       POPE     H5S      HAL2     0.900000E-01   1.00800           0
      2515 MEMB     10       POPE     C26      CTL2    -0.180000       12.0110           0
      2516 MEMB     10       POPE     H6R      HAL2     0.900000E-01   1.00800           0
      2517 MEMB     10       POPE     H6S      HAL2     0.900000E-01   1.00800           0
      2518 MEMB     10       POPE     C27      CTL2    -0.180000       12.0110           0
      2519 MEMB     10       POPE     H7R      HAL2     0.900000E-01   1.00800           0
      2520 MEMB     10       POPE     H7S      HAL2     0.900000E-01   1.00800           0
      2521 MEMB     10       POPE     C28      CTL2    -0.180000       12.0110           0
      2522 MEMB     10       POPE     H8R      HAL2     0.900000E-01   1.00800           0
      2523 MEMB     10       POPE     H8S      HAL2     0.900000E-01   1.00800           0
      2524 MEMB     10       POPE     C29      CEL1    -0.150000       12.0110           0
      2525 MEMB     10       POPE     H91      HEL1     0.150000       1.00800           0
      2526 MEMB     10       POPE     C210     CEL1    -0.150000       12.0110           0
      2527 MEMB     10       POPE     H101     HEL1     0.150000       1.00800           0
      2528 MEMB     10       POPE     C211     CTL2    -0.180000       12.0110           0
      2529 MEMB     10       POPE     H11R     HAL2     0.900000E-01   1.00800           0
      2530 MEMB     10       POPE     H11S     HAL2     0.900000E-01   1.00800           0
      2531 MEMB     10       POPE     C212     CTL2    -0.180000       12.0110           0
      2532 MEMB     10       POPE     H12R     HAL2     0.900000E-01   1.00800           0
      2533 MEMB     10       POPE     H12S     HAL2     0.900000E-01   1.00800           0
      2534 MEMB     10       POPE     C213     CTL2    -0.180000       12.0110           0
      2535 MEMB     10       POPE     H13R     HAL2     0.900000E-01   1.00800           0
      2536 MEMB     10       POPE     H13S     HAL2     0.900000E-01   1.00800           0
      2537 MEMB     10       POPE     C214     CTL2    -0.180000       12.0110           0
      2538 MEMB     10       POPE     H14R     HAL2     0.900000E-01   1.00800           0
      2539 MEMB     10       POPE     H14S     HAL2     0.900000E-01   1.00800           0
      2540 MEMB     10       POPE     C215     CTL2    -0.180000       12.0110           0
      2541 MEMB     10       POPE     H15R     HAL2     0.900000E-01   1.00800           0
      2542 MEMB     10       POPE     H15S     HAL2     0.900000E-01   1.00800           0
      2543 MEMB     10       POPE     C216     CTL2    -0.180000       12.0110           0
      2544 MEMB     10       POPE     H16R     HAL2     0.900000E-01   1.00800           0
      2545 MEMB     10       POPE     H16S     HAL2     0.900000E-01   1.00800           0
      2546 MEMB     10       POPE     C217     CTL2    -0.180000       12.0110           0
      2547 MEMB     10       POPE     H17R     HAL2     0.900000E-01   1.00800           0
      2548 MEMB     10       POPE     H17S     HAL2     0.900000E-01   1.00800           0
      2549 MEMB     10       POPE     C218     CTL3    -0.270000       12.0110           0
      2550 MEMB     10       POPE     H18R     HAL3     0.900000E-01   1.00800           0
      2551 MEMB     10       POPE     H18S     HAL3     0.900000E-01   1.00800           0
      2552 MEMB     10       POPE     H18T     HAL3     0.900000E-01   1.00800           0
      2553 MEMB     10       POPE     C33      CTL2    -0.180000       12.0110           0
      2554 MEMB     10       POPE     H3X      HAL2     0.900000E-01   1.00800           0
      2555 MEMB     10       POPE     H3Y      HAL2     0.900000E-01   1.00800           0
      2556 MEMB     10       POPE     C34      CTL2    -0.180000       12.0110           0
      2557 MEMB     10       POPE     H4X      HAL2     0.900000E-01   1.00800           0
      2558 MEMB     10       POPE     H4Y      HAL2     0.900000E-01   1.00800           0
      2559 MEMB     10       POPE     C35      CTL2    -0.180000       12.0110           0
      2560 MEMB     10       POPE     H5X      HAL2     0.900000E-01   1.00800           0
      2561 MEMB     10       POPE     H5Y      HAL2     0.900000E-01   1.00800           0
      2562 MEMB     10       POPE     C36      CTL2    -0.180000       12.0110           0
      2563 MEMB     10       POPE     H6X      HAL2     0.900000E-01   1.00800           0
      2564 MEMB     10       POPE     H6Y      HAL2     0.900000E-01   1.00800           0
      2565 MEMB     10       POPE     C37      CTL2    -0.180000       12.0110           0
      2566 MEMB     10       POPE     H7X      HAL2     0.900000E-01   1.00800           0
      2567 MEMB     10       POPE     H7Y      HAL2     0.900000E-01   1.00800           0
      2568 MEMB     10       POPE     C38      CTL2    -0.180000       12.0110           0
      2569 MEMB     10       POPE     H8X      HAL2     0.900000E-01   1.00800           0
      2570 MEMB     10       POPE     H8Y      HAL2     0.900000E-01   1.00800           0
      2571 MEMB     10       POPE     C39      CTL2    -0.180000       12.0110           0
      2572 MEMB     10       POPE     H9X      HAL2     0.900000E-01   1.00800           0
      2573 MEMB     10       POPE     H9Y      HAL2     0.900000E-01   1.00800           0
      2574 MEMB     10       POPE     C310     CTL2    -0.180000       12.0110           0
      2575 MEMB     10       POPE     H10X     HAL2     0.900000E-01   1.00800           0
      2576 MEMB     10       POPE     H10Y     HAL2     0.900000E-01   1.00800           0
      2577 MEMB     10       POPE     C311     CTL2    -0.180000       12.0110           0
      2578 MEMB     10       POPE     H11X     HAL2     0.900000E-01   1.00800           0
      2579 MEMB     10       POPE     H11Y     HAL2     0.900000E-01   1.00800           0
      2580 MEMB     10       POPE     C312     CTL2    -0.180000       12.0110           0
      2581 MEMB     10       POPE     H12X     HAL2     0.900000E-01   1.00800           0
      2582 MEMB     10       POPE     H12Y     HAL2     0.900000E-01   1.00800           0
      2583 MEMB     10       POPE     C313     CTL2    -0.180000       12.0110           0
      2584 MEMB     10       POPE     H13X     HAL2     0.900000E-01   1.00800           0
      2585 MEMB     10       POPE     H13Y     HAL2     0.900000E-01   1.00800           0
      2586 MEMB     10       POPE     C314     CTL2    -0.180000       12.0110           0
      2587 MEMB     10       POPE     H14X     HAL2     0.900000E-01   1.00800           0
      2588 MEMB     10       POPE     H14Y     HAL2     0.900000E-01   1.00800           0
      2589 MEMB     10       POPE     C315     CTL2    -0.180000       12.0110           0
      2590 MEMB     10       POPE     H15X     HAL2     0.900000E-01   1.00800           0
      2591 MEMB     10       POPE     H15Y     HAL2     0.900000E-01   1.00800           0
      2592 MEMB     10       POPE     C316     CTL3    -0.270000       12.0110           0
      2593 MEMB     10       POPE     H16X     HAL3     0.900000E-01   1.00800           0
      2594 MEMB     10       POPE     H16Y     HAL3     0.900000E-01   1.00800           0
      2595 MEMB     10       POPE     H16Z     HAL3     0.900000E-01   1.00800           0
      2596 MEMB     18       POPE     N        NH3L    -0.300000       14.0070           0
      2597 MEMB     18       POPE     HN1      HCL      0.330000       1.00800           0
      2598 MEMB     18       POPE     HN2      HCL      0.330000       1.00800           0
      2599 MEMB     18       POPE     HN3      HCL      0.330000       1.00800           0
      2600 MEMB     18       POPE     C12      CTL2     0.130000       12.0110           0
      2601 MEMB     18       POPE     H12A     HAL2     0.900000E-01   1.00800           0
      2602 MEMB     18       POPE     H12B     HAL2     0.900000E-01   1.00800           0
      2603 MEMB     18       POPE     C11      CTL2    -0.800000E-01   12.0110           0
      2604 MEMB     18       POPE     H11A     HAL2     0.900000E-01   1.00800           0
      2605 MEMB     18       POPE     H11B     HAL2     0.900000E-01   1.00800           0
      2606 MEMB     18       POPE     P        PL       1.500000       30.9740           0
      2607 MEMB     18       POPE     O13      O2L     -0.780000       15.9994           0
      2608 MEMB     18       POPE     O14      O2L     -0.780000       15.9994           0
      2609 MEMB     18       POPE     O11      OSLP    -0.570000       15.9994           0
      2610 MEMB     18       POPE     O12      OSLP    -0.570000       15.9994           0
      2611 MEMB     18       POPE     C1       CTL2    -0.800000E-01   12.0110           0
      2612 MEMB     18       POPE     HA       HAL2     0.900000E-01   1.00800           0
      2613 MEMB     18       POPE     HB       HAL2     0.900000E-01   1.00800           0
      2614 MEMB     18       POPE     C2       CTL1     0.170000       12.0110           0
      2615 MEMB     18       POPE     HS       HAL1     0.900000E-01   1.00800           0
      2616 MEMB     18       POPE     O21      OSL     -0.490000       15.9994           0
      2617 MEMB     18       POPE     C21      CL       0.900000       12.0110           0
      2618 MEMB     18       POPE     O22      OBL     -0.630000       15.9994           0
      2619 MEMB     18       POPE     C22      CTL2    -0.220000       12.0110           0
      2620 MEMB     18       POPE     H2R      HAL2     0.900000E-01   1.00800           0
      2621 MEMB     18       POPE     H2S      HAL2     0.900000E-01   1.00800           0
      2622 MEMB     18       POPE     C3       CTL2     0.800000E-01   12.0110           0
      2623 MEMB     18       POPE     HX       HAL2     0.900000E-01   1.00800           0
      2624 MEMB     18       POPE     HY       HAL2     0.900000E-01   1.00800           0
      2625 MEMB     18       POPE     O31      OSL     -0.490000       15.9994           0
      2626 MEMB     18       POPE     C31      CL       0.900000       12.0110           0
      2627 MEMB     18       POPE     O32      OBL     -0.630000       15.9994           0
      2628 MEMB     18       POPE     C32      CTL2    -0.220000       12.0110           0
      2629 MEMB     18       POPE     H2X      HAL2     0.900000E-01   1.00800           0
      2630 MEMB     18       POPE     H2Y      HAL2     0.900000E-01   1.00800           0
      2631 MEMB     18       POPE     C23      CTL2    -0.180000       12.0110           0
      2632 MEMB     18       POPE     H3R      HAL2     0.900000E-01   1.00800           0
      2633 MEMB     18       POPE     H3S      HAL2     0.900000E-01   1.00800           0
      2634 MEMB     18       POPE     C24      CTL2    -0.180000       12.0110           0
      2635 MEMB     18       POPE     H4R      HAL2     0.900000E-01   1.00800           0
      2636 MEMB     18       POPE     H4S      HAL2     0.900000E-01   1.00800           0
      2637 MEMB     18       POPE     C25      CTL2    -0.180000       12.0110           0
      2638 MEMB     18       POPE     H5R      HAL2     0.900000E-01   1.00800           0
      2639 MEMB     18       POPE     H5S      HAL2     0.900000E-01   1.00800           0
      2640 MEMB     18       POPE     C26      CTL2    -0.180000       12.0110           0
      2641 MEMB     18       POPE     H6R      HAL2     0.900000E-01   1.00800           0
      2642 MEMB     18       POPE     H6S      HAL2     0.900000E-01   1.00800           0
      2643 MEMB     18       POPE     C27      CTL2    -0.180000       12.0110           0
      2644 MEMB     18       POPE     H7R      HAL2     0.900000E-01   1.00800           0
      2645 MEMB     18       POPE     H7S      HAL2     0.900000E-01   1.00800           0
      2646 MEMB     18       POPE     C28      CTL2    -0.180000       12.0110           0
      2647 MEMB     18       POPE     H8R      HAL2     0.900000E-01   1.00800           0
      2648 MEMB     18       POPE     H8S      HAL2     0.900000E-01   1.00800           0
      2649 MEMB     18       POPE     C29      CEL1    -0.150000       12.0110           0
      2650 MEMB     18       POPE     H91      HEL1     0.150000       1.00800           0
      2651 MEMB     18       POPE     C210     CEL1    -0.150000       12.0110           0
      2652 MEMB     18       POPE     H101     HEL1     0.150000       1.00800           0
      2653 MEMB     18       POPE     C211     CTL2    -0.180000       12.0110           0
      2654 MEMB     18       POPE     H11R     HAL2     0.900000E-01   1.00800           0
      2655 MEMB     18       POPE     H11S     HAL2     0.900000E-01   1.00800           0
      2656 MEMB     18       POPE     C212     CTL2    -0.180000       12.0110           0
      2657 MEMB     18       POPE     H12R     HAL2     0.900000E-01   1.00800           0
      2658 MEMB     18       POPE     H12S     HAL2     0.900000E-01   1.00800           0
      2659 MEMB     18       POPE     C213     CTL2    -0.180000       12.0110           0
      2660 MEMB     18       POPE     H13R     HAL2     0.900000E-01   1.00800           0
      2661 MEMB     18       POPE     H13S     HAL2     0.900000E-01   1.00800           0
      2662 MEMB     18       POPE     C214     CTL2    -0.180000       12.0110           0
      2663 MEMB     18       POPE     H14R     HAL2     0.900000E-01   1.00800           0
      2664 MEMB     18       POPE     H14S     HAL2     0.900000E-01   1.00800           0
      2665 MEMB     18       POPE     C215     CTL2    -0.180000       12.0110           0
      2666 MEMB     18       POPE     H15R     HAL2     0.900000E-01   1.00800           0
      2667 MEMB     18       POPE     H15S     HAL2     0.900000E-01   1.00800           0
      2668 MEMB     18       POPE     C216     CTL2    -0.180000       12.0110           0
      2669 MEMB     18       POPE     H16R     HAL2     0.900000E-01   1.00800           0
      2670 MEMB     18       POPE     H16S     HAL2     0.900000E-01   1.00800           0
      2671 MEMB     18       POPE     C217     CTL2    -0.180000       12.0110           0
      2672 MEMB     18       POPE     H17R     HAL2     0.900000E-01   1.00800           0
      2673 MEMB     18       POPE     H17S     HAL2     0.900000E-01   1.00800           0
      2674 MEMB     18       POPE     C218     CTL3    -0.270000       12.0110           0
      2675 MEMB     18       POPE     H18R     HAL3     0.900000E-01   1.00800           0
      2676 MEMB     18       POPE     H18S     HAL3     0.900000E-01   1.00800           0
      2677 MEMB     18       POPE     H18T     HAL3     0.900000E-01   1.00800           0
      2678 MEMB     18       POPE     C33      CTL2    -0.180000       12.0110           0
      2679 MEMB     18       POPE     H3X      HAL2     0.900000E-01   1.00800           0
      2680 MEMB     18       POPE     H3Y      HAL2     0.900000E-01   1.00800           0
      2681 MEMB     18       POPE     C34      CTL2    -0.180000       12.0110           0
      2682 MEMB     18       POPE     H4X      HAL2     0.900000E-01   1.00800           0
      2683 MEMB     18       POPE     H4Y      HAL2     0.900000E-01   1.00800           0
      2684 MEMB     18       POPE     C35      CTL2    -0.180000       12.0110           0
      2685 MEMB     18       POPE     H5X      HAL2     0.900000E-01   1.00800           0
      2686 MEMB     18       POPE     H5Y      HAL2     0.900000E-01   1.00800           0
      2687 MEMB     18       POPE     C36      CTL2    -0.180000       12.0110           0
      2688 MEMB     18       POPE     H6X      HAL2     0.900000E-01   1.00800           0
      2689 MEMB     18       POPE     H6Y      HAL2     0.900000E-01   1.00800           0
      2690 MEMB     18       POPE     C37      CTL2    -0.180000       12.0110           0
      2691 MEMB     18       POPE     H7X      HAL2     0.900000E-01   1.00800           0
      2692 MEMB     18       POPE     H7Y      HAL2     0.900000E-01   1.00800           0
      2693 MEMB     18       POPE     C38      CTL2    -0.180000       12.0110           0
      2694 MEMB     18       POPE     H8X      HAL2     0.900000E-01   1.00800           0
      2695 MEMB     18       POPE     H8Y      HAL2     0.900000E-01   1.00800           0
      2696 MEMB     18       POPE     C39      CTL2    -0.180000       12.0110           0
      2697 MEMB     18       POPE     H9X      HAL2     0.900000E-01   1.00800           0
      2698 MEMB     18       POPE     H9Y      HAL2     0.900000E-01   1.00800           0
      2699 MEMB     18       POPE     C310     CTL2    -0.180000       12.0110           0
      2700 MEMB     18       POPE     H10X     HAL2     0.900000E-01   1.00800           0
      2701 MEMB     18       POPE     H10Y     HAL2     0.900000E-01   1.00800           0
      2702 MEMB     18       POPE     C311     CTL2    -0.180000       12.0110           0
      2703 MEMB     18       POPE     H11X     HAL2     0.900000E-01   1.00800           0
      2704 MEMB     18       POPE     H11Y     HAL2     0.900000E-01   1.00800           0
      2705 MEMB     18       POPE     C312     CTL2    -0.180000       12.0110           0
      2706 MEMB     18       POPE     H12X     HAL2     0.900000E-01   1.00800           0
      2707 MEMB     18       POPE     H12Y     HAL2     0.900000E-01   1.00800           0
      2708 MEMB     18       POPE     C313     CTL2    -0.180000       12.0110           0
      2709 MEMB     18       POPE     H13X     HAL2     0.900000E-01   1.00800           0
      2710 MEMB     18       POPE     H13Y     HAL2     0.900000E-01   1.00800           0
      2711 MEMB     18       POPE     C314     CTL2    -0.180000       12.0110           0
      2712 MEMB     18       POPE     H14X     HAL2     0.900000E-01   1.00800           0
      2713 MEMB     18       POPE     H14Y     HAL2     0.900000E-01   1.00800           0
      2714 MEMB     18       POPE     C315     CTL2    -0.180000       12.0110           0
      2715 MEMB     18       POPE     H15X     HAL2     0.900000E-01   1.00800           0
      2716 MEMB     18       POPE     H15Y     HAL2     0.900000E-01   1.00800           0
      2717 MEMB     18       POPE     C316     CTL3    -0.270000       12.0110           0
      2718 MEMB     18       POPE     H16X     HAL3     0.900000E-01   1.00800           0
      2719 MEMB     18       POPE     H16Y     HAL3     0.900000E-01   1.00800           0
      2720 MEMB     18       POPE     H16Z     HAL3     0.900000E-01   1.00800           0
      2721 MEMB     21       POPE     N        NH3L    -0.300000       14.0070           0
      2722 MEMB     21       POPE     HN1      HCL      0.330000       1.00800           0
      2723 MEMB     21       POPE     HN2      HCL      0.330000       1.00800           0
      2724 MEMB     21       POPE     HN3      HCL      0.330000       1.00800           0
      2725 MEMB     21       POPE     C12      CTL2     0.130000       12.0110           0
      2726 MEMB     21       POPE     H12A     HAL2     0.900000E-01   1.00800           0
      2727 MEMB     21       POPE     H12B     HAL2     0.900000E-01   1.00800           0
      2728 MEMB     21       POPE     C11      CTL2    -0.800000E-01   12.0110           0
      2729 MEMB     21       POPE     H11A     HAL2     0.900000E-01   1.00800           0
      2730 MEMB     21       POPE     H11B     HAL2     0.900000E-01   1.00800           0
      2731 MEMB     21       POPE     P        PL       1.500000       30.9740           0
      2732 MEMB     21       POPE     O13      O2L     -0.780000       15.9994           0
      2733 MEMB     21       POPE     O14      O2L     -0.780000       15.9994           0
      2734 MEMB     21       POPE     O11      OSLP    -0.570000       15.9994           0
      2735 MEMB     21       POPE     O12      OSLP    -0.570000       15.9994           0
      2736 MEMB     21       POPE     C1       CTL2    -0.800000E-01   12.0110           0
      2737 MEMB     21       POPE     HA       HAL2     0.900000E-01   1.00800           0
      2738 MEMB     21       POPE     HB       HAL2     0.900000E-01   1.00800           0
      2739 MEMB     21       POPE     C2       CTL1     0.170000       12.0110           0
      2740 MEMB     21       POPE     HS       HAL1     0.900000E-01   1.00800           0
      2741 MEMB     21       POPE     O21      OSL     -0.490000       15.9994           0
      2742 MEMB     21       POPE     C21      CL       0.900000       12.0110           0
      2743 MEMB     21       POPE     O22      OBL     -0.630000       15.9994           0
      2744 MEMB     21       POPE     C22      CTL2    -0.220000       12.0110           0
      2745 MEMB     21       POPE     H2R      HAL2     0.900000E-01   1.00800           0
      2746 MEMB     21       POPE     H2S      HAL2     0.900000E-01   1.00800           0
      2747 MEMB     21       POPE     C3       CTL2     0.800000E-01   12.0110           0
      2748 MEMB     21       POPE     HX       HAL2     0.900000E-01   1.00800           0
      2749 MEMB     21       POPE     HY       HAL2     0.900000E-01   1.00800           0
      2750 MEMB     21       POPE     O31      OSL     -0.490000       15.9994           0
      2751 MEMB     21       POPE     C31      CL       0.900000       12.0110           0
      2752 MEMB     21       POPE     O32      OBL     -0.630000       15.9994           0
      2753 MEMB     21       POPE     C32      CTL2    -0.220000       12.0110           0
      2754 MEMB     21       POPE     H2X      HAL2     0.900000E-01   1.00800           0
      2755 MEMB     21       POPE     H2Y      HAL2     0.900000E-01   1.00800           0
      2756 MEMB     21       POPE     C23      CTL2    -0.180000       12.0110           0
      2757 MEMB     21       POPE     H3R      HAL2     0.900000E-01   1.00800           0
      2758 MEMB     21       POPE     H3S      HAL2     0.900000E-01   1.00800           0
      2759 MEMB     21       POPE     C24      CTL2    -0.180000       12.0110           0
      2760 MEMB     21       POPE     H4R      HAL2     0.900000E-01   1.00800           0
      2761 MEMB     21       POPE     H4S      HAL2     0.900000E-01   1.00800           0
      2762 MEMB     21       POPE     C25      CTL2    -0.180000       12.0110           0
      2763 MEMB     21       POPE     H5R      HAL2     0.900000E-01   1.00800           0
      2764 MEMB     21       POPE     H5S      HAL2     0.900000E-01   1.00800           0
      2765 MEMB     21       POPE     C26      CTL2    -0.180000       12.0110           0
      2766 MEMB     21       POPE     H6R      HAL2     0.900000E-01   1.00800           0
      2767 MEMB     21       POPE     H6S      HAL2     0.900000E-01   1.00800           0
      2768 MEMB     21       POPE     C27      CTL2    -0.180000       12.0110           0
      2769 MEMB     21       POPE     H7R      HAL2     0.900000E-01   1.00800           0
      2770 MEMB     21       POPE     H7S      HAL2     0.900000E-01   1.00800           0
      2771 MEMB     21       POPE     C28      CTL2    -0.180000       12.0110           0
      2772 MEMB     21       POPE     H8R      HAL2     0.900000E-01   1.00800           0
      2773 MEMB     21       POPE     H8S      HAL2     0.900000E-01   1.00800           0
      2774 MEMB     21       POPE     C29      CEL1    -0.150000       12.0110           0
      2775 MEMB     21       POPE     H91      HEL1     0.150000       1.00800           0
      2776 MEMB     21       POPE     C210     CEL1    -0.150000       12.0110           0
      2777 MEMB     21       POPE     H101     HEL1     0.150000       1.00800           0
      2778 MEMB     21       POPE     C211     CTL2    -0.180000       12.0110           0
      2779 MEMB     21       POPE     H11R     HAL2     0.900000E-01   1.00800           0
      2780 MEMB     21       POPE     H11S     HAL2     0.900000E-01   1.00800           0
      2781 MEMB     21       POPE     C212     CTL2    -0.180000       12.0110           0
      2782 MEMB     21       POPE     H12R     HAL2     0.900000E-01   1.00800           0
      2783 MEMB     21       POPE     H12S     HAL2     0.900000E-01   1.00800           0
      2784 MEMB     21       POPE     C213     CTL2    -0.180000       12.0110           0
      2785 MEMB     21       POPE     H13R     HAL2     0.900000E-01   1.00800           0
      2786 MEMB     21       POPE     H13S     HAL2     0.900000E-01   1.00800           0
      2787 MEMB     21       POPE     C214     CTL2    -0.180000       12.0110           0
      2788 MEMB     21       POPE     H14R     HAL2     0.900000E-01   1.00800           0
      2789 MEMB     21       POPE     H14S     HAL2     0.900000E-01   1.00800           0
      2790 MEMB     21       POPE     C215     CTL2    -0.180000       12.0110           0
      2791 MEMB     21       POPE     H15R     HAL2     0.900000E-01   1.00800           0
      2792 MEMB     21       POPE     H15S     HAL2     0.900000E-01   1.00800           0
      2793 MEMB     21       POPE     C216     CTL2    -0.180000       12.0110           0
      2794 MEMB     21       POPE     H16R     HAL2     0.900000E-01   1.00800           0
      2795 MEMB     21       POPE     H16S     HAL2     0.900000E-01   1.00800           0
      2796 MEMB     21       POPE     C217     CTL2    -0.180000       12.0110           0
      2797 MEMB     21       POPE     H17R     HAL2     0.900000E-01   1.00800           0
      2798 MEMB     21       POPE     H17S     HAL2     0.900000E-01   1.00800           0
      2799 MEMB     21       POPE     C218     CTL3    -0.270000       12.0110           0
      2800 MEMB     21       POPE     H18R     HAL3     0.900000E-01   1.00800           0
      2801 MEMB     21       POPE     H18S     HAL3     0.900000E-01   1.00800           0
      2802 MEMB     21       POPE     H18T     HAL3     0.900000E-01   1.00800           0
      2803 MEMB     21       POPE     C33      CTL2    -0.180000       12.0110           0
      2804 MEMB     21       POPE     H3X      HAL2     0.900000E-01   1.00800           0
      2805 MEMB     21       POPE     H3Y      HAL2     0.900000E-01   1.00800           0
      2806 MEMB     21       POPE     C34      CTL2    -0.180000       12.0110           0
      2807 MEMB     21       POPE     H4X      HAL2     0.900000E-01   1.00800           0
      2808 MEMB     21       POPE     H4Y      HAL2     0.900000E-01   1.00800           0
      2809 MEMB     21       POPE     C35      CTL2    -0.180000       12.0110           0
      2810 MEMB     21       POPE     H5X      HAL2     0.900000E-01   1.00800           0
      2811 MEMB     21       POPE     H5Y      HAL2     0.900000E-01   1.00800           0
      2812 MEMB     21       POPE     C36      CTL2    -0.180000       12.0110           0
      2813 MEMB     21       POPE     H6X      HAL2     0.900000E-01   1.00800           0
      2814 MEMB     21       POPE     H6Y      HAL2     0.900000E-01   1.00800           0
      2815 MEMB     21       POPE     C37      CTL2    -0.180000       12.0110           0
      2816 MEMB     21       POPE     H7X      HAL2     0.900000E-01   1.00800           0
      2817 MEMB     21       POPE     H7Y      HAL2     0.900000E-01   1.00800           0
      2818 MEMB     21       POPE     C38      CTL2    -0.180000       12.0110           0
      2819 MEMB     21       POPE     H8X      HAL2     0.900000E-01   1.00800           0
      2820 MEMB     21       POPE     H8Y      HAL2     0.900000E-01   1.00800           0
      2821 MEMB     21       POPE     C39      CTL2    -0.180000       12.0110           0
      2822 MEMB     21       POPE     H9X      HAL2     0.900000E-01   1.00800           0
      2823 MEMB     21       POPE     H9Y      HAL2     0.900000E-01   1.00800           0
      2824 MEMB     21       POPE     C310     CTL2    -0.180000       12.0110           0
      2825 MEMB     21       POPE     H10X     HAL2     0.900000E-01   1.00800           0
      2826 MEMB     21       POPE     H10Y     HAL2     0.900000E-01   1.00800           0
      2827 MEMB     21       POPE     C311     CTL2    -0.180000       12.0110           0
      2828 MEMB     21       POPE     H11X     HAL2     0.900000E-01   1.00800           0
      2829 MEMB     21       POPE     H11Y     HAL2     0.900000E-01   1.00800           0
      2830 MEMB     21       POPE     C312     CTL2    -0.180000       12.0110           0
      2831 MEMB     21       POPE     H12X     HAL2     0.900000E-01   1.00800           0
      2832 MEMB     21       POPE     H12Y     HAL2     0.900000E-01   1.00800           0
      2833 MEMB     21       POPE     C313     CTL2    -0.180000       12.0110           0
      2834 MEMB     21       POPE     H13X     HAL2     0.900000E-01   1.00800           0
      2835 MEMB     21       POPE     H13Y     HAL2     0.900000E-01   1.00800           0
      2836 MEMB     21       POPE     C314     CTL2    -0.180000       12.0110           0
      2837 MEMB     21       POPE     H14X     HAL2     0.900000E-01   1.00800           0
      2838 MEMB     21       POPE     H14Y     HAL2     0.900000E-01   1.00800           0
      2839 MEMB     21       POPE     C315     CTL2    -0.180000       12.0110           0
      2840 MEMB     21       POPE     H15X     HAL2     0.900000E-01   1.00800           0
      2841 MEMB     21       POPE     H15Y     HAL2     0.900000E-01   1.00800           0
      2842 MEMB     21       POPE     C316     CTL3    -0.270000       12.0110           0
      2843 MEMB     21       POPE     H16X     HAL3     0.900000E-01   1.00800           0
      2844 MEMB     21       POPE     H16Y     HAL3     0.900000E-01   1.00800           0
      2845 MEMB     21       POPE     H16Z     HAL3     0.900000E-01   1.00800           0
      2846 MEMB     26       POPE     N        NH3L    -0.300000       14.0070           0
      2847 MEMB     26       POPE     HN1      HCL      0.330000       1.00800           0
      2848 MEMB     26       POPE     HN2      HCL      0.330000       1.00800           0
      2849 MEMB     26       POPE     HN3      HCL      0.330000       1.00800           0
      2850 MEMB     26       POPE     C12      CTL2     0.130000       12.0110           0
      2851 MEMB     26       POPE     H12A     HAL2     0.900000E-01   1.00800           0
      2852 MEMB     26       POPE     H12B     HAL2     0.900000E-01   1.00800           0
      2853 MEMB     26       POPE     C11      CTL2    -0.800000E-01   12.0110           0
      2854 MEMB     26       POPE     H11A     HAL2     0.900000E-01   1.00800           0
      2855 MEMB     26       POPE     H11B     HAL2     0.900000E-01   1.00800           0
      2856 MEMB     26       POPE     P        PL       1.500000       30.9740           0
      2857 MEMB     26       POPE     O13      O2L     -0.780000       15.9994           0
      2858 MEMB     26       POPE     O14      O2L     -0.780000       15.9994           0
      2859 MEMB     26       POPE     O11      OSLP    -0.570000       15.9994           0
      2860 MEMB     26       POPE     O12      OSLP    -0.570000       15.9994           0
      2861 MEMB     26       POPE     C1       CTL2    -0.800000E-01   12.0110           0
      2862 MEMB     26       POPE     HA       HAL2     0.900000E-01   1.00800           0
      2863 MEMB     26       POPE     HB       HAL2     0.900000E-01   1.00800           0
      2864 MEMB     26       POPE     C2       CTL1     0.170000       12.0110           0
      2865 MEMB     26       POPE     HS       HAL1     0.900000E-01   1.00800           0
      2866 MEMB     26       POPE     O21      OSL     -0.490000       15.9994           0
      2867 MEMB     26       POPE     C21      CL       0.900000       12.0110           0
      2868 MEMB     26       POPE     O22      OBL     -0.630000       15.9994           0
      2869 MEMB     26       POPE     C22      CTL2    -0.220000       12.0110           0
      2870 MEMB     26       POPE     H2R      HAL2     0.900000E-01   1.00800           0
      2871 MEMB     26       POPE     H2S      HAL2     0.900000E-01   1.00800           0
      2872 MEMB     26       POPE     C3       CTL2     0.800000E-01   12.0110           0
      2873 MEMB     26       POPE     HX       HAL2     0.900000E-01   1.00800           0
      2874 MEMB     26       POPE     HY       HAL2     0.900000E-01   1.00800           0
      2875 MEMB     26       POPE     O31      OSL     -0.490000       15.9994           0
      2876 MEMB     26       POPE     C31      CL       0.900000       12.0110           0
      2877 MEMB     26       POPE     O32      OBL     -0.630000       15.9994           0
      2878 MEMB     26       POPE     C32      CTL2    -0.220000       12.0110           0
      2879 MEMB     26       POPE     H2X      HAL2     0.900000E-01   1.00800           0
      2880 MEMB     26       POPE     H2Y      HAL2     0.900000E-01   1.00800           0
      2881 MEMB     26       POPE     C23      CTL2    -0.180000       12.0110           0
      2882 MEMB     26       POPE     H3R      HAL2     0.900000E-01   1.00800           0
      2883 MEMB     26       POPE     H3S      HAL2     0.900000E-01   1.00800           0
      2884 MEMB     26       POPE     C24      CTL2    -0.180000       12.0110           0
      2885 MEMB     26       POPE     H4R      HAL2     0.900000E-01   1.00800           0
      2886 MEMB     26       POPE     H4S      HAL2     0.900000E-01   1.00800           0
      2887 MEMB     26       POPE     C25      CTL2    -0.180000       12.0110           0
      2888 MEMB     26       POPE     H5R      HAL2     0.900000E-01   1.00800           0
      2889 MEMB     26       POPE     H5S      HAL2     0.900000E-01   1.00800           0
      2890 MEMB     26       POPE     C26      CTL2    -0.180000       12.0110           0
      2891 MEMB     26       POPE     H6R      HAL2     0.900000E-01   1.00800           0
      2892 MEMB     26       POPE     H6S      HAL2     0.900000E-01   1.00800           0
      2893 MEMB     26       POPE     C27      CTL2    -0.180000       12.0110           0
      2894 MEMB     26       POPE     H7R      HAL2     0.900000E-01   1.00800           0
      2895 MEMB     26       POPE     H7S      HAL2     0.900000E-01   1.00800           0
      2896 MEMB     26       POPE     C28      CTL2    -0.180000       12.0110           0
      2897 MEMB     26       POPE     H8R      HAL2     0.900000E-01   1.00800           0
      2898 MEMB     26       POPE     H8S      HAL2     0.900000E-01   1.00800           0
      2899 MEMB     26       POPE     C29      CEL1    -0.150000       12.0110           0
      2900 MEMB     26       POPE     H91      HEL1     0.150000       1.00800           0
      2901 MEMB     26       POPE     C210     CEL1    -0.150000       12.0110           0
      2902 MEMB     26       POPE     H101     HEL1     0.150000       1.00800           0
      2903 MEMB     26       POPE     C211     CTL2    -0.180000       12.0110           0
      2904 MEMB     26       POPE     H11R     HAL2     0.900000E-01   1.00800           0
      2905 MEMB     26       POPE     H11S     HAL2     0.900000E-01   1.00800           0
      2906 MEMB     26       POPE     C212     CTL2    -0.180000       12.0110           0
      2907 MEMB     26       POPE     H12R     HAL2     0.900000E-01   1.00800           0
      2908 MEMB     26       POPE     H12S     HAL2     0.900000E-01   1.00800           0
      2909 MEMB     26       POPE     C213     CTL2    -0.180000       12.0110           0
      2910 MEMB     26       POPE     H13R     HAL2     0.900000E-01   1.00800           0
      2911 MEMB     26       POPE     H13S     HAL2     0.900000E-01   1.00800           0
      2912 MEMB     26       POPE     C214     CTL2    -0.180000       12.0110           0
      2913 MEMB     26       POPE     H14R     HAL2     0.900000E-01   1.00800           0
      2914 MEMB     26       POPE     H14S     HAL2     0.900000E-01   1.00800           0
      2915 MEMB     26       POPE     C215     CTL2    -0.180000       12.0110           0
      2916 MEMB     26       POPE     H15R     HAL2     0.900000E-01   1.00800           0
      2917 MEMB     26       POPE     H15S     HAL2     0.900000E-01   1.00800           0
      2918 MEMB     26       POPE     C216     CTL2    -0.180000       12.0110           0
      2919 MEMB     26       POPE     H16R     HAL2     0.900000E-01   1.00800           0
      2920 MEMB     26       POPE     H16S     HAL2     0.900000E-01   1.00800           0
      2921 MEMB     26       POPE     C217     CTL2    -0.180000       12.0110           0
      2922 MEMB     26       POPE     H17R     HAL2     0.900000E-01   1.00800           0
      2923 MEMB     26       POPE     H17S     HAL2     0.900000E-01   1.00800           0
      2924 MEMB     26       POPE     C218     CTL3    -0.270000       12.0110           0
      2925 MEMB     26       POPE     H18R     HAL3     0.900000E-01   1.00800           0
      2926 MEMB     26       POPE     H18S     HAL3     0.900000E-01   1.00800           0
      2927 MEMB     26       POPE     H18T     HAL3     0.900000E-01   1.00800           0
      2928 MEMB     26       POPE     C33      CTL2    -0.180000       12.0110           0
      2929 MEMB     26       POPE     H3X      HAL2     0.900000E-01   1.00800           0
      2930 MEMB     26       POPE     H3Y      HAL2     0.900000E-01   1.00800           0
      2931 MEMB     26       POPE     C34      CTL2    -0.180000       12.0110           0
      2932 MEMB     26       POPE     H4X      HAL2     0.900000E-01   1.00800           0
      2933 MEMB     26       POPE     H4Y      HAL2     0.900000E-01   1.00800           0
      2934 MEMB     26       POPE     C35      CTL2    -0.180000       12.0110           0
      2935 MEMB     26       POPE     H5X      HAL2     0.900000E-01   1.00800           0
      2936 MEMB     26       POPE     H5Y      HAL2     0.900000E-01   1.00800           0
      2937 MEMB     26       POPE     C36      CTL2    -0.180000       12.0110           0
      2938 MEMB     26       POPE     H6X      HAL2     0.900000E-01   1.00800           0
      2939 MEMB     26       POPE     H6Y      HAL2     0.900000E-01   1.00800           0
      2940 MEMB     26       POPE     C37      CTL2    -0.180000       12.0110           0
      2941 MEMB     26       POPE     H7X      HAL2     0.900000E-01   1.00800           0
      2942 MEMB     26       POPE     H7Y      HAL2     0.900000E-01   1.00800           0
      2943 MEMB     26       POPE     C38      CTL2    -0.180000       12.0110           0
      2944 MEMB     26       POPE     H8X      HAL2     0.900000E-01   1.00800           0
      2945 MEMB     26       POPE     H8Y      HAL2     0.900000E-01   1.00800           0
      2946 MEMB     26       POPE     C39      CTL2    -0.180000       12.0110           0
      2947 MEMB     26       POPE     H9X      HAL2     0.900000E-01   1.00800           0
      2948 MEMB     26       POPE     H9Y      HAL2     0.900000E-01   1.00800           0
      2949 MEMB     26       POPE     C310     CTL2    -0.180000       12.0110           0
      2950 MEMB     26       POPE     H10X     HAL2     0.900000E-01   1.00800           0
      2951 MEMB     26       POPE     H10Y     HAL2     0.900000E-01   1.00800           0
      2952 MEMB     26       POPE     C311     CTL2    -0.180000       12.0110           0
      2953 MEMB     26       POPE     H11X     HAL2     0.900000E-01   1.00800           0
      2954 MEMB     26       POPE     H11Y     HAL2     0.900000E-01   1.00800           0
      2955 MEMB     26       POPE     C312     CTL2    -0.180000       12.0110           0
      2956 MEMB     26       POPE     H12X     HAL2     0.900000E-01   1.00800           0
      2957 MEMB     26       POPE     H12Y     HAL2     0.900000E-01   1.00800           0
      2958 MEMB     26       POPE     C313     CTL2    -0.180000       12.0110           0
      2959 MEMB     26       POPE     H13X     HAL2     0.900000E-01   1.00800           0
      2960 MEMB     26       POPE     H13Y     HAL2     0.900000E-01   1.00800           0
      2961 MEMB     26       POPE     C314     CTL2    -0.180000       12.0110           0
      2962 MEMB     26       POPE     H14X     HAL2     0.900000E-01   1.00800           0
      2963 MEMB     26       POPE     H14Y     HAL2     0.900000E-01   1.00800           0
      2964 MEMB     26       POPE     C315     CTL2    -0.180000       12.0110           0
      2965 MEMB     26       POPE     H15X     HAL2     0.900000E-01   1.00800           0
      2966 MEMB     26       POPE     H15Y     HAL2     0.900000E-01   1.00800           0
      2967 MEMB     26       POPE     C316     CTL3    -0.270000       12.0110           0
      2968 MEMB     26       POPE     H16X     HAL3     0.900000E-01   1.00800           0
      2969 MEMB     26       POPE     H16Y     HAL3     0.900000E-01   1.00800           0
      2970 MEMB     26       POPE     H16Z     HAL3     0.900000E-01   1.00800           0
      2971 MEMB     31       POPE     N        NH3L    -0.300000       14.0070           0
      2972 MEMB     31       POPE     HN1      HCL      0.330000       1.00800           0
      2973 MEMB     31       POPE     HN2      HCL      0.330000       1.00800           0
      2974 MEMB     31       POPE     HN3      HCL      0.330000       1.00800           0
      2975 MEMB     31       POPE     C12      CTL2     0.130000       12.0110           0
      2976 MEMB     31       POPE     H12A     HAL2     0.900000E-01   1.00800           0
      2977 MEMB     31       POPE     H12B     HAL2     0.900000E-01   1.00800           0
      2978 MEMB     31       POPE     C11      CTL2    -0.800000E-01   12.0110           0
      2979 MEMB     31       POPE     H11A     HAL2     0.900000E-01   1.00800           0
      2980 MEMB     31       POPE     H11B     HAL2     0.900000E-01   1.00800           0
      2981 MEMB     31       POPE     P        PL       1.500000       30.9740           0
      2982 MEMB     31       POPE     O13      O2L     -0.780000       15.9994           0
      2983 MEMB     31       POPE     O14      O2L     -0.780000       15.9994           0
      2984 MEMB     31       POPE     O11      OSLP    -0.570000       15.9994           0
      2985 MEMB     31       POPE     O12      OSLP    -0.570000       15.9994           0
      2986 MEMB     31       POPE     C1       CTL2    -0.800000E-01   12.0110           0
      2987 MEMB     31       POPE     HA       HAL2     0.900000E-01   1.00800           0
      2988 MEMB     31       POPE     HB       HAL2     0.900000E-01   1.00800           0
      2989 MEMB     31       POPE     C2       CTL1     0.170000       12.0110           0
      2990 MEMB     31       POPE     HS       HAL1     0.900000E-01   1.00800           0
      2991 MEMB     31       POPE     O21      OSL     -0.490000       15.9994           0
      2992 MEMB     31       POPE     C21      CL       0.900000       12.0110           0
      2993 MEMB     31       POPE     O22      OBL     -0.630000       15.9994           0
      2994 MEMB     31       POPE     C22      CTL2    -0.220000       12.0110           0
      2995 MEMB     31       POPE     H2R      HAL2     0.900000E-01   1.00800           0
      2996 MEMB     31       POPE     H2S      HAL2     0.900000E-01   1.00800           0
      2997 MEMB     31       POPE     C3       CTL2     0.800000E-01   12.0110           0
      2998 MEMB     31       POPE     HX       HAL2     0.900000E-01   1.00800           0
      2999 MEMB     31       POPE     HY       HAL2     0.900000E-01   1.00800           0
      3000 MEMB     31       POPE     O31      OSL     -0.490000       15.9994           0
      3001 MEMB     31       POPE     C31      CL       0.900000       12.0110           0
      3002 MEMB     31       POPE     O32      OBL     -0.630000       15.9994           0
      3003 MEMB     31       POPE     C32      CTL2    -0.220000       12.0110           0
      3004 MEMB     31       POPE     H2X      HAL2     0.900000E-01   1.00800           0
      3005 MEMB     31       POPE     H2Y      HAL2     0.900000E-01   1.00800           0
      3006 MEMB     31       POPE     C23      CTL2    -0.180000       12.0110           0
      3007 MEMB     31       POPE     H3R      HAL2     0.900000E-01   1.00800           0
      3008 MEMB     31       POPE     H3S      HAL2     0.900000E-01   1.00800           0
      3009 MEMB     31       POPE     C24      CTL2    -0.180000       12.0110           0
      3010 MEMB     31       POPE     H4R      HAL2     0.900000E-01   1.00800           0
      3011 MEMB     31       POPE     H4S      HAL2     0.900000E-01   1.00800           0
      3012 MEMB     31       POPE     C25      CTL2    -0.180000       12.0110           0
      3013 MEMB     31       POPE     H5R      HAL2     0.900000E-01   1.00800           0
      3014 MEMB     31       POPE     H5S      HAL2     0.900000E-01   1.00800           0
      3015 MEMB     31       POPE     C26      CTL2    -0.180000       12.0110           0
      3016 MEMB     31       POPE     H6R      HAL2     0.900000E-01   1.00800           0
      3017 MEMB     31       POPE     H6S      HAL2     0.900000E-01   1.00800           0
      3018 MEMB     31       POPE     C27      CTL2    -0.180000       12.0110           0
      3019 MEMB     31       POPE     H7R      HAL2     0.900000E-01   1.00800           0
      3020 MEMB     31       POPE     H7S      HAL2     0.900000E-01   1.00800           0
      3021 MEMB     31       POPE     C28      CTL2    -0.180000       12.0110           0
      3022 MEMB     31       POPE     H8R      HAL2     0.900000E-01   1.00800           0
      3023 MEMB     31       POPE     H8S      HAL2     0.900000E-01   1.00800           0
      3024 MEMB     31       POPE     C29      CEL1    -0.150000       12.0110           0
      3025 MEMB     31       POPE     H91      HEL1     0.150000       1.00800           0
      3026 MEMB     31       POPE     C210     CEL1    -0.150000       12.0110           0
      3027 MEMB     31       POPE     H101     HEL1     0.150000       1.00800           0
      3028 MEMB     31       POPE     C211     CTL2    -0.180000       12.0110           0
      3029 MEMB     31       POPE     H11R     HAL2     0.900000E-01   1.00800           0
      3030 MEMB     31       POPE     H11S     HAL2     0.900000E-01   1.00800           0
      3031 MEMB     31       POPE     C212     CTL2    -0.180000       12.0110           0
      3032 MEMB     31       POPE     H12R     HAL2     0.900000E-01   1.00800           0
      3033 MEMB     31       POPE     H12S     HAL2     0.900000E-01   1.00800           0
      3034 MEMB     31       POPE     C213     CTL2    -0.180000       12.0110           0
      3035 MEMB     31       POPE     H13R     HAL2     0.900000E-01   1.00800           0
      3036 MEMB     31       POPE     H13S     HAL2     0.900000E-01   1.00800           0
      3037 MEMB     31       POPE     C214     CTL2    -0.180000       12.0110           0
      3038 MEMB     31       POPE     H14R     HAL2     0.900000E-01   1.00800           0
      3039 MEMB     31       POPE     H14S     HAL2     0.900000E-01   1.00800           0
      3040 MEMB     31       POPE     C215     CTL2    -0.180000       12.0110           0
      3041 MEMB     31       POPE     H15R     HAL2     0.900000E-01   1.00800           0
      3042 MEMB     31       POPE     H15S     HAL2     0.900000E-01   1.00800           0
      3043 MEMB     31       POPE     C216     CTL2    -0.180000       12.0110           0
      3044 MEMB     31       POPE     H16R     HAL2     0.900000E-01   1.00800           0
      3045 MEMB     31       POPE     H16S     HAL2     0.900000E-01   1.00800           0
      3046 MEMB     31       POPE     C217     CTL2    -0.180000       12.0110           0
      3047 MEMB     31       POPE     H17R     HAL2     0.900000E-01   1.00800           0
      3048 MEMB     31       POPE     H17S     HAL2     0.900000E-01   1.00800           0
      3049 MEMB     31       POPE     C218     CTL3    -0.270000       12.0110           0
      3050 MEMB     31       POPE     H18R     HAL3     0.900000E-01   1.00800           0
      3051 MEMB     31       POPE     H18S     HAL3     0.900000E-01   1.00800           0
      3052 MEMB     31       POPE     H18T     HAL3     0.900000E-01   1.00800           0
      3053 MEMB     31       POPE     C33      CTL2    -0.180000       12.0110           0
      3054 MEMB     31       POPE     H3X      HAL2     0.900000E-01   1.00800           0
      3055 MEMB     31       POPE     H3Y      HAL2     0.900000E-01   1.00800           0
      3056 MEMB     31       POPE     C34      CTL2    -0.180000       12.0110           0
      3057 MEMB     31       POPE     H4X      HAL2     0.900000E-01   1.00800           0
      3058 MEMB     31       POPE     H4Y      HAL2     0.900000E-01   1.00800           0
      3059 MEMB     31       POPE     C35      CTL2    -0.180000       12.0110           0
      3060 MEMB     31       POPE     H5X      HAL2     0.900000E-01   1.00800           0
      3061 MEMB     31       POPE     H5Y      HAL2     0.900000E-01   1.00800           0
      3062 MEMB     31       POPE     C36      CTL2    -0.180000       12.0110           0
      3063 MEMB     31       POPE     H6X      HAL2     0.900000E-01   1.00800           0
      3064 MEMB     31       POPE     H6Y      HAL2     0.900000E-01   1.00800           0
      3065 MEMB     31       POPE     C37      CTL2    -0.180000       12.0110           0
      3066 MEMB     31       POPE     H7X      HAL2     0.900000E-01   1.00800           0
      3067 MEMB     31       POPE     H7Y      HAL2     0.900000E-01   1.00800           0
      3068 MEMB     31       POPE     C38      CTL2    -0.180000       12.0110           0
      3069 MEMB     31       POPE     H8X      HAL2     0.900000E-01   1.00800           0
      3070 MEMB     31       POPE     H8Y      HAL2     0.900000E-01   1.00800           0
      3071 MEMB     31       POPE     C39      CTL2    -0.180000       12.0110           0
      3072 MEMB     31       POPE     H9X      HAL2     0.900000E-01   1.00800           0
      3073 MEMB     31       POPE     H9Y      HAL2     0.900000E-01   1.00800           0
      3074 MEMB     31       POPE     C310     CTL2    -0.180000       12.0110           0
      3075 MEMB     31       POPE     H10X     HAL2     0.900000E-01   1.00800           0
      3076 MEMB     31       POPE     H10Y     HAL2     0.900000E-01   1.00800           0
      3077 MEMB     31       POPE     C311     CTL2    -0.180000       12.0110           0
      3078 MEMB     31       POPE     H11X     HAL2     0.900000E-01   1.00800           0
      3079 MEMB     31       POPE     H11Y     HAL2     0.900000E-01   1.00800           0
      3080 MEMB     31       POPE     C312     CTL2    -0.180000       12.0110           0
      3081 MEMB     31       POPE     H12X     HAL2     0.900000E-01   1.00800           0
      3082 MEMB     31       POPE     H12Y     HAL2     0.900000E-01   1.00800           0
      3083 MEMB     31       POPE     C313     CTL2    -0.180000       12.0110           0
      3084 MEMB     31       POPE     H13X     HAL2     0.900000E-01   1.00800           0
      3085 MEMB     31       POPE     H13Y     HAL2     0.900000E-01   1.00800           0
      3086 MEMB     31       POPE     C314     CTL2    -0.180000       12.0110           0
      3087 MEMB     31       POPE     H14X     HAL2     0.900000E-01   1.00800           0
      3088 MEMB     31       POPE     H14Y     HAL2     0.900000E-01   1.00800           0
      3089 MEMB     31       POPE     C315     CTL2    -0.180000       12.0110           0
      3090 MEMB     31       POPE     H15X     HAL2     0.900000E-01   1.00800           0
      3091 MEMB     31       POPE     H15Y     HAL2     0.900000E-01   1.00800           0
      3092 MEMB     31       POPE     C316     CTL3    -0.270000       12.0110           0
      3093 MEMB     31       POPE     H16X     HAL3     0.900000E-01   1.00800           0
      3094 MEMB     31       POPE     H16Y     HAL3     0.900000E-01   1.00800           0
      3095 MEMB     31       POPE     H16Z     HAL3     0.900000E-01   1.00800           0
      3096 MEMB     33       POPE     N        NH3L    -0.300000       14.0070           0
      3097 MEMB     33       POPE     HN1      HCL      0.330000       1.00800           0
      3098 MEMB     33       POPE     HN2      HCL      0.330000       1.00800           0
      3099 MEMB     33       POPE     HN3      HCL      0.330000       1.00800           0
      3100 MEMB     33       POPE     C12      CTL2     0.130000       12.0110           0
      3101 MEMB     33       POPE     H12A     HAL2     0.900000E-01   1.00800           0
      3102 MEMB     33       POPE     H12B     HAL2     0.900000E-01   1.00800           0
      3103 MEMB     33       POPE     C11      CTL2    -0.800000E-01   12.0110           0
      3104 MEMB     33       POPE     H11A     HAL2     0.900000E-01   1.00800           0
      3105 MEMB     33       POPE     H11B     HAL2     0.900000E-01   1.00800           0
      3106 MEMB     33       POPE     P        PL       1.500000       30.9740           0
      3107 MEMB     33       POPE     O13      O2L     -0.780000       15.9994           0
      3108 MEMB     33       POPE     O14      O2L     -0.780000       15.9994           0
      3109 MEMB     33       POPE     O11      OSLP    -0.570000       15.9994           0
      3110 MEMB     33       POPE     O12      OSLP    -0.570000       15.9994           0
      3111 MEMB     33       POPE     C1       CTL2    -0.800000E-01   12.0110           0
      3112 MEMB     33       POPE     HA       HAL2     0.900000E-01   1.00800           0
      3113 MEMB     33       POPE     HB       HAL2     0.900000E-01   1.00800           0
      3114 MEMB     33       POPE     C2       CTL1     0.170000       12.0110           0
      3115 MEMB     33       POPE     HS       HAL1     0.900000E-01   1.00800           0
      3116 MEMB     33       POPE     O21      OSL     -0.490000       15.9994           0
      3117 MEMB     33       POPE     C21      CL       0.900000       12.0110           0
      3118 MEMB     33       POPE     O22      OBL     -0.630000       15.9994           0
      3119 MEMB     33       POPE     C22      CTL2    -0.220000       12.0110           0
      3120 MEMB     33       POPE     H2R      HAL2     0.900000E-01   1.00800           0
      3121 MEMB     33       POPE     H2S      HAL2     0.900000E-01   1.00800           0
      3122 MEMB     33       POPE     C3       CTL2     0.800000E-01   12.0110           0
      3123 MEMB     33       POPE     HX       HAL2     0.900000E-01   1.00800           0
      3124 MEMB     33       POPE     HY       HAL2     0.900000E-01   1.00800           0
      3125 MEMB     33       POPE     O31      OSL     -0.490000       15.9994           0
      3126 MEMB     33       POPE     C31      CL       0.900000       12.0110           0
      3127 MEMB     33       POPE     O32      OBL     -0.630000       15.9994           0
      3128 MEMB     33       POPE     C32      CTL2    -0.220000       12.0110           0
      3129 MEMB     33       POPE     H2X      HAL2     0.900000E-01   1.00800           0
      3130 MEMB     33       POPE     H2Y      HAL2     0.900000E-01   1.00800           0
      3131 MEMB     33       POPE     C23      CTL2    -0.180000       12.0110           0
      3132 MEMB     33       POPE     H3R      HAL2     0.900000E-01   1.00800           0
      3133 MEMB     33       POPE     H3S      HAL2     0.900000E-01   1.00800           0
      3134 MEMB     33       POPE     C24      CTL2    -0.180000       12.0110           0
      3135 MEMB     33       POPE     H4R      HAL2     0.900000E-01   1.00800           0
      3136 MEMB     33       POPE     H4S      HAL2     0.900000E-01   1.00800           0
      3137 MEMB     33       POPE     C25      CTL2    -0.180000       12.0110           0
      3138 MEMB     33       POPE     H5R      HAL2     0.900000E-01   1.00800           0
      3139 MEMB     33       POPE     H5S      HAL2     0.900000E-01   1.00800           0
      3140 MEMB     33       POPE     C26      CTL2    -0.180000       12.0110           0
      3141 MEMB     33       POPE     H6R      HAL2     0.900000E-01   1.00800           0
      3142 MEMB     33       POPE     H6S      HAL2     0.900000E-01   1.00800           0
      3143 MEMB     33       POPE     C27      CTL2    -0.180000       12.0110           0
      3144 MEMB     33       POPE     H7R      HAL2     0.900000E-01   1.00800           0
      3145 MEMB     33       POPE     H7S      HAL2     0.900000E-01   1.00800           0
      3146 MEMB     33       POPE     C28      CTL2    -0.180000       12.0110           0
      3147 MEMB     33       POPE     H8R      HAL2     0.900000E-01   1.00800           0
      3148 MEMB     33       POPE     H8S      HAL2     0.900000E-01   1.00800           0
      3149 MEMB     33       POPE     C29      CEL1    -0.150000       12.0110           0
      3150 MEMB     33       POPE     H91      HEL1     0.150000       1.00800           0
      3151 MEMB     33       POPE     C210     CEL1    -0.150000       12.0110           0
      3152 MEMB     33       POPE     H101     HEL1     0.150000       1.00800           0
      3153 MEMB     33       POPE     C211     CTL2    -0.180000       12.0110           0
      3154 MEMB     33       POPE     H11R     HAL2     0.900000E-01   1.00800           0
      3155 MEMB     33       POPE     H11S     HAL2     0.900000E-01   1.00800           0
      3156 MEMB     33       POPE     C212     CTL2    -0.180000       12.0110           0
      3157 MEMB     33       POPE     H12R     HAL2     0.900000E-01   1.00800           0
      3158 MEMB     33       POPE     H12S     HAL2     0.900000E-01   1.00800           0
      3159 MEMB     33       POPE     C213     CTL2    -0.180000       12.0110           0
      3160 MEMB     33       POPE     H13R     HAL2     0.900000E-01   1.00800           0
      3161 MEMB     33       POPE     H13S     HAL2     0.900000E-01   1.00800           0
      3162 MEMB     33       POPE     C214     CTL2    -0.180000       12.0110           0
      3163 MEMB     33       POPE     H14R     HAL2     0.900000E-01   1.00800           0
      3164 MEMB     33       POPE     H14S     HAL2     0.900000E-01   1.00800           0
      3165 MEMB     33       POPE     C215     CTL2    -0.180000       12.0110           0
      3166 MEMB     33       POPE     H15R     HAL2     0.900000E-01   1.00800           0
      3167 MEMB     33       POPE     H15S     HAL2     0.900000E-01   1.00800           0
      3168 MEMB     33       POPE     C216     CTL2    -0.180000       12.0110           0
      3169 MEMB     33       POPE     H16R     HAL2     0.900000E-01   1.00800           0
      3170 MEMB     33       POPE     H16S     HAL2     0.900000E-01   1.00800           0
      3171 MEMB     33       POPE     C217     CTL2    -0.180000       12.0110           0
      3172 MEMB     33       POPE     H17R     HAL2     0.900000E-01   1.00800           0
      3173 MEMB     33       POPE     H17S     HAL2     0.900000E-01   1.00800           0
      3174 MEMB     33       POPE     C218     CTL3    -0.270000       12.0110           0
      3175 MEMB     33       POPE     H18R     HAL3     0.900000E-01   1.00800           0
      3176 MEMB     33       POPE     H18S     HAL3     0.900000E-01   1.00800           0
      3177 MEMB     33       POPE     H18T     HAL3     0.900000E-01   1.00800           0
      3178 MEMB     33       POPE     C33      CTL2    -0.180000       12.0110           0
      3179 MEMB     33       POPE     H3X      HAL2     0.900000E-01   1.00800           0
      3180 MEMB     33       POPE     H3Y      HAL2     0.900000E-01   1.00800           0
      3181 MEMB     33       POPE     C34      CTL2    -0.180000       12.0110           0
      3182 MEMB     33       POPE     H4X      HAL2     0.900000E-01   1.00800           0
      3183 MEMB     33       POPE     H4Y      HAL2     0.900000E-01   1.00800           0
      3184 MEMB     33       POPE     C35      CTL2    -0.180000       12.0110           0
      3185 MEMB     33       POPE     H5X      HAL2     0.900000E-01   1.00800           0
      3186 MEMB     33       POPE     H5Y      HAL2     0.900000E-01   1.00800           0
      3187 MEMB     33       POPE     C36      CTL2    -0.180000       12.0110           0
      3188 MEMB     33       POPE     H6X      HAL2     0.900000E-01   1.00800           0
      3189 MEMB     33       POPE     H6Y      HAL2     0.900000E-01   1.00800           0
      3190 MEMB     33       POPE     C37      CTL2    -0.180000       12.0110           0
      3191 MEMB     33       POPE     H7X      HAL2     0.900000E-01   1.00800           0
      3192 MEMB     33       POPE     H7Y      HAL2     0.900000E-01   1.00800           0
      3193 MEMB     33       POPE     C38      CTL2    -0.180000       12.0110           0
      3194 MEMB     33       POPE     H8X      HAL2     0.900000E-01   1.00800           0
      3195 MEMB     33       POPE     H8Y      HAL2     0.900000E-01   1.00800           0
      3196 MEMB     33       POPE     C39      CTL2    -0.180000       12.0110           0
      3197 MEMB     33       POPE     H9X      HAL2     0.900000E-01   1.00800           0
      3198 MEMB     33       POPE     H9Y      HAL2     0.900000E-01   1.00800           0
      3199 MEMB     33       POPE     C310     CTL2    -0.180000       12.0110           0
      3200 MEMB     33       POPE     H10X     HAL2     0.900000E-01   1.00800           0
      3201 MEMB     33       POPE     H10Y     HAL2     0.900000E-01   1.00800           0
      3202 MEMB     33       POPE     C311     CTL2    -0.180000       12.0110           0
      3203 MEMB     33       POPE     H11X     HAL2     0.900000E-01   1.00800           0
      3204 MEMB     33       POPE     H11Y     HAL2     0.900000E-01   1.00800           0
      3205 MEMB     33       POPE     C312     CTL2    -0.180000       12.0110           0
      3206 MEMB     33       POPE     H12X     HAL2     0.900000E-01   1.00800           0
      3207 MEMB     33       POPE     H12Y     HAL2     0.900000E-01   1.00800           0
      3208 MEMB     33       POPE     C313     CTL2    -0.180000       12.0110           0
      3209 MEMB     33       POPE     H13X     HAL2     0.900000E-01   1.00800           0
      3210 MEMB     33       POPE     H13Y     HAL2     0.900000E-01   1.00800           0
      3211 MEMB     33       POPE     C314     CTL2    -0.180000       12.0110           0
      3212 MEMB     33       POPE     H14X     HAL2     0.900000E-01   1.00800           0
      3213 MEMB     33       POPE     H14Y     HAL2     0.900000E-01   1.00800           0
      3214 MEMB     33       POPE     C315     CTL2    -0.180000       12.0110           0
      3215 MEMB     33       POPE     H15X     HAL2     0.900000E-01   1.00800           0
      3216 MEMB     33       POPE     H15Y     HAL2     0.900000E-01   1.00800           0
      3217 MEMB     33       POPE     C316     CTL3    -0.270000       12.0110           0
      3218 MEMB     33       POPE     H16X     HAL3     0.900000E-01   1.00800           0
      3219 MEMB     33       POPE     H16Y     HAL3     0.900000E-01   1.00800           0
      3220 MEMB     33       POPE     H16Z     HAL3     0.900000E-01   1.00800           0
      3221 MEMB     35       POPE     N        NH3L    -0.300000       14.0070           0
      3222 MEMB     35       POPE     HN1      HCL      0.330000       1.00800           0
      3223 MEMB     35       POPE     HN2      HCL      0.330000       1.00800           0
      3224 MEMB     35       POPE     HN3      HCL      0.330000       1.00800           0
      3225 MEMB     35       POPE     C12      CTL2     0.130000       12.0110           0
      3226 MEMB     35       POPE     H12A     HAL2     0.900000E-01   1.00800           0
      3227 MEMB     35       POPE     H12B     HAL2     0.900000E-01   1.00800           0
      3228 MEMB     35       POPE     C11      CTL2    -0.800000E-01   12.0110           0
      3229 MEMB     35       POPE     H11A     HAL2     0.900000E-01   1.00800           0
      3230 MEMB     35       POPE     H11B     HAL2     0.900000E-01   1.00800           0
      3231 MEMB     35       POPE     P        PL       1.500000       30.9740           0
      3232 MEMB     35       POPE     O13      O2L     -0.780000       15.9994           0
      3233 MEMB     35       POPE     O14      O2L     -0.780000       15.9994           0
      3234 MEMB     35       POPE     O11      OSLP    -0.570000       15.9994           0
      3235 MEMB     35       POPE     O12      OSLP    -0.570000       15.9994           0
      3236 MEMB     35       POPE     C1       CTL2    -0.800000E-01   12.0110           0
      3237 MEMB     35       POPE     HA       HAL2     0.900000E-01   1.00800           0
      3238 MEMB     35       POPE     HB       HAL2     0.900000E-01   1.00800           0
      3239 MEMB     35       POPE     C2       CTL1     0.170000       12.0110           0
      3240 MEMB     35       POPE     HS       HAL1     0.900000E-01   1.00800           0
      3241 MEMB     35       POPE     O21      OSL     -0.490000       15.9994           0
      3242 MEMB     35       POPE     C21      CL       0.900000       12.0110           0
      3243 MEMB     35       POPE     O22      OBL     -0.630000       15.9994           0
      3244 MEMB     35       POPE     C22      CTL2    -0.220000       12.0110           0
      3245 MEMB     35       POPE     H2R      HAL2     0.900000E-01   1.00800           0
      3246 MEMB     35       POPE     H2S      HAL2     0.900000E-01   1.00800           0
      3247 MEMB     35       POPE     C3       CTL2     0.800000E-01   12.0110           0
      3248 MEMB     35       POPE     HX       HAL2     0.900000E-01   1.00800           0
      3249 MEMB     35       POPE     HY       HAL2     0.900000E-01   1.00800           0
      3250 MEMB     35       POPE     O31      OSL     -0.490000       15.9994           0
      3251 MEMB     35       POPE     C31      CL       0.900000       12.0110           0
      3252 MEMB     35       POPE     O32      OBL     -0.630000       15.9994           0
      3253 MEMB     35       POPE     C32      CTL2    -0.220000       12.0110           0
      3254 MEMB     35       POPE     H2X      HAL2     0.900000E-01   1.00800           0
      3255 MEMB     35       POPE     H2Y      HAL2     0.900000E-01   1.00800           0
      3256 MEMB     35       POPE     C23      CTL2    -0.180000       12.0110           0
      3257 MEMB     35       POPE     H3R      HAL2     0.900000E-01   1.00800           0
      3258 MEMB     35       POPE     H3S      HAL2     0.900000E-01   1.00800           0
      3259 MEMB     35       POPE     C24      CTL2    -0.180000       12.0110           0
      3260 MEMB     35       POPE     H4R      HAL2     0.900000E-01   1.00800           0
      3261 MEMB     35       POPE     H4S      HAL2     0.900000E-01   1.00800           0
      3262 MEMB     35       POPE     C25      CTL2    -0.180000       12.0110           0
      3263 MEMB     35       POPE     H5R      HAL2     0.900000E-01   1.00800           0
      3264 MEMB     35       POPE     H5S      HAL2     0.900000E-01   1.00800           0
      3265 MEMB     35       POPE     C26      CTL2    -0.180000       12.0110           0
      3266 MEMB     35       POPE     H6R      HAL2     0.900000E-01   1.00800           0
      3267 MEMB     35       POPE     H6S      HAL2     0.900000E-01   1.00800           0
      3268 MEMB     35       POPE     C27      CTL2    -0.180000       12.0110           0
      3269 MEMB     35       POPE     H7R      HAL2     0.900000E-01   1.00800           0
      3270 MEMB     35       POPE     H7S      HAL2     0.900000E-01   1.00800           0
      3271 MEMB     35       POPE     C28      CTL2    -0.180000       12.0110           0
      3272 MEMB     35       POPE     H8R      HAL2     0.900000E-01   1.00800           0
      3273 MEMB     35       POPE     H8S      HAL2     0.900000E-01   1.00800           0
      3274 MEMB     35       POPE     C29      CEL1    -0.150000       12.0110           0
      3275 MEMB     35       POPE     H91      HEL1     0.150000       1.00800           0
      3276 MEMB     35       POPE     C210     CEL1    -0.150000       12.0110           0
      3277 MEMB     35       POPE     H101     HEL1     0.150000       1.00800           0
      3278 MEMB     35       POPE     C211     CTL2    -0.180000       12.0110           0
      3279 MEMB     35       POPE     H11R     HAL2     0.900000E-01   1.00800           0
      3280 MEMB     35       POPE     H11S     HAL2     0.900000E-01   1.00800           0
      3281 MEMB     35       POPE     C212     CTL2    -0.180000       12.0110           0
      3282 MEMB     35       POPE     H12R     HAL2     0.900000E-01   1.00800           0
      3283 MEMB     35       POPE     H12S     HAL2     0.900000E-01   1.00800           0
      3284 MEMB     35       POPE     C213     CTL2    -0.180000       12.0110           0
      3285 MEMB     35       POPE     H13R     HAL2     0.900000E-01   1.00800           0
      3286 MEMB     35       POPE     H13S     HAL2     0.900000E-01   1.00800           0
      3287 MEMB     35       POPE     C214     CTL2    -0.180000       12.0110           0
      3288 MEMB     35       POPE     H14R     HAL2     0.900000E-01   1.00800           0
      3289 MEMB     35       POPE     H14S     HAL2     0.900000E-01   1.00800           0
      3290 MEMB     35       POPE     C215     CTL2    -0.180000       12.0110           0
      3291 MEMB     35       POPE     H15R     HAL2     0.900000E-01   1.00800           0
      3292 MEMB     35       POPE     H15S     HAL2     0.900000E-01   1.00800           0
      3293 MEMB     35       POPE     C216     CTL2    -0.180000       12.0110           0
      3294 MEMB     35       POPE     H16R     HAL2     0.900000E-01   1.00800           0
      3295 MEMB     35       POPE     H16S     HAL2     0.900000E-01   1.00800           0
      3296 MEMB     35       POPE     C217     CTL2    -0.180000       12.0110           0
      3297 MEMB     35       POPE     H17R     HAL2     0.900000E-01   1.00800           0
      3298 MEMB     35       POPE     H17S     HAL2     0.900000E-01   1.00800           0
      3299 MEMB     35       POPE     C218     CTL3    -0.270000       12.0110           0
      3300 MEMB     35       POPE     H18R     HAL3     0.900000E-01   1.00800           0
      3301 MEMB     35       POPE     H18S     HAL3     0.900000E-01   1.00800           0
      3302 MEMB     35       POPE     H18T     HAL3     0.900000E-01   1.00800           0
      3303 MEMB     35       POPE     C33      CTL2    -0.180000       12.0110           0
      3304 MEMB     35       POPE     H3X      HAL2     0.900000E-01   1.00800           0
      3305 MEMB     35       POPE     H3Y      HAL2     0.900000E-01   1.00800           0
      3306 MEMB     35       POPE     C34      CTL2    -0.180000       12.0110           0
      3307 MEMB     35       POPE     H4X      HAL2     0.900000E-01   1.00800           0
      3308 MEMB     35       POPE     H4Y      HAL2     0.900000E-01   1.00800           0
      3309 MEMB     35       POPE     C35      CTL2    -0.180000       12.0110           0
      3310 MEMB     35       POPE     H5X      HAL2     0.900000E-01   1.00800           0
      3311 MEMB     35       POPE     H5Y      HAL2     0.900000E-01   1.00800           0
      3312 MEMB     35       POPE     C36      CTL2    -0.180000       12.0110           0
      3313 MEMB     35       POPE     H6X      HAL2     0.900000E-01   1.00800           0
      3314 MEMB     35       POPE     H6Y      HAL2     0.900000E-01   1.00800           0
      3315 MEMB     35       POPE     C37      CTL2    -0.180000       12.0110           0
      3316 MEMB     35       POPE     H7X      HAL2     0.900000E-01   1.00800           0
      3317 MEMB     35       POPE     H7Y      HAL2     0.900000E-01   1.00800           0
      3318 MEMB     35       POPE     C38      CTL2    -0.180000       12.0110           0
      3319 MEMB     35       POPE     H8X      HAL2     0.900000E-01   1.00800           0
      3320 MEMB     35       POPE     H8Y      HAL2     0.900000E-01   1.00800           0
      3321 MEMB     35       POPE     C39      CTL2    -0.180000       12.0110           0
      3322 MEMB     35       POPE     H9X      HAL2     0.900000E-01   1.00800           0
      3323 MEMB     35       POPE     H9Y      HAL2     0.900000E-01   1.00800           0
      3324 MEMB     35       POPE     C310     CTL2    -0.180000       12.0110           0
      3325 MEMB     35       POPE     H10X     HAL2     0.900000E-01   1.00800           0
      3326 MEMB     35       POPE     H10Y     HAL2     0.900000E-01   1.00800           0
      3327 MEMB     35       POPE     C311     CTL2    -0.180000       12.0110           0
      3328 MEMB     35       POPE     H11X     HAL2     0.900000E-01   1.00800           0
      3329 MEMB     35       POPE     H11Y     HAL2     0.900000E-01   1.00800           0
      3330 MEMB     35       POPE     C312     CTL2    -0.180000       12.0110           0
      3331 MEMB     35       POPE     H12X     HAL2     0.900000E-01   1.00800           0
      3332 MEMB     35       POPE     H12Y     HAL2     0.900000E-01   1.00800           0
      3333 MEMB     35       POPE     C313     CTL2    -0.180000       12.0110           0
      3334 MEMB     35       POPE     H13X     HAL2     0.900000E-01   1.00800           0
      3335 MEMB     35       POPE     H13Y     HAL2     0.900000E-01   1.00800           0
      3336 MEMB     35       POPE     C314     CTL2    -0.180000       12.0110           0
      3337 MEMB     35       POPE     H14X     HAL2     0.900000E-01   1.00800           0
      3338 MEMB     35       POPE     H14Y     HAL2     0.900000E-01   1.00800           0
      3339 MEMB     35       POPE     C315     CTL2    -0.180000       12.0110           0
      3340 MEMB     35       POPE     H15X     HAL2     0.900000E-01   1.00800           0
      3341 MEMB     35       POPE     H15Y     HAL2     0.900000E-01   1.00800           0
      3342 MEMB     35       POPE     C316     CTL3    -0.270000       12.0110           0
      3343 MEMB     35       POPE     H16X     HAL3     0.900000E-01   1.00800           0
      3344 MEMB     35       POPE     H16Y     HAL3     0.900000E-01   1.00800           0
      3345 MEMB     35       POPE     H16Z     HAL3     0.900000E-01   1.00800           0
      3346 MEMB     37       POPE     N        NH3L    -0.300000       14.0070           0
      3347 MEMB     37       POPE     HN1      HCL      0.330000       1.00800           0
      3348 MEMB     37       POPE     HN2      HCL      0.330000       1.00800           0
      3349 MEMB     37       POPE     HN3      HCL      0.330000       1.00800           0
      3350 MEMB     37       POPE     C12      CTL2     0.130000       12.0110           0
      3351 MEMB     37       POPE     H12A     HAL2     0.900000E-01   1.00800           0
      3352 MEMB     37       POPE     H12B     HAL2     0.900000E-01   1.00800           0
      3353 MEMB     37       POPE     C11      CTL2    -0.800000E-01   12.0110           0
      3354 MEMB     37       POPE     H11A     HAL2     0.900000E-01   1.00800           0
      3355 MEMB     37       POPE     H11B     HAL2     0.900000E-01   1.00800           0
      3356 MEMB     37       POPE     P        PL       1.500000       30.9740           0
      3357 MEMB     37       POPE     O13      O2L     -0.780000       15.9994           0
      3358 MEMB     37       POPE     O14      O2L     -0.780000       15.9994           0
      3359 MEMB     37       POPE     O11      OSLP    -0.570000       15.9994           0
      3360 MEMB     37       POPE     O12      OSLP    -0.570000       15.9994           0
      3361 MEMB     37       POPE     C1       CTL2    -0.800000E-01   12.0110           0
      3362 MEMB     37       POPE     HA       HAL2     0.900000E-01   1.00800           0
      3363 MEMB     37       POPE     HB       HAL2     0.900000E-01   1.00800           0
      3364 MEMB     37       POPE     C2       CTL1     0.170000       12.0110           0
      3365 MEMB     37       POPE     HS       HAL1     0.900000E-01   1.00800           0
      3366 MEMB     37       POPE     O21      OSL     -0.490000       15.9994           0
      3367 MEMB     37       POPE     C21      CL       0.900000       12.0110           0
      3368 MEMB     37       POPE     O22      OBL     -0.630000       15.9994           0
      3369 MEMB     37       POPE     C22      CTL2    -0.220000       12.0110           0
      3370 MEMB     37       POPE     H2R      HAL2     0.900000E-01   1.00800           0
      3371 MEMB     37       POPE     H2S      HAL2     0.900000E-01   1.00800           0
      3372 MEMB     37       POPE     C3       CTL2     0.800000E-01   12.0110           0
      3373 MEMB     37       POPE     HX       HAL2     0.900000E-01   1.00800           0
      3374 MEMB     37       POPE     HY       HAL2     0.900000E-01   1.00800           0
      3375 MEMB     37       POPE     O31      OSL     -0.490000       15.9994           0
      3376 MEMB     37       POPE     C31      CL       0.900000       12.0110           0
      3377 MEMB     37       POPE     O32      OBL     -0.630000       15.9994           0
      3378 MEMB     37       POPE     C32      CTL2    -0.220000       12.0110           0
      3379 MEMB     37       POPE     H2X      HAL2     0.900000E-01   1.00800           0
      3380 MEMB     37       POPE     H2Y      HAL2     0.900000E-01   1.00800           0
      3381 MEMB     37       POPE     C23      CTL2    -0.180000       12.0110           0
      3382 MEMB     37       POPE     H3R      HAL2     0.900000E-01   1.00800           0
      3383 MEMB     37       POPE     H3S      HAL2     0.900000E-01   1.00800           0
      3384 MEMB     37       POPE     C24      CTL2    -0.180000       12.0110           0
      3385 MEMB     37       POPE     H4R      HAL2     0.900000E-01   1.00800           0
      3386 MEMB     37       POPE     H4S      HAL2     0.900000E-01   1.00800           0
      3387 MEMB     37       POPE     C25      CTL2    -0.180000       12.0110           0
      3388 MEMB     37       POPE     H5R      HAL2     0.900000E-01   1.00800           0
      3389 MEMB     37       POPE     H5S      HAL2     0.900000E-01   1.00800           0
      3390 MEMB     37       POPE     C26      CTL2    -0.180000       12.0110           0
      3391 MEMB     37       POPE     H6R      HAL2     0.900000E-01   1.00800           0
      3392 MEMB     37       POPE     H6S      HAL2     0.900000E-01   1.00800           0
      3393 MEMB     37       POPE     C27      CTL2    -0.180000       12.0110           0
      3394 MEMB     37       POPE     H7R      HAL2     0.900000E-01   1.00800           0
      3395 MEMB     37       POPE     H7S      HAL2     0.900000E-01   1.00800           0
      3396 MEMB     37       POPE     C28      CTL2    -0.180000       12.0110           0
      3397 MEMB     37       POPE     H8R      HAL2     0.900000E-01   1.00800           0
      3398 MEMB     37       POPE     H8S      HAL2     0.900000E-01   1.00800           0
      3399 MEMB     37       POPE     C29      CEL1    -0.150000       12.0110           0
      3400 MEMB     37       POPE     H91      HEL1     0.150000       1.00800           0
      3401 MEMB     37       POPE     C210     CEL1    -0.150000       12.0110           0
      3402 MEMB     37       POPE     H101     HEL1     0.150000       1.00800           0
      3403 MEMB     37       POPE     C211     CTL2    -0.180000       12.0110           0
      3404 MEMB     37       POPE     H11R     HAL2     0.900000E-01   1.00800           0
      3405 MEMB     37       POPE     H11S     HAL2     0.900000E-01   1.00800           0
      3406 MEMB     37       POPE     C212     CTL2    -0.180000       12.0110           0
      3407 MEMB     37       POPE     H12R     HAL2     0.900000E-01   1.00800           0
      3408 MEMB     37       POPE     H12S     HAL2     0.900000E-01   1.00800           0
      3409 MEMB     37       POPE     C213     CTL2    -0.180000       12.0110           0
      3410 MEMB     37       POPE     H13R     HAL2     0.900000E-01   1.00800           0
      3411 MEMB     37       POPE     H13S     HAL2     0.900000E-01   1.00800           0
      3412 MEMB     37       POPE     C214     CTL2    -0.180000       12.0110           0
      3413 MEMB     37       POPE     H14R     HAL2     0.900000E-01   1.00800           0
      3414 MEMB     37       POPE     H14S     HAL2     0.900000E-01   1.00800           0
      3415 MEMB     37       POPE     C215     CTL2    -0.180000       12.0110           0
      3416 MEMB     37       POPE     H15R     HAL2     0.900000E-01   1.00800           0
      3417 MEMB     37       POPE     H15S     HAL2     0.900000E-01   1.00800           0
      3418 MEMB     37       POPE     C216     CTL2    -0.180000       12.0110           0
      3419 MEMB     37       POPE     H16R     HAL2     0.900000E-01   1.00800           0
      3420 MEMB     37       POPE     H16S     HAL2     0.900000E-01   1.00800           0
      3421 MEMB     37       POPE     C217     CTL2    -0.180000       12.0110           0
      3422 MEMB     37       POPE     H17R     HAL2     0.900000E-01   1.00800           0
      3423 MEMB     37       POPE     H17S     HAL2     0.900000E-01   1.00800           0
      3424 MEMB     37       POPE     C218     CTL3    -0.270000       12.0110           0
      3425 MEMB     37       POPE     H18R     HAL3     0.900000E-01   1.00800           0
      3426 MEMB     37       POPE     H18S     HAL3     0.900000E-01   1.00800           0
      3427 MEMB     37       POPE     H18T     HAL3     0.900000E-01   1.00800           0
      3428 MEMB     37       POPE     C33      CTL2    -0.180000       12.0110           0
      3429 MEMB     37       POPE     H3X      HAL2     0.900000E-01   1.00800           0
      3430 MEMB     37       POPE     H3Y      HAL2     0.900000E-01   1.00800           0
      3431 MEMB     37       POPE     C34      CTL2    -0.180000       12.0110           0
      3432 MEMB     37       POPE     H4X      HAL2     0.900000E-01   1.00800           0
      3433 MEMB     37       POPE     H4Y      HAL2     0.900000E-01   1.00800           0
      3434 MEMB     37       POPE     C35      CTL2    -0.180000       12.0110           0
      3435 MEMB     37       POPE     H5X      HAL2     0.900000E-01   1.00800           0
      3436 MEMB     37       POPE     H5Y      HAL2     0.900000E-01   1.00800           0
      3437 MEMB     37       POPE     C36      CTL2    -0.180000       12.0110           0
      3438 MEMB     37       POPE     H6X      HAL2     0.900000E-01   1.00800           0
      3439 MEMB     37       POPE     H6Y      HAL2     0.900000E-01   1.00800           0
      3440 MEMB     37       POPE     C37      CTL2    -0.180000       12.0110           0
      3441 MEMB     37       POPE     H7X      HAL2     0.900000E-01   1.00800           0
      3442 MEMB     37       POPE     H7Y      HAL2     0.900000E-01   1.00800           0
      3443 MEMB     37       POPE     C38      CTL2    -0.180000       12.0110           0
      3444 MEMB     37       POPE     H8X      HAL2     0.900000E-01   1.00800           0
      3445 MEMB     37       POPE     H8Y      HAL2     0.900000E-01   1.00800           0
      3446 MEMB     37       POPE     C39      CTL2    -0.180000       12.0110           0
      3447 MEMB     37       POPE     H9X      HAL2     0.900000E-01   1.00800           0
      3448 MEMB     37       POPE     H9Y      HAL2     0.900000E-01   1.00800           0
      3449 MEMB     37       POPE     C310     CTL2    -0.180000       12.0110           0
      3450 MEMB     37       POPE     H10X     HAL2     0.900000E-01   1.00800           0
      3451 MEMB     37       POPE     H10Y     HAL2     0.900000E-01   1.00800           0
      3452 MEMB     37       POPE     C311     CTL2    -0.180000       12.0110           0
      3453 MEMB     37       POPE     H11X     HAL2     0.900000E-01   1.00800           0
      3454 MEMB     37       POPE     H11Y     HAL2     0.900000E-01   1.00800           0
      3455 MEMB     37       POPE     C312     CTL2    -0.180000       12.0110           0
      3456 MEMB     37       POPE     H12X     HAL2     0.900000E-01   1.00800           0
      3457 MEMB     37       POPE     H12Y     HAL2     0.900000E-01   1.00800           0
      3458 MEMB     37       POPE     C313     CTL2    -0.180000       12.0110           0
      3459 MEMB     37       POPE     H13X     HAL2     0.900000E-01   1.00800           0
      3460 MEMB     37       POPE     H13Y     HAL2     0.900000E-01   1.00800           0
      3461 MEMB     37       POPE     C314     CTL2    -0.180000       12.0110           0
      3462 MEMB     37       POPE     H14X     HAL2     0.900000E-01   1.00800           0
      3463 MEMB     37       POPE     H14Y     HAL2     0.900000E-01   1.00800           0
      3464 MEMB     37       POPE     C315     CTL2    -0.180000       12.0110           0
      3465 MEMB     37       POPE     H15X     HAL2     0.900000E-01   1.00800           0
      3466 MEMB     37       POPE     H15Y     HAL2     0.900000E-01   1.00800           0
      3467 MEMB     37       POPE     C316     CTL3    -0.270000       12.0110           0
      3468 MEMB     37       POPE     H16X     HAL3     0.900000E-01   1.00800           0
      3469 MEMB     37       POPE     H16Y     HAL3     0.900000E-01   1.00800           0
      3470 MEMB     37       POPE     H16Z     HAL3     0.900000E-01   1.00800           0
      3471 MEMB     48       POPE     N        NH3L    -0.300000       14.0070           0
      3472 MEMB     48       POPE     HN1      HCL      0.330000       1.00800           0
      3473 MEMB     48       POPE     HN2      HCL      0.330000       1.00800           0
      3474 MEMB     48       POPE     HN3      HCL      0.330000       1.00800           0
      3475 MEMB     48       POPE     C12      CTL2     0.130000       12.0110           0
      3476 MEMB     48       POPE     H12A     HAL2     0.900000E-01   1.00800           0
      3477 MEMB     48       POPE     H12B     HAL2     0.900000E-01   1.00800           0
      3478 MEMB     48       POPE     C11      CTL2    -0.800000E-01   12.0110           0
      3479 MEMB     48       POPE     H11A     HAL2     0.900000E-01   1.00800           0
      3480 MEMB     48       POPE     H11B     HAL2     0.900000E-01   1.00800           0
      3481 MEMB     48       POPE     P        PL       1.500000       30.9740           0
      3482 MEMB     48       POPE     O13      O2L     -0.780000       15.9994           0
      3483 MEMB     48       POPE     O14      O2L     -0.780000       15.9994           0
      3484 MEMB     48       POPE     O11      OSLP    -0.570000       15.9994           0
      3485 MEMB     48       POPE     O12      OSLP    -0.570000       15.9994           0
      3486 MEMB     48       POPE     C1       CTL2    -0.800000E-01   12.0110           0
      3487 MEMB     48       POPE     HA       HAL2     0.900000E-01   1.00800           0
      3488 MEMB     48       POPE     HB       HAL2     0.900000E-01   1.00800           0
      3489 MEMB     48       POPE     C2       CTL1     0.170000       12.0110           0
      3490 MEMB     48       POPE     HS       HAL1     0.900000E-01   1.00800           0
      3491 MEMB     48       POPE     O21      OSL     -0.490000       15.9994           0
      3492 MEMB     48       POPE     C21      CL       0.900000       12.0110           0
      3493 MEMB     48       POPE     O22      OBL     -0.630000       15.9994           0
      3494 MEMB     48       POPE     C22      CTL2    -0.220000       12.0110           0
      3495 MEMB     48       POPE     H2R      HAL2     0.900000E-01   1.00800           0
      3496 MEMB     48       POPE     H2S      HAL2     0.900000E-01   1.00800           0
      3497 MEMB     48       POPE     C3       CTL2     0.800000E-01   12.0110           0
      3498 MEMB     48       POPE     HX       HAL2     0.900000E-01   1.00800           0
      3499 MEMB     48       POPE     HY       HAL2     0.900000E-01   1.00800           0
      3500 MEMB     48       POPE     O31      OSL     -0.490000       15.9994           0
      3501 MEMB     48       POPE     C31      CL       0.900000       12.0110           0
      3502 MEMB     48       POPE     O32      OBL     -0.630000       15.9994           0
      3503 MEMB     48       POPE     C32      CTL2    -0.220000       12.0110           0
      3504 MEMB     48       POPE     H2X      HAL2     0.900000E-01   1.00800           0
      3505 MEMB     48       POPE     H2Y      HAL2     0.900000E-01   1.00800           0
      3506 MEMB     48       POPE     C23      CTL2    -0.180000       12.0110           0
      3507 MEMB     48       POPE     H3R      HAL2     0.900000E-01   1.00800           0
      3508 MEMB     48       POPE     H3S      HAL2     0.900000E-01   1.00800           0
      3509 MEMB     48       POPE     C24      CTL2    -0.180000       12.0110           0
      3510 MEMB     48       POPE     H4R      HAL2     0.900000E-01   1.00800           0
      3511 MEMB     48       POPE     H4S      HAL2     0.900000E-01   1.00800           0
      3512 MEMB     48       POPE     C25      CTL2    -0.180000       12.0110           0
      3513 MEMB     48       POPE     H5R      HAL2     0.900000E-01   1.00800           0
      3514 MEMB     48       POPE     H5S      HAL2     0.900000E-01   1.00800           0
      3515 MEMB     48       POPE     C26      CTL2    -0.180000       12.0110           0
      3516 MEMB     48       POPE     H6R      HAL2     0.900000E-01   1.00800           0
      3517 MEMB     48       POPE     H6S      HAL2     0.900000E-01   1.00800           0
      3518 MEMB     48       POPE     C27      CTL2    -0.180000       12.0110           0
      3519 MEMB     48       POPE     H7R      HAL2     0.900000E-01   1.00800           0
      3520 MEMB     48       POPE     H7S      HAL2     0.900000E-01   1.00800           0
      3521 MEMB     48       POPE     C28      CTL2    -0.180000       12.0110           0
      3522 MEMB     48       POPE     H8R      HAL2     0.900000E-01   1.00800           0
      3523 MEMB     48       POPE     H8S      HAL2     0.900000E-01   1.00800           0
      3524 MEMB     48       POPE     C29      CEL1    -0.150000       12.0110           0
      3525 MEMB     48       POPE     H91      HEL1     0.150000       1.00800           0
      3526 MEMB     48       POPE     C210     CEL1    -0.150000       12.0110           0
      3527 MEMB     48       POPE     H101     HEL1     0.150000       1.00800           0
      3528 MEMB     48       POPE     C211     CTL2    -0.180000       12.0110           0
      3529 MEMB     48       POPE     H11R     HAL2     0.900000E-01   1.00800           0
      3530 MEMB     48       POPE     H11S     HAL2     0.900000E-01   1.00800           0
      3531 MEMB     48       POPE     C212     CTL2    -0.180000       12.0110           0
      3532 MEMB     48       POPE     H12R     HAL2     0.900000E-01   1.00800           0
      3533 MEMB     48       POPE     H12S     HAL2     0.900000E-01   1.00800           0
      3534 MEMB     48       POPE     C213     CTL2    -0.180000       12.0110           0
      3535 MEMB     48       POPE     H13R     HAL2     0.900000E-01   1.00800           0
      3536 MEMB     48       POPE     H13S     HAL2     0.900000E-01   1.00800           0
      3537 MEMB     48       POPE     C214     CTL2    -0.180000       12.0110           0
      3538 MEMB     48       POPE     H14R     HAL2     0.900000E-01   1.00800           0
      3539 MEMB     48       POPE     H14S     HAL2     0.900000E-01   1.00800           0
      3540 MEMB     48       POPE     C215     CTL2    -0.180000       12.0110           0
      3541 MEMB     48       POPE     H15R     HAL2     0.900000E-01   1.00800           0
      3542 MEMB     48       POPE     H15S     HAL2     0.900000E-01   1.00800           0
      3543 MEMB     48       POPE     C216     CTL2    -0.180000       12.0110           0
      3544 MEMB     48       POPE     H16R     HAL2     0.900000E-01   1.00800           0
      3545 MEMB     48       POPE     H16S     HAL2     0.900000E-01   1.00800           0
      3546 MEMB     48       POPE     C217     CTL2    -0.180000       12.0110           0
      3547 MEMB     48       POPE     H17R     HAL2     0.900000E-01   1.00800           0
      3548 MEMB     48       POPE     H17S     HAL2     0.900000E-01   1.00800           0
      3549 MEMB     48       POPE     C218     CTL3    -0.270000       12.0110           0
      3550 MEMB     48       POPE     H18R     HAL3     0.900000E-01   1.00800           0
      3551 MEMB     48       POPE     H18S     HAL3     0.900000E-01   1.00800           0
      3552 MEMB     48       POPE     H18T     HAL3     0.900000E-01   1.00800           0
      3553 MEMB     48       POPE     C33      CTL2    -0.180000       12.0110           0
      3554 MEMB     48       POPE     H3X      HAL2     0.900000E-01   1.00800           0
      3555 MEMB     48       POPE     H3Y      HAL2     0.900000E-01   1.00800           0
      3556 MEMB     48       POPE     C34      CTL2    -0.180000       12.0110           0
      3557 MEMB     48       POPE     H4X      HAL2     0.900000E-01   1.00800           0
      3558 MEMB     48       POPE     H4Y      HAL2     0.900000E-01   1.00800           0
      3559 MEMB     48       POPE     C35      CTL2    -0.180000       12.0110           0
      3560 MEMB     48       POPE     H5X      HAL2     0.900000E-01   1.00800           0
      3561 MEMB     48       POPE     H5Y      HAL2     0.900000E-01   1.00800           0
      3562 MEMB     48       POPE     C36      CTL2    -0.180000       12.0110           0
      3563 MEMB     48       POPE     H6X      HAL2     0.900000E-01   1.00800           0
      3564 MEMB     48       POPE     H6Y      HAL2     0.900000E-01   1.00800           0
      3565 MEMB     48       POPE     C37      CTL2    -0.180000       12.0110           0
      3566 MEMB     48       POPE     H7X      HAL2     0.900000E-01   1.00800           0
      3567 MEMB     48       POPE     H7Y      HAL2     0.900000E-01   1.00800           0
      3568 MEMB     48       POPE     C38      CTL2    -0.180000       12.0110           0
      3569 MEMB     48       POPE     H8X      HAL2     0.900000E-01   1.00800           0
      3570 MEMB     48       POPE     H8Y      HAL2     0.900000E-01   1.00800           0
      3571 MEMB     48       POPE     C39      CTL2    -0.180000       12.0110           0
      3572 MEMB     48       POPE     H9X      HAL2     0.900000E-01   1.00800           0
      3573 MEMB     48       POPE     H9Y      HAL2     0.900000E-01   1.00800           0
      3574 MEMB     48       POPE     C310     CTL2    -0.180000       12.0110           0
      3575 MEMB     48       POPE     H10X     HAL2     0.900000E-01   1.00800           0
      3576 MEMB     48       POPE     H10Y     HAL2     0.900000E-01   1.00800           0
      3577 MEMB     48       POPE     C311     CTL2    -0.180000       12.0110           0
      3578 MEMB     48       POPE     H11X     HAL2     0.900000E-01   1.00800           0
      3579 MEMB     48       POPE     H11Y     HAL2     0.900000E-01   1.00800           0
      3580 MEMB     48       POPE     C312     CTL2    -0.180000       12.0110           0
      3581 MEMB     48       POPE     H12X     HAL2     0.900000E-01   1.00800           0
      3582 MEMB     48       POPE     H12Y     HAL2     0.900000E-01   1.00800           0
      3583 MEMB     48       POPE     C313     CTL2    -0.180000       12.0110           0
      3584 MEMB     48       POPE     H13X     HAL2     0.900000E-01   1.00800           0
      3585 MEMB     48       POPE     H13Y     HAL2     0.900000E-01   1.00800           0
      3586 MEMB     48       POPE     C314     CTL2    -0.180000       12.0110           0
      3587 MEMB     48       POPE     H14X     HAL2     0.900000E-01   1.00800           0
      3588 MEMB     48       POPE     H14Y     HAL2     0.900000E-01   1.00800           0
      3589 MEMB     48       POPE     C315     CTL2    -0.180000       12.0110           0
      3590 MEMB     48       POPE     H15X     HAL2     0.900000E-01   1.00800           0
      3591 MEMB     48       POPE     H15Y     HAL2     0.900000E-01   1.00800           0
      3592 MEMB     48       POPE     C316     CTL3    -0.270000       12.0110           0
      3593 MEMB     48       POPE     H16X     HAL3     0.900000E-01   1.00800           0
      3594 MEMB     48       POPE     H16Y     HAL3     0.900000E-01   1.00800           0
      3595 MEMB     48       POPE     H16Z     HAL3     0.900000E-01   1.00800           0
      3596 MEMB     49       POPE     N        NH3L    -0.300000       14.0070           0
      3597 MEMB     49       POPE     HN1      HCL      0.330000       1.00800           0
      3598 MEMB     49       POPE     HN2      HCL      0.330000       1.00800           0
      3599 MEMB     49       POPE     HN3      HCL      0.330000       1.00800           0
      3600 MEMB     49       POPE     C12      CTL2     0.130000       12.0110           0
      3601 MEMB     49       POPE     H12A     HAL2     0.900000E-01   1.00800           0
      3602 MEMB     49       POPE     H12B     HAL2     0.900000E-01   1.00800           0
      3603 MEMB     49       POPE     C11      CTL2    -0.800000E-01   12.0110           0
      3604 MEMB     49       POPE     H11A     HAL2     0.900000E-01   1.00800           0
      3605 MEMB     49       POPE     H11B     HAL2     0.900000E-01   1.00800           0
      3606 MEMB     49       POPE     P        PL       1.500000       30.9740           0
      3607 MEMB     49       POPE     O13      O2L     -0.780000       15.9994           0
      3608 MEMB     49       POPE     O14      O2L     -0.780000       15.9994           0
      3609 MEMB     49       POPE     O11      OSLP    -0.570000       15.9994           0
      3610 MEMB     49       POPE     O12      OSLP    -0.570000       15.9994           0
      3611 MEMB     49       POPE     C1       CTL2    -0.800000E-01   12.0110           0
      3612 MEMB     49       POPE     HA       HAL2     0.900000E-01   1.00800           0
      3613 MEMB     49       POPE     HB       HAL2     0.900000E-01   1.00800           0
      3614 MEMB     49       POPE     C2       CTL1     0.170000       12.0110           0
      3615 MEMB     49       POPE     HS       HAL1     0.900000E-01   1.00800           0
      3616 MEMB     49       POPE     O21      OSL     -0.490000       15.9994           0
      3617 MEMB     49       POPE     C21      CL       0.900000       12.0110           0
      3618 MEMB     49       POPE     O22      OBL     -0.630000       15.9994           0
      3619 MEMB     49       POPE     C22      CTL2    -0.220000       12.0110           0
      3620 MEMB     49       POPE     H2R      HAL2     0.900000E-01   1.00800           0
      3621 MEMB     49       POPE     H2S      HAL2     0.900000E-01   1.00800           0
      3622 MEMB     49       POPE     C3       CTL2     0.800000E-01   12.0110           0
      3623 MEMB     49       POPE     HX       HAL2     0.900000E-01   1.00800           0
      3624 MEMB     49       POPE     HY       HAL2     0.900000E-01   1.00800           0
      3625 MEMB     49       POPE     O31      OSL     -0.490000       15.9994           0
      3626 MEMB     49       POPE     C31      CL       0.900000       12.0110           0
      3627 MEMB     49       POPE     O32      OBL     -0.630000       15.9994           0
      3628 MEMB     49       POPE     C32      CTL2    -0.220000       12.0110           0
      3629 MEMB     49       POPE     H2X      HAL2     0.900000E-01   1.00800           0
      3630 MEMB     49       POPE     H2Y      HAL2     0.900000E-01   1.00800           0
      3631 MEMB     49       POPE     C23      CTL2    -0.180000       12.0110           0
      3632 MEMB     49       POPE     H3R      HAL2     0.900000E-01   1.00800           0
      3633 MEMB     49       POPE     H3S      HAL2     0.900000E-01   1.00800           0
      3634 MEMB     49       POPE     C24      CTL2    -0.180000       12.0110           0
      3635 MEMB     49       POPE     H4R      HAL2     0.900000E-01   1.00800           0
      3636 MEMB     49       POPE     H4S      HAL2     0.900000E-01   1.00800           0
      3637 MEMB     49       POPE     C25      CTL2    -0.180000       12.0110           0
      3638 MEMB     49       POPE     H5R      HAL2     0.900000E-01   1.00800           0
      3639 MEMB     49       POPE     H5S      HAL2     0.900000E-01   1.00800           0
      3640 MEMB     49       POPE     C26      CTL2    -0.180000       12.0110           0
      3641 MEMB     49       POPE     H6R      HAL2     0.900000E-01   1.00800           0
      3642 MEMB     49       POPE     H6S      HAL2     0.900000E-01   1.00800           0
      3643 MEMB     49       POPE     C27      CTL2    -0.180000       12.0110           0
      3644 MEMB     49       POPE     H7R      HAL2     0.900000E-01   1.00800           0
      3645 MEMB     49       POPE     H7S      HAL2     0.900000E-01   1.00800           0
      3646 MEMB     49       POPE     C28      CTL2    -0.180000       12.0110           0
      3647 MEMB     49       POPE     H8R      HAL2     0.900000E-01   1.00800           0
      3648 MEMB     49       POPE     H8S      HAL2     0.900000E-01   1.00800           0
      3649 MEMB     49       POPE     C29      CEL1    -0.150000       12.0110           0
      3650 MEMB     49       POPE     H91      HEL1     0.150000       1.00800           0
      3651 MEMB     49       POPE     C210     CEL1    -0.150000       12.0110           0
      3652 MEMB     49       POPE     H101     HEL1     0.150000       1.00800           0
      3653 MEMB     49       POPE     C211     CTL2    -0.180000       12.0110           0
      3654 MEMB     49       POPE     H11R     HAL2     0.900000E-01   1.00800           0
      3655 MEMB     49       POPE     H11S     HAL2     0.900000E-01   1.00800           0
      3656 MEMB     49       POPE     C212     CTL2    -0.180000       12.0110           0
      3657 MEMB     49       POPE     H12R     HAL2     0.900000E-01   1.00800           0
      3658 MEMB     49       POPE     H12S     HAL2     0.900000E-01   1.00800           0
      3659 MEMB     49       POPE     C213     CTL2    -0.180000       12.0110           0
      3660 MEMB     49       POPE     H13R     HAL2     0.900000E-01   1.00800           0
      3661 MEMB     49       POPE     H13S     HAL2     0.900000E-01   1.00800           0
      3662 MEMB     49       POPE     C214     CTL2    -0.180000       12.0110           0
      3663 MEMB     49       POPE     H14R     HAL2     0.900000E-01   1.00800           0
      3664 MEMB     49       POPE     H14S     HAL2     0.900000E-01   1.00800           0
      3665 MEMB     49       POPE     C215     CTL2    -0.180000       12.0110           0
      3666 MEMB     49       POPE     H15R     HAL2     0.900000E-01   1.00800           0
      3667 MEMB     49       POPE     H15S     HAL2     0.900000E-01   1.00800           0
      3668 MEMB     49       POPE     C216     CTL2    -0.180000       12.0110           0
      3669 MEMB     49       POPE     H16R     HAL2     0.900000E-01   1.00800           0
      3670 MEMB     49       POPE     H16S     HAL2     0.900000E-01   1.00800           0
      3671 MEMB     49       POPE     C217     CTL2    -0.180000       12.0110           0
      3672 MEMB     49       POPE     H17R     HAL2     0.900000E-01   1.00800           0
      3673 MEMB     49       POPE     H17S     HAL2     0.900000E-01   1.00800           0
      3674 MEMB     49       POPE     C218     CTL3    -0.270000       12.0110           0
      3675 MEMB     49       POPE     H18R     HAL3     0.900000E-01   1.00800           0
      3676 MEMB     49       POPE     H18S     HAL3     0.900000E-01   1.00800           0
      3677 MEMB     49       POPE     H18T     HAL3     0.900000E-01   1.00800           0
      3678 MEMB     49       POPE     C33      CTL2    -0.180000       12.0110           0
      3679 MEMB     49       POPE     H3X      HAL2     0.900000E-01   1.00800           0
      3680 MEMB     49       POPE     H3Y      HAL2     0.900000E-01   1.00800           0
      3681 MEMB     49       POPE     C34      CTL2    -0.180000       12.0110           0
      3682 MEMB     49       POPE     H4X      HAL2     0.900000E-01   1.00800           0
      3683 MEMB     49       POPE     H4Y      HAL2     0.900000E-01   1.00800           0
      3684 MEMB     49       POPE     C35      CTL2    -0.180000       12.0110           0
      3685 MEMB     49       POPE     H5X      HAL2     0.900000E-01   1.00800           0
      3686 MEMB     49       POPE     H5Y      HAL2     0.900000E-01   1.00800           0
      3687 MEMB     49       POPE     C36      CTL2    -0.180000       12.0110           0
      3688 MEMB     49       POPE     H6X      HAL2     0.900000E-01   1.00800           0
      3689 MEMB     49       POPE     H6Y      HAL2     0.900000E-01   1.00800           0
      3690 MEMB     49       POPE     C37      CTL2    -0.180000       12.0110           0
      3691 MEMB     49       POPE     H7X      HAL2     0.900000E-01   1.00800           0
      3692 MEMB     49       POPE     H7Y      HAL2     0.900000E-01   1.00800           0
      3693 MEMB     49       POPE     C38      CTL2    -0.180000       12.0110           0
      3694 MEMB     49       POPE     H8X      HAL2     0.900000E-01   1.00800           0
      3695 MEMB     49       POPE     H8Y      HAL2     0.900000E-01   1.00800           0
      3696 MEMB     49       POPE     C39      CTL2    -0.180000       12.0110           0
      3697 MEMB     49       POPE     H9X      HAL2     0.900000E-01   1.00800           0
      3698 MEMB     49       POPE     H9Y      HAL2     0.900000E-01   1.00800           0
      3699 MEMB     49       POPE     C310     CTL2    -0.180000       12.0110           0
      3700 MEMB     49       POPE     H10X     HAL2     0.900000E-01   1.00800           0
      3701 MEMB     49       POPE     H10Y     HAL2     0.900000E-01   1.00800           0
      3702 MEMB     49       POPE     C311     CTL2    -0.180000       12.0110           0
      3703 MEMB     49       POPE     H11X     HAL2     0.900000E-01   1.00800           0
      3704 MEMB     49       POPE     H11Y     HAL2     0.900000E-01   1.00800           0
      3705 MEMB     49       POPE     C312     CTL2    -0.180000       12.0110           0
      3706 MEMB     49       POPE     H12X     HAL2     0.900000E-01   1.00800           0
      3707 MEMB     49       POPE     H12Y     HAL2     0.900000E-01   1.00800           0
      3708 MEMB     49       POPE     C313     CTL2    -0.180000       12.0110           0
      3709 MEMB     49       POPE     H13X     HAL2     0.900000E-01   1.00800           0
      3710 MEMB     49       POPE     H13Y     HAL2     0.900000E-01   1.00800           0
      3711 MEMB     49       POPE     C314     CTL2    -0.180000       12.0110           0
      3712 MEMB     49       POPE     H14X     HAL2     0.900000E-01   1.00800           0
      3713 MEMB     49       POPE     H14Y     HAL2     0.900000E-01   1.00800           0
      3714 MEMB     49       POPE     C315     CTL2    -0.180000       12.0110           0
      3715 MEMB     49       POPE     H15X     HAL2     0.900000E-01   1.00800           0
      3716 MEMB     49       POPE     H15Y     HAL2     0.900000E-01   1.00800           0
      3717 MEMB     49       POPE     C316     CTL3    -0.270000       12.0110           0
      3718 MEMB     49       POPE     H16X     HAL3     0.900000E-01   1.00800           0
      3719 MEMB     49       POPE     H16Y     HAL3     0.900000E-01   1.00800           0
      3720 MEMB     49       POPE     H16Z     HAL3     0.900000E-01   1.00800           0
      3721 MEMB     52       POPE     N        NH3L    -0.300000       14.0070           0
      3722 MEMB     52       POPE     HN1      HCL      0.330000       1.00800           0
      3723 MEMB     52       POPE     HN2      HCL      0.330000       1.00800           0
      3724 MEMB     52       POPE     HN3      HCL      0.330000       1.00800           0
      3725 MEMB     52       POPE     C12      CTL2     0.130000       12.0110           0
      3726 MEMB     52       POPE     H12A     HAL2     0.900000E-01   1.00800           0
      3727 MEMB     52       POPE     H12B     HAL2     0.900000E-01   1.00800           0
      3728 MEMB     52       POPE     C11      CTL2    -0.800000E-01   12.0110           0
      3729 MEMB     52       POPE     H11A     HAL2     0.900000E-01   1.00800           0
      3730 MEMB     52       POPE     H11B     HAL2     0.900000E-01   1.00800           0
      3731 MEMB     52       POPE     P        PL       1.500000       30.9740           0
      3732 MEMB     52       POPE     O13      O2L     -0.780000       15.9994           0
      3733 MEMB     52       POPE     O14      O2L     -0.780000       15.9994           0
      3734 MEMB     52       POPE     O11      OSLP    -0.570000       15.9994           0
      3735 MEMB     52       POPE     O12      OSLP    -0.570000       15.9994           0
      3736 MEMB     52       POPE     C1       CTL2    -0.800000E-01   12.0110           0
      3737 MEMB     52       POPE     HA       HAL2     0.900000E-01   1.00800           0
      3738 MEMB     52       POPE     HB       HAL2     0.900000E-01   1.00800           0
      3739 MEMB     52       POPE     C2       CTL1     0.170000       12.0110           0
      3740 MEMB     52       POPE     HS       HAL1     0.900000E-01   1.00800           0
      3741 MEMB     52       POPE     O21      OSL     -0.490000       15.9994           0
      3742 MEMB     52       POPE     C21      CL       0.900000       12.0110           0
      3743 MEMB     52       POPE     O22      OBL     -0.630000       15.9994           0
      3744 MEMB     52       POPE     C22      CTL2    -0.220000       12.0110           0
      3745 MEMB     52       POPE     H2R      HAL2     0.900000E-01   1.00800           0
      3746 MEMB     52       POPE     H2S      HAL2     0.900000E-01   1.00800           0
      3747 MEMB     52       POPE     C3       CTL2     0.800000E-01   12.0110           0
      3748 MEMB     52       POPE     HX       HAL2     0.900000E-01   1.00800           0
      3749 MEMB     52       POPE     HY       HAL2     0.900000E-01   1.00800           0
      3750 MEMB     52       POPE     O31      OSL     -0.490000       15.9994           0
      3751 MEMB     52       POPE     C31      CL       0.900000       12.0110           0
      3752 MEMB     52       POPE     O32      OBL     -0.630000       15.9994           0
      3753 MEMB     52       POPE     C32      CTL2    -0.220000       12.0110           0
      3754 MEMB     52       POPE     H2X      HAL2     0.900000E-01   1.00800           0
      3755 MEMB     52       POPE     H2Y      HAL2     0.900000E-01   1.00800           0
      3756 MEMB     52       POPE     C23      CTL2    -0.180000       12.0110           0
      3757 MEMB     52       POPE     H3R      HAL2     0.900000E-01   1.00800           0
      3758 MEMB     52       POPE     H3S      HAL2     0.900000E-01   1.00800           0
      3759 MEMB     52       POPE     C24      CTL2    -0.180000       12.0110           0
      3760 MEMB     52       POPE     H4R      HAL2     0.900000E-01   1.00800           0
      3761 MEMB     52       POPE     H4S      HAL2     0.900000E-01   1.00800           0
      3762 MEMB     52       POPE     C25      CTL2    -0.180000       12.0110           0
      3763 MEMB     52       POPE     H5R      HAL2     0.900000E-01   1.00800           0
      3764 MEMB     52       POPE     H5S      HAL2     0.900000E-01   1.00800           0
      3765 MEMB     52       POPE     C26      CTL2    -0.180000       12.0110           0
      3766 MEMB     52       POPE     H6R      HAL2     0.900000E-01   1.00800           0
      3767 MEMB     52       POPE     H6S      HAL2     0.900000E-01   1.00800           0
      3768 MEMB     52       POPE     C27      CTL2    -0.180000       12.0110           0
      3769 MEMB     52       POPE     H7R      HAL2     0.900000E-01   1.00800           0
      3770 MEMB     52       POPE     H7S      HAL2     0.900000E-01   1.00800           0
      3771 MEMB     52       POPE     C28      CTL2    -0.180000       12.0110           0
      3772 MEMB     52       POPE     H8R      HAL2     0.900000E-01   1.00800           0
      3773 MEMB     52       POPE     H8S      HAL2     0.900000E-01   1.00800           0
      3774 MEMB     52       POPE     C29      CEL1    -0.150000       12.0110           0
      3775 MEMB     52       POPE     H91      HEL1     0.150000       1.00800           0
      3776 MEMB     52       POPE     C210     CEL1    -0.150000       12.0110           0
      3777 MEMB     52       POPE     H101     HEL1     0.150000       1.00800           0
      3778 MEMB     52       POPE     C211     CTL2    -0.180000       12.0110           0
      3779 MEMB     52       POPE     H11R     HAL2     0.900000E-01   1.00800           0
      3780 MEMB     52       POPE     H11S     HAL2     0.900000E-01   1.00800           0
      3781 MEMB     52       POPE     C212     CTL2    -0.180000       12.0110           0
      3782 MEMB     52       POPE     H12R     HAL2     0.900000E-01   1.00800           0
      3783 MEMB     52       POPE     H12S     HAL2     0.900000E-01   1.00800           0
      3784 MEMB     52       POPE     C213     CTL2    -0.180000       12.0110           0
      3785 MEMB     52       POPE     H13R     HAL2     0.900000E-01   1.00800           0
      3786 MEMB     52       POPE     H13S     HAL2     0.900000E-01   1.00800           0
      3787 MEMB     52       POPE     C214     CTL2    -0.180000       12.0110           0
      3788 MEMB     52       POPE     H14R     HAL2     0.900000E-01   1.00800           0
      3789 MEMB     52       POPE     H14S     HAL2     0.900000E-01   1.00800           0
      3790 MEMB     52       POPE     C215     CTL2    -0.180000       12.0110           0
      3791 MEMB     52       POPE     H15R     HAL2     0.900000E-01   1.00800           0
      3792 MEMB     52       POPE     H15S     HAL2     0.900000E-01   1.00800           0
      3793 MEMB     52       POPE     C216     CTL2    -0.180000       12.0110           0
      3794 MEMB     52       POPE     H16R     HAL2     0.900000E-01   1.00800           0
      3795 MEMB     52       POPE     H16S     HAL2     0.900000E-01   1.00800           0
      3796 MEMB     52       POPE     C217     CTL2    -0.180000       12.0110           0
      3797 MEMB     52       POPE     H17R     HAL2     0.900000E-01   1.00800           0
      3798 MEMB     52       POPE     H17S     HAL2     0.900000E-01   1.00800           0
      3799 MEMB     52       POPE     C218     CTL3    -0.270000       12.0110           0
      3800 MEMB     52       POPE     H18R     HAL3     0.900000E-01   1.00800           0
      3801 MEMB     52       POPE     H18S     HAL3     0.900000E-01   1.00800           0
      3802 MEMB     52       POPE     H18T     HAL3     0.900000E-01   1.00800           0
      3803 MEMB     52       POPE     C33      CTL2    -0.180000       12.0110           0
      3804 MEMB     52       POPE     H3X      HAL2     0.900000E-01   1.00800           0
      3805 MEMB     52       POPE     H3Y      HAL2     0.900000E-01   1.00800           0
      3806 MEMB     52       POPE     C34      CTL2    -0.180000       12.0110           0
      3807 MEMB     52       POPE     H4X      HAL2     0.900000E-01   1.00800           0
      3808 MEMB     52       POPE     H4Y      HAL2     0.900000E-01   1.00800           0
      3809 MEMB     52       POPE     C35      CTL2    -0.180000       12.0110           0
      3810 MEMB     52       POPE     H5X      HAL2     0.900000E-01   1.00800           0
      3811 MEMB     52       POPE     H5Y      HAL2     0.900000E-01   1.00800           0
      3812 MEMB     52       POPE     C36      CTL2    -0.180000       12.0110           0
      3813 MEMB     52       POPE     H6X      HAL2     0.900000E-01   1.00800           0
      3814 MEMB     52       POPE     H6Y      HAL2     0.900000E-01   1.00800           0
      3815 MEMB     52       POPE     C37      CTL2    -0.180000       12.0110           0
      3816 MEMB     52       POPE     H7X      HAL2     0.900000E-01   1.00800           0
      3817 MEMB     52       POPE     H7Y      HAL2     0.900000E-01   1.00800           0
      3818 MEMB     52       POPE     C38      CTL2    -0.180000       12.0110           0
      3819 MEMB     52       POPE     H8X      HAL2     0.900000E-01   1.00800           0
      3820 MEMB     52       POPE     H8Y      HAL2     0.900000E-01   1.00800           0
      3821 MEMB     52       POPE     C39      CTL2    -0.180000       12.0110           0
      3822 MEMB     52       POPE     H9X      HAL2     0.900000E-01   1.00800           0
      3823 MEMB     52       POPE     H9Y      HAL2     0.900000E-01   1.00800           0
      3824 MEMB     52       POPE     C310     CTL2    -0.180000       12.0110           0
      3825 MEMB     52       POPE     H10X     HAL2     0.900000E-01   1.00800           0
      3826 MEMB     52       POPE     H10Y     HAL2     0.900000E-01   1.00800           0
      3827 MEMB     52       POPE     C311     CTL2    -0.180000       12.0110           0
      3828 MEMB     52       POPE     H11X     HAL2     0.900000E-01   1.00800           0
      3829 MEMB     52       POPE     H11Y     HAL2     0.900000E-01   1.00800           0
      3830 MEMB     52       POPE     C312     CTL2    -0.180000       12.0110           0
      3831 MEMB     52       POPE     H12X     HAL2     0.900000E-01   1.00800           0
      3832 MEMB     52       POPE     H12Y     HAL2     0.900000E-01   1.00800           0
      3833 MEMB     52       POPE     C313     CTL2    -0.180000       12.0110           0
      3834 MEMB     52       POPE     H13X     HAL2     0.900000E-01   1.00800           0
      3835 MEMB     52       POPE     H13Y     HAL2     0.900000E-01   1.00800           0
      3836 MEMB     52       POPE     C314     CTL2    -0.180000       12.0110           0
      3837 MEMB     52       POPE     H14X     HAL2     0.900000E-01   1.00800           0
      3838 MEMB     52       POPE     H14Y     HAL2     0.900000E-01   1.00800           0
      3839 MEMB     52       POPE     C315     CTL2    -0.180000       12.0110           0
      3840 MEMB     52       POPE     H15X     HAL2     0.900000E-01   1.00800           0
      3841 MEMB     52       POPE     H15Y     HAL2     0.900000E-01   1.00800           0
      3842 MEMB     52       POPE     C316     CTL3    -0.270000       12.0110           0
      3843 MEMB     52       POPE     H16X     HAL3     0.900000E-01   1.00800           0
      3844 MEMB     52       POPE     H16Y     HAL3     0.900000E-01   1.00800           0
      3845 MEMB     52       POPE     H16Z     HAL3     0.900000E-01   1.00800           0
      3846 MEMB     54       POPE     N        NH3L    -0.300000       14.0070           0
      3847 MEMB     54       POPE     HN1      HCL      0.330000       1.00800           0
      3848 MEMB     54       POPE     HN2      HCL      0.330000       1.00800           0
      3849 MEMB     54       POPE     HN3      HCL      0.330000       1.00800           0
      3850 MEMB     54       POPE     C12      CTL2     0.130000       12.0110           0
      3851 MEMB     54       POPE     H12A     HAL2     0.900000E-01   1.00800           0
      3852 MEMB     54       POPE     H12B     HAL2     0.900000E-01   1.00800           0
      3853 MEMB     54       POPE     C11      CTL2    -0.800000E-01   12.0110           0
      3854 MEMB     54       POPE     H11A     HAL2     0.900000E-01   1.00800           0
      3855 MEMB     54       POPE     H11B     HAL2     0.900000E-01   1.00800           0
      3856 MEMB     54       POPE     P        PL       1.500000       30.9740           0
      3857 MEMB     54       POPE     O13      O2L     -0.780000       15.9994           0
      3858 MEMB     54       POPE     O14      O2L     -0.780000       15.9994           0
      3859 MEMB     54       POPE     O11      OSLP    -0.570000       15.9994           0
      3860 MEMB     54       POPE     O12      OSLP    -0.570000       15.9994           0
      3861 MEMB     54       POPE     C1       CTL2    -0.800000E-01   12.0110           0
      3862 MEMB     54       POPE     HA       HAL2     0.900000E-01   1.00800           0
      3863 MEMB     54       POPE     HB       HAL2     0.900000E-01   1.00800           0
      3864 MEMB     54       POPE     C2       CTL1     0.170000       12.0110           0
      3865 MEMB     54       POPE     HS       HAL1     0.900000E-01   1.00800           0
      3866 MEMB     54       POPE     O21      OSL     -0.490000       15.9994           0
      3867 MEMB     54       POPE     C21      CL       0.900000       12.0110           0
      3868 MEMB     54       POPE     O22      OBL     -0.630000       15.9994           0
      3869 MEMB     54       POPE     C22      CTL2    -0.220000       12.0110           0
      3870 MEMB     54       POPE     H2R      HAL2     0.900000E-01   1.00800           0
      3871 MEMB     54       POPE     H2S      HAL2     0.900000E-01   1.00800           0
      3872 MEMB     54       POPE     C3       CTL2     0.800000E-01   12.0110           0
      3873 MEMB     54       POPE     HX       HAL2     0.900000E-01   1.00800           0
      3874 MEMB     54       POPE     HY       HAL2     0.900000E-01   1.00800           0
      3875 MEMB     54       POPE     O31      OSL     -0.490000       15.9994           0
      3876 MEMB     54       POPE     C31      CL       0.900000       12.0110           0
      3877 MEMB     54       POPE     O32      OBL     -0.630000       15.9994           0
      3878 MEMB     54       POPE     C32      CTL2    -0.220000       12.0110           0
      3879 MEMB     54       POPE     H2X      HAL2     0.900000E-01   1.00800           0
      3880 MEMB     54       POPE     H2Y      HAL2     0.900000E-01   1.00800           0
      3881 MEMB     54       POPE     C23      CTL2    -0.180000       12.0110           0
      3882 MEMB     54       POPE     H3R      HAL2     0.900000E-01   1.00800           0
      3883 MEMB     54       POPE     H3S      HAL2     0.900000E-01   1.00800           0
      3884 MEMB     54       POPE     C24      CTL2    -0.180000       12.0110           0
      3885 MEMB     54       POPE     H4R      HAL2     0.900000E-01   1.00800           0
      3886 MEMB     54       POPE     H4S      HAL2     0.900000E-01   1.00800           0
      3887 MEMB     54       POPE     C25      CTL2    -0.180000       12.0110           0
      3888 MEMB     54       POPE     H5R      HAL2     0.900000E-01   1.00800           0
      3889 MEMB     54       POPE     H5S      HAL2     0.900000E-01   1.00800           0
      3890 MEMB     54       POPE     C26      CTL2    -0.180000       12.0110           0
      3891 MEMB     54       POPE     H6R      HAL2     0.900000E-01   1.00800           0
      3892 MEMB     54       POPE     H6S      HAL2     0.900000E-01   1.00800           0
      3893 MEMB     54       POPE     C27      CTL2    -0.180000       12.0110           0
      3894 MEMB     54       POPE     H7R      HAL2     0.900000E-01   1.00800           0
      3895 MEMB     54       POPE     H7S      HAL2     0.900000E-01   1.00800           0
      3896 MEMB     54       POPE     C28      CTL2    -0.180000       12.0110           0
      3897 MEMB     54       POPE     H8R      HAL2     0.900000E-01   1.00800           0
      3898 MEMB     54       POPE     H8S      HAL2     0.900000E-01   1.00800           0
      3899 MEMB     54       POPE     C29      CEL1    -0.150000       12.0110           0
      3900 MEMB     54       POPE     H91      HEL1     0.150000       1.00800           0
      3901 MEMB     54       POPE     C210     CEL1    -0.150000       12.0110           0
      3902 MEMB     54       POPE     H101     HEL1     0.150000       1.00800           0
      3903 MEMB     54       POPE     C211     CTL2    -0.180000       12.0110           0
      3904 MEMB     54       POPE     H11R     HAL2     0.900000E-01   1.00800           0
      3905 MEMB     54       POPE     H11S     HAL2     0.900000E-01   1.00800           0
      3906 MEMB     54       POPE     C212     CTL2    -0.180000       12.0110           0
      3907 MEMB     54       POPE     H12R     HAL2     0.900000E-01   1.00800           0
      3908 MEMB     54       POPE     H12S     HAL2     0.900000E-01   1.00800           0
      3909 MEMB     54       POPE     C213     CTL2    -0.180000       12.0110           0
      3910 MEMB     54       POPE     H13R     HAL2     0.900000E-01   1.00800           0
      3911 MEMB     54       POPE     H13S     HAL2     0.900000E-01   1.00800           0
      3912 MEMB     54       POPE     C214     CTL2    -0.180000       12.0110           0
      3913 MEMB     54       POPE     H14R     HAL2     0.900000E-01   1.00800           0
      3914 MEMB     54       POPE     H14S     HAL2     0.900000E-01   1.00800           0
      3915 MEMB     54       POPE     C215     CTL2    -0.180000       12.0110           0
      3916 MEMB     54       POPE     H15R     HAL2     0.900000E-01   1.00800           0
      3917 MEMB     54       POPE     H15S     HAL2     0.900000E-01   1.00800           0
      3918 MEMB     54       POPE     C216     CTL2    -0.180000       12.0110           0
      3919 MEMB     54       POPE     H16R     HAL2     0.900000E-01   1.00800           0
      3920 MEMB     54       POPE     H16S     HAL2     0.900000E-01   1.00800           0
      3921 MEMB     54       POPE     C217     CTL2    -0.180000       12.0110           0
      3922 MEMB     54       POPE     H17R     HAL2     0.900000E-01   1.00800           0
      3923 MEMB     54       POPE     H17S     HAL2     0.900000E-01   1.00800           0
      3924 MEMB     54       POPE     C218     CTL3    -0.270000       12.0110           0
      3925 MEMB     54       POPE     H18R     HAL3     0.900000E-01   1.00800           0
      3926 MEMB     54       POPE     H18S     HAL3     0.900000E-01   1.00800           0
      3927 MEMB     54       POPE     H18T     HAL3     0.900000E-01   1.00800           0
      3928 MEMB     54       POPE     C33      CTL2    -0.180000       12.0110           0
      3929 MEMB     54       POPE     H3X      HAL2     0.900000E-01   1.00800           0
      3930 MEMB     54       POPE     H3Y      HAL2     0.900000E-01   1.00800           0
      3931 MEMB     54       POPE     C34      CTL2    -0.180000       12.0110           0
      3932 MEMB     54       POPE     H4X      HAL2     0.900000E-01   1.00800           0
      3933 MEMB     54       POPE     H4Y      HAL2     0.900000E-01   1.00800           0
      3934 MEMB     54       POPE     C35      CTL2    -0.180000       12.0110           0
      3935 MEMB     54       POPE     H5X      HAL2     0.900000E-01   1.00800           0
      3936 MEMB     54       POPE     H5Y      HAL2     0.900000E-01   1.00800           0
      3937 MEMB     54       POPE     C36      CTL2    -0.180000       12.0110           0
      3938 MEMB     54       POPE     H6X      HAL2     0.900000E-01   1.00800           0
      3939 MEMB     54       POPE     H6Y      HAL2     0.900000E-01   1.00800           0
      3940 MEMB     54       POPE     C37      CTL2    -0.180000       12.0110           0
      3941 MEMB     54       POPE     H7X      HAL2     0.900000E-01   1.00800           0
      3942 MEMB     54       POPE     H7Y      HAL2     0.900000E-01   1.00800           0
      3943 MEMB     54       POPE     C38      CTL2    -0.180000       12.0110           0
      3944 MEMB     54       POPE     H8X      HAL2     0.900000E-01   1.00800           0
      3945 MEMB     54       POPE     H8Y      HAL2     0.900000E-01   1.00800           0
      3946 MEMB     54       POPE     C39      CTL2    -0.180000       12.0110           0
      3947 MEMB     54       POPE     H9X      HAL2     0.900000E-01   1.00800           0
      3948 MEMB     54       POPE     H9Y      HAL2     0.900000E-01   1.00800           0
      3949 MEMB     54       POPE     C310     CTL2    -0.180000       12.0110           0
      3950 MEMB     54       POPE     H10X     HAL2     0.900000E-01   1.00800           0
      3951 MEMB     54       POPE     H10Y     HAL2     0.900000E-01   1.00800           0
      3952 MEMB     54       POPE     C311     CTL2    -0.180000       12.0110           0
      3953 MEMB     54       POPE     H11X     HAL2     0.900000E-01   1.00800           0
      3954 MEMB     54       POPE     H11Y     HAL2     0.900000E-01   1.00800           0
      3955 MEMB     54       POPE     C312     CTL2    -0.180000       12.0110           0
      3956 MEMB     54       POPE     H12X     HAL2     0.900000E-01   1.00800           0
      3957 MEMB     54       POPE     H12Y     HAL2     0.900000E-01   1.00800           0
      3958 MEMB     54       POPE     C313     CTL2    -0.180000       12.0110           0
      3959 MEMB     54       POPE     H13X     HAL2     0.900000E-01   1.00800           0
      3960 MEMB     54       POPE     H13Y     HAL2     0.900000E-01   1.00800           0
      3961 MEMB     54       POPE     C314     CTL2    -0.180000       12.0110           0
      3962 MEMB     54       POPE     H14X     HAL2     0.900000E-01   1.00800           0
      3963 MEMB     54       POPE     H14Y     HAL2     0.900000E-01   1.00800           0
      3964 MEMB     54       POPE     C315     CTL2    -0.180000       12.0110           0
      3965 MEMB     54       POPE     H15X     HAL2     0.900000E-01   1.00800           0
      3966 MEMB     54       POPE     H15Y     HAL2     0.900000E-01   1.00800           0
      3967 MEMB     54       POPE     C316     CTL3    -0.270000       12.0110           0
      3968 MEMB     54       POPE     H16X     HAL3     0.900000E-01   1.00800           0
      3969 MEMB     54       POPE     H16Y     HAL3     0.900000E-01   1.00800           0
      3970 MEMB     54       POPE     H16Z     HAL3     0.900000E-01   1.00800           0
      3971 MEMB     55       POPE     N        NH3L    -0.300000       14.0070           0
      3972 MEMB     55       POPE     HN1      HCL      0.330000       1.00800           0
      3973 MEMB     55       POPE     HN2      HCL      0.330000       1.00800           0
      3974 MEMB     55       POPE     HN3      HCL      0.330000       1.00800           0
      3975 MEMB     55       POPE     C12      CTL2     0.130000       12.0110           0
      3976 MEMB     55       POPE     H12A     HAL2     0.900000E-01   1.00800           0
      3977 MEMB     55       POPE     H12B     HAL2     0.900000E-01   1.00800           0
      3978 MEMB     55       POPE     C11      CTL2    -0.800000E-01   12.0110           0
      3979 MEMB     55       POPE     H11A     HAL2     0.900000E-01   1.00800           0
      3980 MEMB     55       POPE     H11B     HAL2     0.900000E-01   1.00800           0
      3981 MEMB     55       POPE     P        PL       1.500000       30.9740           0
      3982 MEMB     55       POPE     O13      O2L     -0.780000       15.9994           0
      3983 MEMB     55       POPE     O14      O2L     -0.780000       15.9994           0
      3984 MEMB     55       POPE     O11      OSLP    -0.570000       15.9994           0
      3985 MEMB     55       POPE     O12      OSLP    -0.570000       15.9994           0
      3986 MEMB     55       POPE     C1       CTL2    -0.800000E-01   12.0110           0
      3987 MEMB     55       POPE     HA       HAL2     0.900000E-01   1.00800           0
      3988 MEMB     55       POPE     HB       HAL2     0.900000E-01   1.00800           0
      3989 MEMB     55       POPE     C2       CTL1     0.170000       12.0110           0
      3990 MEMB     55       POPE     HS       HAL1     0.900000E-01   1.00800           0
      3991 MEMB     55       POPE     O21      OSL     -0.490000       15.9994           0
      3992 MEMB     55       POPE     C21      CL       0.900000       12.0110           0
      3993 MEMB     55       POPE     O22      OBL     -0.630000       15.9994           0
      3994 MEMB     55       POPE     C22      CTL2    -0.220000       12.0110           0
      3995 MEMB     55       POPE     H2R      HAL2     0.900000E-01   1.00800           0
      3996 MEMB     55       POPE     H2S      HAL2     0.900000E-01   1.00800           0
      3997 MEMB     55       POPE     C3       CTL2     0.800000E-01   12.0110           0
      3998 MEMB     55       POPE     HX       HAL2     0.900000E-01   1.00800           0
      3999 MEMB     55       POPE     HY       HAL2     0.900000E-01   1.00800           0
      4000 MEMB     55       POPE     O31      OSL     -0.490000       15.9994           0
      4001 MEMB     55       POPE     C31      CL       0.900000       12.0110           0
      4002 MEMB     55       POPE     O32      OBL     -0.630000       15.9994           0
      4003 MEMB     55       POPE     C32      CTL2    -0.220000       12.0110           0
      4004 MEMB     55       POPE     H2X      HAL2     0.900000E-01   1.00800           0
      4005 MEMB     55       POPE     H2Y      HAL2     0.900000E-01   1.00800           0
      4006 MEMB     55       POPE     C23      CTL2    -0.180000       12.0110           0
      4007 MEMB     55       POPE     H3R      HAL2     0.900000E-01   1.00800           0
      4008 MEMB     55       POPE     H3S      HAL2     0.900000E-01   1.00800           0
      4009 MEMB     55       POPE     C24      CTL2    -0.180000       12.0110           0
      4010 MEMB     55       POPE     H4R      HAL2     0.900000E-01   1.00800           0
      4011 MEMB     55       POPE     H4S      HAL2     0.900000E-01   1.00800           0
      4012 MEMB     55       POPE     C25      CTL2    -0.180000       12.0110           0
      4013 MEMB     55       POPE     H5R      HAL2     0.900000E-01   1.00800           0
      4014 MEMB     55       POPE     H5S      HAL2     0.900000E-01   1.00800           0
      4015 MEMB     55       POPE     C26      CTL2    -0.180000       12.0110           0
      4016 MEMB     55       POPE     H6R      HAL2     0.900000E-01   1.00800           0
      4017 MEMB     55       POPE     H6S      HAL2     0.900000E-01   1.00800           0
      4018 MEMB     55       POPE     C27      CTL2    -0.180000       12.0110           0
      4019 MEMB     55       POPE     H7R      HAL2     0.900000E-01   1.00800           0
      4020 MEMB     55       POPE     H7S      HAL2     0.900000E-01   1.00800           0
      4021 MEMB     55       POPE     C28      CTL2    -0.180000       12.0110           0
      4022 MEMB     55       POPE     H8R      HAL2     0.900000E-01   1.00800           0
      4023 MEMB     55       POPE     H8S      HAL2     0.900000E-01   1.00800           0
      4024 MEMB     55       POPE     C29      CEL1    -0.150000       12.0110           0
      4025 MEMB     55       POPE     H91      HEL1     0.150000       1.00800           0
      4026 MEMB     55       POPE     C210     CEL1    -0.150000       12.0110           0
      4027 MEMB     55       POPE     H101     HEL1     0.150000       1.00800           0
      4028 MEMB     55       POPE     C211     CTL2    -0.180000       12.0110           0
      4029 MEMB     55       POPE     H11R     HAL2     0.900000E-01   1.00800           0
      4030 MEMB     55       POPE     H11S     HAL2     0.900000E-01   1.00800           0
      4031 MEMB     55       POPE     C212     CTL2    -0.180000       12.0110           0
      4032 MEMB     55       POPE     H12R     HAL2     0.900000E-01   1.00800           0
      4033 MEMB     55       POPE     H12S     HAL2     0.900000E-01   1.00800           0
      4034 MEMB     55       POPE     C213     CTL2    -0.180000       12.0110           0
      4035 MEMB     55       POPE     H13R     HAL2     0.900000E-01   1.00800           0
      4036 MEMB     55       POPE     H13S     HAL2     0.900000E-01   1.00800           0
      4037 MEMB     55       POPE     C214     CTL2    -0.180000       12.0110           0
      4038 MEMB     55       POPE     H14R     HAL2     0.900000E-01   1.00800           0
      4039 MEMB     55       POPE     H14S     HAL2     0.900000E-01   1.00800           0
      4040 MEMB     55       POPE     C215     CTL2    -0.180000       12.0110           0
      4041 MEMB     55       POPE     H15R     HAL2     0.900000E-01   1.00800           0
      4042 MEMB     55       POPE     H15S     HAL2     0.900000E-01   1.00800           0
      4043 MEMB     55       POPE     C216     CTL2    -0.180000       12.0110           0
      4044 MEMB     55       POPE     H16R     HAL2     0.900000E-01   1.00800           0
      4045 MEMB     55       POPE     H16S     HAL2     0.900000E-01   1.00800           0
      4046 MEMB     55       POPE     C217     CTL2    -0.180000       12.0110           0
      4047 MEMB     55       POPE     H17R     HAL2     0.900000E-01   1.00800           0
      4048 MEMB     55       POPE     H17S     HAL2     0.900000E-01   1.00800           0
      4049 MEMB     55       POPE     C218     CTL3    -0.270000       12.0110           0
      4050 MEMB     55       POPE     H18R     HAL3     0.900000E-01   1.00800           0
      4051 MEMB     55       POPE     H18S     HAL3     0.900000E-01   1.00800           0
      4052 MEMB     55       POPE     H18T     HAL3     0.900000E-01   1.00800           0
      4053 MEMB     55       POPE     C33      CTL2    -0.180000       12.0110           0
      4054 MEMB     55       POPE     H3X      HAL2     0.900000E-01   1.00800           0
      4055 MEMB     55       POPE     H3Y      HAL2     0.900000E-01   1.00800           0
      4056 MEMB     55       POPE     C34      CTL2    -0.180000       12.0110           0
      4057 MEMB     55       POPE     H4X      HAL2     0.900000E-01   1.00800           0
      4058 MEMB     55       POPE     H4Y      HAL2     0.900000E-01   1.00800           0
      4059 MEMB     55       POPE     C35      CTL2    -0.180000       12.0110           0
      4060 MEMB     55       POPE     H5X      HAL2     0.900000E-01   1.00800           0
      4061 MEMB     55       POPE     H5Y      HAL2     0.900000E-01   1.00800           0
      4062 MEMB     55       POPE     C36      CTL2    -0.180000       12.0110           0
      4063 MEMB     55       POPE     H6X      HAL2     0.900000E-01   1.00800           0
      4064 MEMB     55       POPE     H6Y      HAL2     0.900000E-01   1.00800           0
      4065 MEMB     55       POPE     C37      CTL2    -0.180000       12.0110           0
      4066 MEMB     55       POPE     H7X      HAL2     0.900000E-01   1.00800           0
      4067 MEMB     55       POPE     H7Y      HAL2     0.900000E-01   1.00800           0
      4068 MEMB     55       POPE     C38      CTL2    -0.180000       12.0110           0
      4069 MEMB     55       POPE     H8X      HAL2     0.900000E-01   1.00800           0
      4070 MEMB     55       POPE     H8Y      HAL2     0.900000E-01   1.00800           0
      4071 MEMB     55       POPE     C39      CTL2    -0.180000       12.0110           0
      4072 MEMB     55       POPE     H9X      HAL2     0.900000E-01   1.00800           0
      4073 MEMB     55       POPE     H9Y      HAL2     0.900000E-01   1.00800           0
      4074 MEMB     55       POPE     C310     CTL2    -0.180000       12.0110           0
      4075 MEMB     55       POPE     H10X     HAL2     0.900000E-01   1.00800           0
      4076 MEMB     55       POPE     H10Y     HAL2     0.900000E-01   1.00800           0
      4077 MEMB     55       POPE     C311     CTL2    -0.180000       12.0110           0
      4078 MEMB     55       POPE     H11X     HAL2     0.900000E-01   1.00800           0
      4079 MEMB     55       POPE     H11Y     HAL2     0.900000E-01   1.00800           0
      4080 MEMB     55       POPE     C312     CTL2    -0.180000       12.0110           0
      4081 MEMB     55       POPE     H12X     HAL2     0.900000E-01   1.00800           0
      4082 MEMB     55       POPE     H12Y     HAL2     0.900000E-01   1.00800           0
      4083 MEMB     55       POPE     C313     CTL2    -0.180000       12.0110           0
      4084 MEMB     55       POPE     H13X     HAL2     0.900000E-01   1.00800           0
      4085 MEMB     55       POPE     H13Y     HAL2     0.900000E-01   1.00800           0
      4086 MEMB     55       POPE     C314     CTL2    -0.180000       12.0110           0
      4087 MEMB     55       POPE     H14X     HAL2     0.900000E-01   1.00800           0
      4088 MEMB     55       POPE     H14Y     HAL2     0.900000E-01   1.00800           0
      4089 MEMB     55       POPE     C315     CTL2    -0.180000       12.0110           0
      4090 MEMB     55       POPE     H15X     HAL2     0.900000E-01   1.00800           0
      4091 MEMB     55       POPE     H15Y     HAL2     0.900000E-01   1.00800           0
      4092 MEMB     55       POPE     C316     CTL3    -0.270000       12.0110           0
      4093 MEMB     55       POPE     H16X     HAL3     0.900000E-01   1.00800           0
      4094 MEMB     55       POPE     H16Y     HAL3     0.900000E-01   1.00800           0
      4095 MEMB     55       POPE     H16Z     HAL3     0.900000E-01   1.00800           0
      4096 MEMB     62       POPE     N        NH3L    -0.300000       14.0070           0
      4097 MEMB     62       POPE     HN1      HCL      0.330000       1.00800           0
      4098 MEMB     62       POPE     HN2      HCL      0.330000       1.00800           0
      4099 MEMB     62       POPE     HN3      HCL      0.330000       1.00800           0
      4100 MEMB     62       POPE     C12      CTL2     0.130000       12.0110           0
      4101 MEMB     62       POPE     H12A     HAL2     0.900000E-01   1.00800           0
      4102 MEMB     62       POPE     H12B     HAL2     0.900000E-01   1.00800           0
      4103 MEMB     62       POPE     C11      CTL2    -0.800000E-01   12.0110           0
      4104 MEMB     62       POPE     H11A     HAL2     0.900000E-01   1.00800           0
      4105 MEMB     62       POPE     H11B     HAL2     0.900000E-01   1.00800           0
      4106 MEMB     62       POPE     P        PL       1.500000       30.9740           0
      4107 MEMB     62       POPE     O13      O2L     -0.780000       15.9994           0
      4108 MEMB     62       POPE     O14      O2L     -0.780000       15.9994           0
      4109 MEMB     62       POPE     O11      OSLP    -0.570000       15.9994           0
      4110 MEMB     62       POPE     O12      OSLP    -0.570000       15.9994           0
      4111 MEMB     62       POPE     C1       CTL2    -0.800000E-01   12.0110           0
      4112 MEMB     62       POPE     HA       HAL2     0.900000E-01   1.00800           0
      4113 MEMB     62       POPE     HB       HAL2     0.900000E-01   1.00800           0
      4114 MEMB     62       POPE     C2       CTL1     0.170000       12.0110           0
      4115 MEMB     62       POPE     HS       HAL1     0.900000E-01   1.00800           0
      4116 MEMB     62       POPE     O21      OSL     -0.490000       15.9994           0
      4117 MEMB     62       POPE     C21      CL       0.900000       12.0110           0
      4118 MEMB     62       POPE     O22      OBL     -0.630000       15.9994           0
      4119 MEMB     62       POPE     C22      CTL2    -0.220000       12.0110           0
      4120 MEMB     62       POPE     H2R      HAL2     0.900000E-01   1.00800           0
      4121 MEMB     62       POPE     H2S      HAL2     0.900000E-01   1.00800           0
      4122 MEMB     62       POPE     C3       CTL2     0.800000E-01   12.0110           0
      4123 MEMB     62       POPE     HX       HAL2     0.900000E-01   1.00800           0
      4124 MEMB     62       POPE     HY       HAL2     0.900000E-01   1.00800           0
      4125 MEMB     62       POPE     O31      OSL     -0.490000       15.9994           0
      4126 MEMB     62       POPE     C31      CL       0.900000       12.0110           0
      4127 MEMB     62       POPE     O32      OBL     -0.630000       15.9994           0
      4128 MEMB     62       POPE     C32      CTL2    -0.220000       12.0110           0
      4129 MEMB     62       POPE     H2X      HAL2     0.900000E-01   1.00800           0
      4130 MEMB     62       POPE     H2Y      HAL2     0.900000E-01   1.00800           0
      4131 MEMB     62       POPE     C23      CTL2    -0.180000       12.0110           0
      4132 MEMB     62       POPE     H3R      HAL2     0.900000E-01   1.00800           0
      4133 MEMB     62       POPE     H3S      HAL2     0.900000E-01   1.00800           0
      4134 MEMB     62       POPE     C24      CTL2    -0.180000       12.0110           0
      4135 MEMB     62       POPE     H4R      HAL2     0.900000E-01   1.00800           0
      4136 MEMB     62       POPE     H4S      HAL2     0.900000E-01   1.00800           0
      4137 MEMB     62       POPE     C25      CTL2    -0.180000       12.0110           0
      4138 MEMB     62       POPE     H5R      HAL2     0.900000E-01   1.00800           0
      4139 MEMB     62       POPE     H5S      HAL2     0.900000E-01   1.00800           0
      4140 MEMB     62       POPE     C26      CTL2    -0.180000       12.0110           0
      4141 MEMB     62       POPE     H6R      HAL2     0.900000E-01   1.00800           0
      4142 MEMB     62       POPE     H6S      HAL2     0.900000E-01   1.00800           0
      4143 MEMB     62       POPE     C27      CTL2    -0.180000       12.0110           0
      4144 MEMB     62       POPE     H7R      HAL2     0.900000E-01   1.00800           0
      4145 MEMB     62       POPE     H7S      HAL2     0.900000E-01   1.00800           0
      4146 MEMB     62       POPE     C28      CTL2    -0.180000       12.0110           0
      4147 MEMB     62       POPE     H8R      HAL2     0.900000E-01   1.00800           0
      4148 MEMB     62       POPE     H8S      HAL2     0.900000E-01   1.00800           0
      4149 MEMB     62       POPE     C29      CEL1    -0.150000       12.0110           0
      4150 MEMB     62       POPE     H91      HEL1     0.150000       1.00800           0
      4151 MEMB     62       POPE     C210     CEL1    -0.150000       12.0110           0
      4152 MEMB     62       POPE     H101     HEL1     0.150000       1.00800           0
      4153 MEMB     62       POPE     C211     CTL2    -0.180000       12.0110           0
      4154 MEMB     62       POPE     H11R     HAL2     0.900000E-01   1.00800           0
      4155 MEMB     62       POPE     H11S     HAL2     0.900000E-01   1.00800           0
      4156 MEMB     62       POPE     C212     CTL2    -0.180000       12.0110           0
      4157 MEMB     62       POPE     H12R     HAL2     0.900000E-01   1.00800           0
      4158 MEMB     62       POPE     H12S     HAL2     0.900000E-01   1.00800           0
      4159 MEMB     62       POPE     C213     CTL2    -0.180000       12.0110           0
      4160 MEMB     62       POPE     H13R     HAL2     0.900000E-01   1.00800           0
      4161 MEMB     62       POPE     H13S     HAL2     0.900000E-01   1.00800           0
      4162 MEMB     62       POPE     C214     CTL2    -0.180000       12.0110           0
      4163 MEMB     62       POPE     H14R     HAL2     0.900000E-01   1.00800           0
      4164 MEMB     62       POPE     H14S     HAL2     0.900000E-01   1.00800           0
      4165 MEMB     62       POPE     C215     CTL2    -0.180000       12.0110           0
      4166 MEMB     62       POPE     H15R     HAL2     0.900000E-01   1.00800           0
      4167 MEMB     62       POPE     H15S     HAL2     0.900000E-01   1.00800           0
      4168 MEMB     62       POPE     C216     CTL2    -0.180000       12.0110           0
      4169 MEMB     62       POPE     H16R     HAL2     0.900000E-01   1.00800           0
      4170 MEMB     62       POPE     H16S     HAL2     0.900000E-01   1.00800           0
      4171 MEMB     62       POPE     C217     CTL2    -0.180000       12.0110           0
      4172 MEMB     62       POPE     H17R     HAL2     0.900000E-01   1.00800           0
      4173 MEMB     62       POPE     H17S     HAL2     0.900000E-01   1.00800           0
      4174 MEMB     62       POPE     C218     CTL3    -0.270000       12.0110           0
      4175 MEMB     62       POPE     H18R     HAL3     0.900000E-01   1.00800           0
      4176 MEMB     62       POPE     H18S     HAL3     0.900000E-01   1.00800           0
      4177 MEMB     62       POPE     H18T     HAL3     0.900000E-01   1.00800           0
      4178 MEMB     62       POPE     C33      CTL2    -0.180000       12.0110           0
      4179 MEMB     62       POPE     H3X      HAL2     0.900000E-01   1.00800           0
      4180 MEMB     62       POPE     H3Y      HAL2     0.900000E-01   1.00800           0
      4181 MEMB     62       POPE     C34      CTL2    -0.180000       12.0110           0
      4182 MEMB     62       POPE     H4X      HAL2     0.900000E-01   1.00800           0
      4183 MEMB     62       POPE     H4Y      HAL2     0.900000E-01   1.00800           0
      4184 MEMB     62       POPE     C35      CTL2    -0.180000       12.0110           0
      4185 MEMB     62       POPE     H5X      HAL2     0.900000E-01   1.00800           0
      4186 MEMB     62       POPE     H5Y      HAL2     0.900000E-01   1.00800           0
      4187 MEMB     62       POPE     C36      CTL2    -0.180000       12.0110           0
      4188 MEMB     62       POPE     H6X      HAL2     0.900000E-01   1.00800           0
      4189 MEMB     62       POPE     H6Y      HAL2     0.900000E-01   1.00800           0
      4190 MEMB     62       POPE     C37      CTL2    -0.180000       12.0110           0
      4191 MEMB     62       POPE     H7X      HAL2     0.900000E-01   1.00800           0
      4192 MEMB     62       POPE     H7Y      HAL2     0.900000E-01   1.00800           0
      4193 MEMB     62       POPE     C38      CTL2    -0.180000       12.0110           0
      4194 MEMB     62       POPE     H8X      HAL2     0.900000E-01   1.00800           0
      4195 MEMB     62       POPE     H8Y      HAL2     0.900000E-01   1.00800           0
      4196 MEMB     62       POPE     C39      CTL2    -0.180000       12.0110           0
      4197 MEMB     62       POPE     H9X      HAL2     0.900000E-01   1.00800           0
      4198 MEMB     62       POPE     H9Y      HAL2     0.900000E-01   1.00800           0
      4199 MEMB     62       POPE     C310     CTL2    -0.180000       12.0110           0
      4200 MEMB     62       POPE     H10X     HAL2     0.900000E-01   1.00800           0
      4201 MEMB     62       POPE     H10Y     HAL2     0.900000E-01   1.00800           0
      4202 MEMB     62       POPE     C311     CTL2    -0.180000       12.0110           0
      4203 MEMB     62       POPE     H11X     HAL2     0.900000E-01   1.00800           0
      4204 MEMB     62       POPE     H11Y     HAL2     0.900000E-01   1.00800           0
      4205 MEMB     62       POPE     C312     CTL2    -0.180000       12.0110           0
      4206 MEMB     62       POPE     H12X     HAL2     0.900000E-01   1.00800           0
      4207 MEMB     62       POPE     H12Y     HAL2     0.900000E-01   1.00800           0
      4208 MEMB     62       POPE     C313     CTL2    -0.180000       12.0110           0
      4209 MEMB     62       POPE     H13X     HAL2     0.900000E-01   1.00800           0
      4210 MEMB     62       POPE     H13Y     HAL2     0.900000E-01   1.00800           0
      4211 MEMB     62       POPE     C314     CTL2    -0.180000       12.0110           0
      4212 MEMB     62       POPE     H14X     HAL2     0.900000E-01   1.00800           0
      4213 MEMB     62       POPE     H14Y     HAL2     0.900000E-01   1.00800           0
      4214 MEMB     62       POPE     C315     CTL2    -0.180000       12.0110           0
      4215 MEMB     62       POPE     H15X     HAL2     0.900000E-01   1.00800           0
      4216 MEMB     62       POPE     H15Y     HAL2     0.900000E-01   1.00800           0
      4217 MEMB     62       POPE     C316     CTL3    -0.270000       12.0110           0
      4218 MEMB     62       POPE     H16X     HAL3     0.900000E-01   1.00800           0
      4219 MEMB     62       POPE     H16Y     HAL3     0.900000E-01   1.00800           0
      4220 MEMB     62       POPE     H16Z     HAL3     0.900000E-01   1.00800           0
      4221 MEMB     63       POPE     N        NH3L    -0.300000       14.0070           0
      4222 MEMB     63       POPE     HN1      HCL      0.330000       1.00800           0
      4223 MEMB     63       POPE     HN2      HCL      0.330000       1.00800           0
      4224 MEMB     63       POPE     HN3      HCL      0.330000       1.00800           0
      4225 MEMB     63       POPE     C12      CTL2     0.130000       12.0110           0
      4226 MEMB     63       POPE     H12A     HAL2     0.900000E-01   1.00800           0
      4227 MEMB     63       POPE     H12B     HAL2     0.900000E-01   1.00800           0
      4228 MEMB     63       POPE     C11      CTL2    -0.800000E-01   12.0110           0
      4229 MEMB     63       POPE     H11A     HAL2     0.900000E-01   1.00800           0
      4230 MEMB     63       POPE     H11B     HAL2     0.900000E-01   1.00800           0
      4231 MEMB     63       POPE     P        PL       1.500000       30.9740           0
      4232 MEMB     63       POPE     O13      O2L     -0.780000       15.9994           0
      4233 MEMB     63       POPE     O14      O2L     -0.780000       15.9994           0
      4234 MEMB     63       POPE     O11      OSLP    -0.570000       15.9994           0
      4235 MEMB     63       POPE     O12      OSLP    -0.570000       15.9994           0
      4236 MEMB     63       POPE     C1       CTL2    -0.800000E-01   12.0110           0
      4237 MEMB     63       POPE     HA       HAL2     0.900000E-01   1.00800           0
      4238 MEMB     63       POPE     HB       HAL2     0.900000E-01   1.00800           0
      4239 MEMB     63       POPE     C2       CTL1     0.170000       12.0110           0
      4240 MEMB     63       POPE     HS       HAL1     0.900000E-01   1.00800           0
      4241 MEMB     63       POPE     O21      OSL     -0.490000       15.9994           0
      4242 MEMB     63       POPE     C21      CL       0.900000       12.0110           0
      4243 MEMB     63       POPE     O22      OBL     -0.630000       15.9994           0
      4244 MEMB     63       POPE     C22      CTL2    -0.220000       12.0110           0
      4245 MEMB     63       POPE     H2R      HAL2     0.900000E-01   1.00800           0
      4246 MEMB     63       POPE     H2S      HAL2     0.900000E-01   1.00800           0
      4247 MEMB     63       POPE     C3       CTL2     0.800000E-01   12.0110           0
      4248 MEMB     63       POPE     HX       HAL2     0.900000E-01   1.00800           0
      4249 MEMB     63       POPE     HY       HAL2     0.900000E-01   1.00800           0
      4250 MEMB     63       POPE     O31      OSL     -0.490000       15.9994           0
      4251 MEMB     63       POPE     C31      CL       0.900000       12.0110           0
      4252 MEMB     63       POPE     O32      OBL     -0.630000       15.9994           0
      4253 MEMB     63       POPE     C32      CTL2    -0.220000       12.0110           0
      4254 MEMB     63       POPE     H2X      HAL2     0.900000E-01   1.00800           0
      4255 MEMB     63       POPE     H2Y      HAL2     0.900000E-01   1.00800           0
      4256 MEMB     63       POPE     C23      CTL2    -0.180000       12.0110           0
      4257 MEMB     63       POPE     H3R      HAL2     0.900000E-01   1.00800           0
      4258 MEMB     63       POPE     H3S      HAL2     0.900000E-01   1.00800           0
      4259 MEMB     63       POPE     C24      CTL2    -0.180000       12.0110           0
      4260 MEMB     63       POPE     H4R      HAL2     0.900000E-01   1.00800           0
      4261 MEMB     63       POPE     H4S      HAL2     0.900000E-01   1.00800           0
      4262 MEMB     63       POPE     C25      CTL2    -0.180000       12.0110           0
      4263 MEMB     63       POPE     H5R      HAL2     0.900000E-01   1.00800           0
      4264 MEMB     63       POPE     H5S      HAL2     0.900000E-01   1.00800           0
      4265 MEMB     63       POPE     C26      CTL2    -0.180000       12.0110           0
      4266 MEMB     63       POPE     H6R      HAL2     0.900000E-01   1.00800           0
      4267 MEMB     63       POPE     H6S      HAL2     0.900000E-01   1.00800           0
      4268 MEMB     63       POPE     C27      CTL2    -0.180000       12.0110           0
      4269 MEMB     63       POPE     H7R      HAL2     0.900000E-01   1.00800           0
      4270 MEMB     63       POPE     H7S      HAL2     0.900000E-01   1.00800           0
      4271 MEMB     63       POPE     C28      CTL2    -0.180000       12.0110           0
      4272 MEMB     63       POPE     H8R      HAL2     0.900000E-01   1.00800           0
      4273 MEMB     63       POPE     H8S      HAL2     0.900000E-01   1.00800           0
      4274 MEMB     63       POPE     C29      CEL1    -0.150000       12.0110           0
      4275 MEMB     63       POPE     H91      HEL1     0.150000       1.00800           0
      4276 MEMB     63       POPE     C210     CEL1    -0.150000       12.0110           0
      4277 MEMB     63       POPE     H101     HEL1     0.150000       1.00800           0
      4278 MEMB     63       POPE     C211     CTL2    -0.180000       12.0110           0
      4279 MEMB     63       POPE     H11R     HAL2     0.900000E-01   1.00800           0
      4280 MEMB     63       POPE     H11S     HAL2     0.900000E-01   1.00800           0
      4281 MEMB     63       POPE     C212     CTL2    -0.180000       12.0110           0
      4282 MEMB     63       POPE     H12R     HAL2     0.900000E-01   1.00800           0
      4283 MEMB     63       POPE     H12S     HAL2     0.900000E-01   1.00800           0
      4284 MEMB     63       POPE     C213     CTL2    -0.180000       12.0110           0
      4285 MEMB     63       POPE     H13R     HAL2     0.900000E-01   1.00800           0
      4286 MEMB     63       POPE     H13S     HAL2     0.900000E-01   1.00800           0
      4287 MEMB     63       POPE     C214     CTL2    -0.180000       12.0110           0
      4288 MEMB     63       POPE     H14R     HAL2     0.900000E-01   1.00800           0
      4289 MEMB     63       POPE     H14S     HAL2     0.900000E-01   1.00800           0
      4290 MEMB     63       POPE     C215     CTL2    -0.180000       12.0110           0
      4291 MEMB     63       POPE     H15R     HAL2     0.900000E-01   1.00800           0
      4292 MEMB     63       POPE     H15S     HAL2     0.900000E-01   1.00800           0
      4293 MEMB     63       POPE     C216     CTL2    -0.180000       12.0110           0
      4294 MEMB     63       POPE     H16R     HAL2     0.900000E-01   1.00800           0
      4295 MEMB     63       POPE     H16S     HAL2     0.900000E-01   1.00800           0
      4296 MEMB     63       POPE     C217     CTL2    -0.180000       12.0110           0
      4297 MEMB     63       POPE     H17R     HAL2     0.900000E-01   1.00800           0
      4298 MEMB     63       POPE     H17S     HAL2     0.900000E-01   1.00800           0
      4299 MEMB     63       POPE     C218     CTL3    -0.270000       12.0110           0
      4300 MEMB     63       POPE     H18R     HAL3     0.900000E-01   1.00800           0
      4301 MEMB     63       POPE     H18S     HAL3     0.900000E-01   1.00800           0
      4302 MEMB     63       POPE     H18T     HAL3     0.900000E-01   1.00800           0
      4303 MEMB     63       POPE     C33      CTL2    -0.180000       12.0110           0
      4304 MEMB     63       POPE     H3X      HAL2     0.900000E-01   1.00800           0
      4305 MEMB     63       POPE     H3Y      HAL2     0.900000E-01   1.00800           0
      4306 MEMB     63       POPE     C34      CTL2    -0.180000       12.0110           0
      4307 MEMB     63       POPE     H4X      HAL2     0.900000E-01   1.00800           0
      4308 MEMB     63       POPE     H4Y      HAL2     0.900000E-01   1.00800           0
      4309 MEMB     63       POPE     C35      CTL2    -0.180000       12.0110           0
      4310 MEMB     63       POPE     H5X      HAL2     0.900000E-01   1.00800           0
      4311 MEMB     63       POPE     H5Y      HAL2     0.900000E-01   1.00800           0
      4312 MEMB     63       POPE     C36      CTL2    -0.180000       12.0110           0
      4313 MEMB     63       POPE     H6X      HAL2     0.900000E-01   1.00800           0
      4314 MEMB     63       POPE     H6Y      HAL2     0.900000E-01   1.00800           0
      4315 MEMB     63       POPE     C37      CTL2    -0.180000       12.0110           0
      4316 MEMB     63       POPE     H7X      HAL2     0.900000E-01   1.00800           0
      4317 MEMB     63       POPE     H7Y      HAL2     0.900000E-01   1.00800           0
      4318 MEMB     63       POPE     C38      CTL2    -0.180000       12.0110           0
      4319 MEMB     63       POPE     H8X      HAL2     0.900000E-01   1.00800           0
      4320 MEMB     63       POPE     H8Y      HAL2     0.900000E-01   1.00800           0
      4321 MEMB     63       POPE     C39      CTL2    -0.180000       12.0110           0
      4322 MEMB     63       POPE     H9X      HAL2     0.900000E-01   1.00800           0
      4323 MEMB     63       POPE     H9Y      HAL2     0.900000E-01   1.00800           0
      4324 MEMB     63       POPE     C310     CTL2    -0.180000       12.0110           0
      4325 MEMB     63       POPE     H10X     HAL2     0.900000E-01   1.00800           0
      4326 MEMB     63       POPE     H10Y     HAL2     0.900000E-01   1.00800           0
      4327 MEMB     63       POPE     C311     CTL2    -0.180000       12.0110           0
      4328 MEMB     63       POPE     H11X     HAL2     0.900000E-01   1.00800           0
      4329 MEMB     63       POPE     H11Y     HAL2     0.900000E-01   1.00800           0
      4330 MEMB     63       POPE     C312     CTL2    -0.180000       12.0110           0
      4331 MEMB     63       POPE     H12X     HAL2     0.900000E-01   1.00800           0
      4332 MEMB     63       POPE     H12Y     HAL2     0.900000E-01   1.00800           0
      4333 MEMB     63       POPE     C313     CTL2    -0.180000       12.0110           0
      4334 MEMB     63       POPE     H13X     HAL2     0.900000E-01   1.00800           0
      4335 MEMB     63       POPE     H13Y     HAL2     0.900000E-01   1.00800           0
      4336 MEMB     63       POPE     C314     CTL2    -0.180000       12.0110           0
      4337 MEMB     63       POPE     H14X     HAL2     0.900000E-01   1.00800           0
      4338 MEMB     63       POPE     H14Y     HAL2     0.900000E-01   1.00800           0
      4339 MEMB     63       POPE     C315     CTL2    -0.180000       12.0110           0
      4340 MEMB     63       POPE     H15X     HAL2     0.900000E-01   1.00800           0
      4341 MEMB     63       POPE     H15Y     HAL2     0.900000E-01   1.00800           0
      4342 MEMB     63       POPE     C316     CTL3    -0.270000       12.0110           0
      4343 MEMB     63       POPE     H16X     HAL3     0.900000E-01   1.00800           0
      4344 MEMB     63       POPE     H16Y     HAL3     0.900000E-01   1.00800           0
      4345 MEMB     63       POPE     H16Z     HAL3     0.900000E-01   1.00800           0
      4346 MEMB     64       POPE     N        NH3L    -0.300000       14.0070           0
      4347 MEMB     64       POPE     HN1      HCL      0.330000       1.00800           0
      4348 MEMB     64       POPE     HN2      HCL      0.330000       1.00800           0
      4349 MEMB     64       POPE     HN3      HCL      0.330000       1.00800           0
      4350 MEMB     64       POPE     C12      CTL2     0.130000       12.0110           0
      4351 MEMB     64       POPE     H12A     HAL2     0.900000E-01   1.00800           0
      4352 MEMB     64       POPE     H12B     HAL2     0.900000E-01   1.00800           0
      4353 MEMB     64       POPE     C11      CTL2    -0.800000E-01   12.0110           0
      4354 MEMB     64       POPE     H11A     HAL2     0.900000E-01   1.00800           0
      4355 MEMB     64       POPE     H11B     HAL2     0.900000E-01   1.00800           0
      4356 MEMB     64       POPE     P        PL       1.500000       30.9740           0
      4357 MEMB     64       POPE     O13      O2L     -0.780000       15.9994           0
      4358 MEMB     64       POPE     O14      O2L     -0.780000       15.9994           0
      4359 MEMB     64       POPE     O11      OSLP    -0.570000       15.9994           0
      4360 MEMB     64       POPE     O12      OSLP    -0.570000       15.9994           0
      4361 MEMB     64       POPE     C1       CTL2    -0.800000E-01   12.0110           0
      4362 MEMB     64       POPE     HA       HAL2     0.900000E-01   1.00800           0
      4363 MEMB     64       POPE     HB       HAL2     0.900000E-01   1.00800           0
      4364 MEMB     64       POPE     C2       CTL1     0.170000       12.0110           0
      4365 MEMB     64       POPE     HS       HAL1     0.900000E-01   1.00800           0
      4366 MEMB     64       POPE     O21      OSL     -0.490000       15.9994           0
      4367 MEMB     64       POPE     C21      CL       0.900000       12.0110           0
      4368 MEMB     64       POPE     O22      OBL     -0.630000       15.9994           0
      4369 MEMB     64       POPE     C22      CTL2    -0.220000       12.0110           0
      4370 MEMB     64       POPE     H2R      HAL2     0.900000E-01   1.00800           0
      4371 MEMB     64       POPE     H2S      HAL2     0.900000E-01   1.00800           0
      4372 MEMB     64       POPE     C3       CTL2     0.800000E-01   12.0110           0
      4373 MEMB     64       POPE     HX       HAL2     0.900000E-01   1.00800           0
      4374 MEMB     64       POPE     HY       HAL2     0.900000E-01   1.00800           0
      4375 MEMB     64       POPE     O31      OSL     -0.490000       15.9994           0
      4376 MEMB     64       POPE     C31      CL       0.900000       12.0110           0
      4377 MEMB     64       POPE     O32      OBL     -0.630000       15.9994           0
      4378 MEMB     64       POPE     C32      CTL2    -0.220000       12.0110           0
      4379 MEMB     64       POPE     H2X      HAL2     0.900000E-01   1.00800           0
      4380 MEMB     64       POPE     H2Y      HAL2     0.900000E-01   1.00800           0
      4381 MEMB     64       POPE     C23      CTL2    -0.180000       12.0110           0
      4382 MEMB     64       POPE     H3R      HAL2     0.900000E-01   1.00800           0
      4383 MEMB     64       POPE     H3S      HAL2     0.900000E-01   1.00800           0
      4384 MEMB     64       POPE     C24      CTL2    -0.180000       12.0110           0
      4385 MEMB     64       POPE     H4R      HAL2     0.900000E-01   1.00800           0
      4386 MEMB     64       POPE     H4S      HAL2     0.900000E-01   1.00800           0
      4387 MEMB     64       POPE     C25      CTL2    -0.180000       12.0110           0
      4388 MEMB     64       POPE     H5R      HAL2     0.900000E-01   1.00800           0
      4389 MEMB     64       POPE     H5S      HAL2     0.900000E-01   1.00800           0
      4390 MEMB     64       POPE     C26      CTL2    -0.180000       12.0110           0
      4391 MEMB     64       POPE     H6R      HAL2     0.900000E-01   1.00800           0
      4392 MEMB     64       POPE     H6S      HAL2     0.900000E-01   1.00800           0
      4393 MEMB     64       POPE     C27      CTL2    -0.180000       12.0110           0
      4394 MEMB     64       POPE     H7R      HAL2     0.900000E-01   1.00800           0
      4395 MEMB     64       POPE     H7S      HAL2     0.900000E-01   1.00800           0
      4396 MEMB     64       POPE     C28      CTL2    -0.180000       12.0110           0
      4397 MEMB     64       POPE     H8R      HAL2     0.900000E-01   1.00800           0
      4398 MEMB     64       POPE     H8S      HAL2     0.900000E-01   1.00800           0
      4399 MEMB     64       POPE     C29      CEL1    -0.150000       12.0110           0
      4400 MEMB     64       POPE     H91      HEL1     0.150000       1.00800           0
      4401 MEMB     64       POPE     C210     CEL1    -0.150000       12.0110           0
      4402 MEMB     64       POPE     H101     HEL1     0.150000       1.00800           0
      4403 MEMB     64       POPE     C211     CTL2    -0.180000       12.0110           0
      4404 MEMB     64       POPE     H11R     HAL2     0.900000E-01   1.00800           0
      4405 MEMB     64       POPE     H11S     HAL2     0.900000E-01   1.00800           0
      4406 MEMB     64       POPE     C212     CTL2    -0.180000       12.0110           0
      4407 MEMB     64       POPE     H12R     HAL2     0.900000E-01   1.00800           0
      4408 MEMB     64       POPE     H12S     HAL2     0.900000E-01   1.00800           0
      4409 MEMB     64       POPE     C213     CTL2    -0.180000       12.0110           0
      4410 MEMB     64       POPE     H13R     HAL2     0.900000E-01   1.00800           0
      4411 MEMB     64       POPE     H13S     HAL2     0.900000E-01   1.00800           0
      4412 MEMB     64       POPE     C214     CTL2    -0.180000       12.0110           0
      4413 MEMB     64       POPE     H14R     HAL2     0.900000E-01   1.00800           0
      4414 MEMB     64       POPE     H14S     HAL2     0.900000E-01   1.00800           0
      4415 MEMB     64       POPE     C215     CTL2    -0.180000       12.0110           0
      4416 MEMB     64       POPE     H15R     HAL2     0.900000E-01   1.00800           0
      4417 MEMB     64       POPE     H15S     HAL2     0.900000E-01   1.00800           0
      4418 MEMB     64       POPE     C216     CTL2    -0.180000       12.0110           0
      4419 MEMB     64       POPE     H16R     HAL2     0.900000E-01   1.00800           0
      4420 MEMB     64       POPE     H16S     HAL2     0.900000E-01   1.00800           0
      4421 MEMB     64       POPE     C217     CTL2    -0.180000       12.0110           0
      4422 MEMB     64       POPE     H17R     HAL2     0.900000E-01   1.00800           0
      4423 MEMB     64       POPE     H17S     HAL2     0.900000E-01   1.00800           0
      4424 MEMB     64       POPE     C218     CTL3    -0.270000       12.0110           0
      4425 MEMB     64       POPE     H18R     HAL3     0.900000E-01   1.00800           0
      4426 MEMB     64       POPE     H18S     HAL3     0.900000E-01   1.00800           0
      4427 MEMB     64       POPE     H18T     HAL3     0.900000E-01   1.00800           0
      4428 MEMB     64       POPE     C33      CTL2    -0.180000       12.0110           0
      4429 MEMB     64       POPE     H3X      HAL2     0.900000E-01   1.00800           0
      4430 MEMB     64       POPE     H3Y      HAL2     0.900000E-01   1.00800           0
      4431 MEMB     64       POPE     C34      CTL2    -0.180000       12.0110           0
      4432 MEMB     64       POPE     H4X      HAL2     0.900000E-01   1.00800           0
      4433 MEMB     64       POPE     H4Y      HAL2     0.900000E-01   1.00800           0
      4434 MEMB     64       POPE     C35      CTL2    -0.180000       12.0110           0
      4435 MEMB     64       POPE     H5X      HAL2     0.900000E-01   1.00800           0
      4436 MEMB     64       POPE     H5Y      HAL2     0.900000E-01   1.00800           0
      4437 MEMB     64       POPE     C36      CTL2    -0.180000       12.0110           0
      4438 MEMB     64       POPE     H6X      HAL2     0.900000E-01   1.00800           0
      4439 MEMB     64       POPE     H6Y      HAL2     0.900000E-01   1.00800           0
      4440 MEMB     64       POPE     C37      CTL2    -0.180000       12.0110           0
      4441 MEMB     64       POPE     H7X      HAL2     0.900000E-01   1.00800           0
      4442 MEMB     64       POPE     H7Y      HAL2     0.900000E-01   1.00800           0
      4443 MEMB     64       POPE     C38      CTL2    -0.180000       12.0110           0
      4444 MEMB     64       POPE     H8X      HAL2     0.900000E-01   1.00800           0
      4445 MEMB     64       POPE     H8Y      HAL2     0.900000E-01   1.00800           0
      4446 MEMB     64       POPE     C39      CTL2    -0.180000       12.0110           0
      4447 MEMB     64       POPE     H9X      HAL2     0.900000E-01   1.00800           0
      4448 MEMB     64       POPE     H9Y      HAL2     0.900000E-01   1.00800           0
      4449 MEMB     64       POPE     C310     CTL2    -0.180000       12.0110           0
      4450 MEMB     64       POPE     H10X     HAL2     0.900000E-01   1.00800           0
      4451 MEMB     64       POPE     H10Y     HAL2     0.900000E-01   1.00800           0
      4452 MEMB     64       POPE     C311     CTL2    -0.180000       12.0110           0
      4453 MEMB     64       POPE     H11X     HAL2     0.900000E-01   1.00800           0
      4454 MEMB     64       POPE     H11Y     HAL2     0.900000E-01   1.00800           0
      4455 MEMB     64       POPE     C312     CTL2    -0.180000       12.0110           0
      4456 MEMB     64       POPE     H12X     HAL2     0.900000E-01   1.00800           0
      4457 MEMB     64       POPE     H12Y     HAL2     0.900000E-01   1.00800           0
      4458 MEMB     64       POPE     C313     CTL2    -0.180000       12.0110           0
      4459 MEMB     64       POPE     H13X     HAL2     0.900000E-01   1.00800           0
      4460 MEMB     64       POPE     H13Y     HAL2     0.900000E-01   1.00800           0
      4461 MEMB     64       POPE     C314     CTL2    -0.180000       12.0110           0
      4462 MEMB     64       POPE     H14X     HAL2     0.900000E-01   1.00800           0
      4463 MEMB     64       POPE     H14Y     HAL2     0.900000E-01   1.00800           0
      4464 MEMB     64       POPE     C315     CTL2    -0.180000       12.0110           0
      4465 MEMB     64       POPE     H15X     HAL2     0.900000E-01   1.00800           0
      4466 MEMB     64       POPE     H15Y     HAL2     0.900000E-01   1.00800           0
      4467 MEMB     64       POPE     C316     CTL3    -0.270000       12.0110           0
      4468 MEMB     64       POPE     H16X     HAL3     0.900000E-01   1.00800           0
      4469 MEMB     64       POPE     H16Y     HAL3     0.900000E-01   1.00800           0
      4470 MEMB     64       POPE     H16Z     HAL3     0.900000E-01   1.00800           0
      4471 MEMB     68       POPE     N        NH3L    -0.300000       14.0070           0
      4472 MEMB     68       POPE     HN1      HCL      0.330000       1.00800           0
      4473 MEMB     68       POPE     HN2      HCL      0.330000       1.00800           0
      4474 MEMB     68       POPE     HN3      HCL      0.330000       1.00800           0
      4475 MEMB     68       POPE     C12      CTL2     0.130000       12.0110           0
      4476 MEMB     68       POPE     H12A     HAL2     0.900000E-01   1.00800           0
      4477 MEMB     68       POPE     H12B     HAL2     0.900000E-01   1.00800           0
      4478 MEMB     68       POPE     C11      CTL2    -0.800000E-01   12.0110           0
      4479 MEMB     68       POPE     H11A     HAL2     0.900000E-01   1.00800           0
      4480 MEMB     68       POPE     H11B     HAL2     0.900000E-01   1.00800           0
      4481 MEMB     68       POPE     P        PL       1.500000       30.9740           0
      4482 MEMB     68       POPE     O13      O2L     -0.780000       15.9994           0
      4483 MEMB     68       POPE     O14      O2L     -0.780000       15.9994           0
      4484 MEMB     68       POPE     O11      OSLP    -0.570000       15.9994           0
      4485 MEMB     68       POPE     O12      OSLP    -0.570000       15.9994           0
      4486 MEMB     68       POPE     C1       CTL2    -0.800000E-01   12.0110           0
      4487 MEMB     68       POPE     HA       HAL2     0.900000E-01   1.00800           0
      4488 MEMB     68       POPE     HB       HAL2     0.900000E-01   1.00800           0
      4489 MEMB     68       POPE     C2       CTL1     0.170000       12.0110           0
      4490 MEMB     68       POPE     HS       HAL1     0.900000E-01   1.00800           0
      4491 MEMB     68       POPE     O21      OSL     -0.490000       15.9994           0
      4492 MEMB     68       POPE     C21      CL       0.900000       12.0110           0
      4493 MEMB     68       POPE     O22      OBL     -0.630000       15.9994           0
      4494 MEMB     68       POPE     C22      CTL2    -0.220000       12.0110           0
      4495 MEMB     68       POPE     H2R      HAL2     0.900000E-01   1.00800           0
      4496 MEMB     68       POPE     H2S      HAL2     0.900000E-01   1.00800           0
      4497 MEMB     68       POPE     C3       CTL2     0.800000E-01   12.0110           0
      4498 MEMB     68       POPE     HX       HAL2     0.900000E-01   1.00800           0
      4499 MEMB     68       POPE     HY       HAL2     0.900000E-01   1.00800           0
      4500 MEMB     68       POPE     O31      OSL     -0.490000       15.9994           0
      4501 MEMB     68       POPE     C31      CL       0.900000       12.0110           0
      4502 MEMB     68       POPE     O32      OBL     -0.630000       15.9994           0
      4503 MEMB     68       POPE     C32      CTL2    -0.220000       12.0110           0
      4504 MEMB     68       POPE     H2X      HAL2     0.900000E-01   1.00800           0
      4505 MEMB     68       POPE     H2Y      HAL2     0.900000E-01   1.00800           0
      4506 MEMB     68       POPE     C23      CTL2    -0.180000       12.0110           0
      4507 MEMB     68       POPE     H3R      HAL2     0.900000E-01   1.00800           0
      4508 MEMB     68       POPE     H3S      HAL2     0.900000E-01   1.00800           0
      4509 MEMB     68       POPE     C24      CTL2    -0.180000       12.0110           0
      4510 MEMB     68       POPE     H4R      HAL2     0.900000E-01   1.00800           0
      4511 MEMB     68       POPE     H4S      HAL2     0.900000E-01   1.00800           0
      4512 MEMB     68       POPE     C25      CTL2    -0.180000       12.0110           0
      4513 MEMB     68       POPE     H5R      HAL2     0.900000E-01   1.00800           0
      4514 MEMB     68       POPE     H5S      HAL2     0.900000E-01   1.00800           0
      4515 MEMB     68       POPE     C26      CTL2    -0.180000       12.0110           0
      4516 MEMB     68       POPE     H6R      HAL2     0.900000E-01   1.00800           0
      4517 MEMB     68       POPE     H6S      HAL2     0.900000E-01   1.00800           0
      4518 MEMB     68       POPE     C27      CTL2    -0.180000       12.0110           0
      4519 MEMB     68       POPE     H7R      HAL2     0.900000E-01   1.00800           0
      4520 MEMB     68       POPE     H7S      HAL2     0.900000E-01   1.00800           0
      4521 MEMB     68       POPE     C28      CTL2    -0.180000       12.0110           0
      4522 MEMB     68       POPE     H8R      HAL2     0.900000E-01   1.00800           0
      4523 MEMB     68       POPE     H8S      HAL2     0.900000E-01   1.00800           0
      4524 MEMB     68       POPE     C29      CEL1    -0.150000       12.0110           0
      4525 MEMB     68       POPE     H91      HEL1     0.150000       1.00800           0
      4526 MEMB     68       POPE     C210     CEL1    -0.150000       12.0110           0
      4527 MEMB     68       POPE     H101     HEL1     0.150000       1.00800           0
      4528 MEMB     68       POPE     C211     CTL2    -0.180000       12.0110           0
      4529 MEMB     68       POPE     H11R     HAL2     0.900000E-01   1.00800           0
      4530 MEMB     68       POPE     H11S     HAL2     0.900000E-01   1.00800           0
      4531 MEMB     68       POPE     C212     CTL2    -0.180000       12.0110           0
      4532 MEMB     68       POPE     H12R     HAL2     0.900000E-01   1.00800           0
      4533 MEMB     68       POPE     H12S     HAL2     0.900000E-01   1.00800           0
      4534 MEMB     68       POPE     C213     CTL2    -0.180000       12.0110           0
      4535 MEMB     68       POPE     H13R     HAL2     0.900000E-01   1.00800           0
      4536 MEMB     68       POPE     H13S     HAL2     0.900000E-01   1.00800           0
      4537 MEMB     68       POPE     C214     CTL2    -0.180000       12.0110           0
      4538 MEMB     68       POPE     H14R     HAL2     0.900000E-01   1.00800           0
      4539 MEMB     68       POPE     H14S     HAL2     0.900000E-01   1.00800           0
      4540 MEMB     68       POPE     C215     CTL2    -0.180000       12.0110           0
      4541 MEMB     68       POPE     H15R     HAL2     0.900000E-01   1.00800           0
      4542 MEMB     68       POPE     H15S     HAL2     0.900000E-01   1.00800           0
      4543 MEMB     68       POPE     C216     CTL2    -0.180000       12.0110           0
      4544 MEMB     68       POPE     H16R     HAL2     0.900000E-01   1.00800           0
      4545 MEMB     68       POPE     H16S     HAL2     0.900000E-01   1.00800           0
      4546 MEMB     68       POPE     C217     CTL2    -0.180000       12.0110           0
      4547 MEMB     68       POPE     H17R     HAL2     0.900000E-01   1.00800           0
      4548 MEMB     68       POPE     H17S     HAL2     0.900000E-01   1.00800           0
      4549 MEMB     68       POPE     C218     CTL3    -0.270000       12.0110           0
      4550 MEMB     68       POPE     H18R     HAL3     0.900000E-01   1.00800           0
      4551 MEMB     68       POPE     H18S     HAL3     0.900000E-01   1.00800           0
      4552 MEMB     68       POPE     H18T     HAL3     0.900000E-01   1.00800           0
      4553 MEMB     68       POPE     C33      CTL2    -0.180000       12.0110           0
      4554 MEMB     68       POPE     H3X      HAL2     0.900000E-01   1.00800           0
      4555 MEMB     68       POPE     H3Y      HAL2     0.900000E-01   1.00800           0
      4556 MEMB     68       POPE     C34      CTL2    -0.180000       12.0110           0
      4557 MEMB     68       POPE     H4X      HAL2     0.900000E-01   1.00800           0
      4558 MEMB     68       POPE     H4Y      HAL2     0.900000E-01   1.00800           0
      4559 MEMB     68       POPE     C35      CTL2    -0.180000       12.0110           0
      4560 MEMB     68       POPE     H5X      HAL2     0.900000E-01   1.00800           0
      4561 MEMB     68       POPE     H5Y      HAL2     0.900000E-01   1.00800           0
      4562 MEMB     68       POPE     C36      CTL2    -0.180000       12.0110           0
      4563 MEMB     68       POPE     H6X      HAL2     0.900000E-01   1.00800           0
      4564 MEMB     68       POPE     H6Y      HAL2     0.900000E-01   1.00800           0
      4565 MEMB     68       POPE     C37      CTL2    -0.180000       12.0110           0
      4566 MEMB     68       POPE     H7X      HAL2     0.900000E-01   1.00800           0
      4567 MEMB     68       POPE     H7Y      HAL2     0.900000E-01   1.00800           0
      4568 MEMB     68       POPE     C38      CTL2    -0.180000       12.0110           0
      4569 MEMB     68       POPE     H8X      HAL2     0.900000E-01   1.00800           0
      4570 MEMB     68       POPE     H8Y      HAL2     0.900000E-01   1.00800           0
      4571 MEMB     68       POPE     C39      CTL2    -0.180000       12.0110           0
      4572 MEMB     68       POPE     H9X      HAL2     0.900000E-01   1.00800           0
      4573 MEMB     68       POPE     H9Y      HAL2     0.900000E-01   1.00800           0
      4574 MEMB     68       POPE     C310     CTL2    -0.180000       12.0110           0
      4575 MEMB     68       POPE     H10X     HAL2     0.900000E-01   1.00800           0
      4576 MEMB     68       POPE     H10Y     HAL2     0.900000E-01   1.00800           0
      4577 MEMB     68       POPE     C311     CTL2    -0.180000       12.0110           0
      4578 MEMB     68       POPE     H11X     HAL2     0.900000E-01   1.00800           0
      4579 MEMB     68       POPE     H11Y     HAL2     0.900000E-01   1.00800           0
      4580 MEMB     68       POPE     C312     CTL2    -0.180000       12.0110           0
      4581 MEMB     68       POPE     H12X     HAL2     0.900000E-01   1.00800           0
      4582 MEMB     68       POPE     H12Y     HAL2     0.900000E-01   1.00800           0
      4583 MEMB     68       POPE     C313     CTL2    -0.180000       12.0110           0
      4584 MEMB     68       POPE     H13X     HAL2     0.900000E-01   1.00800           0
      4585 MEMB     68       POPE     H13Y     HAL2     0.900000E-01   1.00800           0
      4586 MEMB     68       POPE     C314     CTL2    -0.180000       12.0110           0
      4587 MEMB     68       POPE     H14X     HAL2     0.900000E-01   1.00800           0
      4588 MEMB     68       POPE     H14Y     HAL2     0.900000E-01   1.00800           0
      4589 MEMB     68       POPE     C315     CTL2    -0.180000       12.0110           0
      4590 MEMB     68       POPE     H15X     HAL2     0.900000E-01   1.00800           0
      4591 MEMB     68       POPE     H15Y     HAL2     0.900000E-01   1.00800           0
      4592 MEMB     68       POPE     C316     CTL3    -0.270000       12.0110           0
      4593 MEMB     68       POPE     H16X     HAL3     0.900000E-01   1.00800           0
      4594 MEMB     68       POPE     H16Y     HAL3     0.900000E-01   1.00800           0
      4595 MEMB     68       POPE     H16Z     HAL3     0.900000E-01   1.00800           0
      4596 MEMB     75       POPE     N        NH3L    -0.300000       14.0070           0
      4597 MEMB     75       POPE     HN1      HCL      0.330000       1.00800           0
      4598 MEMB     75       POPE     HN2      HCL      0.330000       1.00800           0
      4599 MEMB     75       POPE     HN3      HCL      0.330000       1.00800           0
      4600 MEMB     75       POPE     C12      CTL2     0.130000       12.0110           0
      4601 MEMB     75       POPE     H12A     HAL2     0.900000E-01   1.00800           0
      4602 MEMB     75       POPE     H12B     HAL2     0.900000E-01   1.00800           0
      4603 MEMB     75       POPE     C11      CTL2    -0.800000E-01   12.0110           0
      4604 MEMB     75       POPE     H11A     HAL2     0.900000E-01   1.00800           0
      4605 MEMB     75       POPE     H11B     HAL2     0.900000E-01   1.00800           0
      4606 MEMB     75       POPE     P        PL       1.500000       30.9740           0
      4607 MEMB     75       POPE     O13      O2L     -0.780000       15.9994           0
      4608 MEMB     75       POPE     O14      O2L     -0.780000       15.9994           0
      4609 MEMB     75       POPE     O11      OSLP    -0.570000       15.9994           0
      4610 MEMB     75       POPE     O12      OSLP    -0.570000       15.9994           0
      4611 MEMB     75       POPE     C1       CTL2    -0.800000E-01   12.0110           0
      4612 MEMB     75       POPE     HA       HAL2     0.900000E-01   1.00800           0
      4613 MEMB     75       POPE     HB       HAL2     0.900000E-01   1.00800           0
      4614 MEMB     75       POPE     C2       CTL1     0.170000       12.0110           0
      4615 MEMB     75       POPE     HS       HAL1     0.900000E-01   1.00800           0
      4616 MEMB     75       POPE     O21      OSL     -0.490000       15.9994           0
      4617 MEMB     75       POPE     C21      CL       0.900000       12.0110           0
      4618 MEMB     75       POPE     O22      OBL     -0.630000       15.9994           0
      4619 MEMB     75       POPE     C22      CTL2    -0.220000       12.0110           0
      4620 MEMB     75       POPE     H2R      HAL2     0.900000E-01   1.00800           0
      4621 MEMB     75       POPE     H2S      HAL2     0.900000E-01   1.00800           0
      4622 MEMB     75       POPE     C3       CTL2     0.800000E-01   12.0110           0
      4623 MEMB     75       POPE     HX       HAL2     0.900000E-01   1.00800           0
      4624 MEMB     75       POPE     HY       HAL2     0.900000E-01   1.00800           0
      4625 MEMB     75       POPE     O31      OSL     -0.490000       15.9994           0
      4626 MEMB     75       POPE     C31      CL       0.900000       12.0110           0
      4627 MEMB     75       POPE     O32      OBL     -0.630000       15.9994           0
      4628 MEMB     75       POPE     C32      CTL2    -0.220000       12.0110           0
      4629 MEMB     75       POPE     H2X      HAL2     0.900000E-01   1.00800           0
      4630 MEMB     75       POPE     H2Y      HAL2     0.900000E-01   1.00800           0
      4631 MEMB     75       POPE     C23      CTL2    -0.180000       12.0110           0
      4632 MEMB     75       POPE     H3R      HAL2     0.900000E-01   1.00800           0
      4633 MEMB     75       POPE     H3S      HAL2     0.900000E-01   1.00800           0
      4634 MEMB     75       POPE     C24      CTL2    -0.180000       12.0110           0
      4635 MEMB     75       POPE     H4R      HAL2     0.900000E-01   1.00800           0
      4636 MEMB     75       POPE     H4S      HAL2     0.900000E-01   1.00800           0
      4637 MEMB     75       POPE     C25      CTL2    -0.180000       12.0110           0
      4638 MEMB     75       POPE     H5R      HAL2     0.900000E-01   1.00800           0
      4639 MEMB     75       POPE     H5S      HAL2     0.900000E-01   1.00800           0
      4640 MEMB     75       POPE     C26      CTL2    -0.180000       12.0110           0
      4641 MEMB     75       POPE     H6R      HAL2     0.900000E-01   1.00800           0
      4642 MEMB     75       POPE     H6S      HAL2     0.900000E-01   1.00800           0
      4643 MEMB     75       POPE     C27      CTL2    -0.180000       12.0110           0
      4644 MEMB     75       POPE     H7R      HAL2     0.900000E-01   1.00800           0
      4645 MEMB     75       POPE     H7S      HAL2     0.900000E-01   1.00800           0
      4646 MEMB     75       POPE     C28      CTL2    -0.180000       12.0110           0
      4647 MEMB     75       POPE     H8R      HAL2     0.900000E-01   1.00800           0
      4648 MEMB     75       POPE     H8S      HAL2     0.900000E-01   1.00800           0
      4649 MEMB     75       POPE     C29      CEL1    -0.150000       12.0110           0
      4650 MEMB     75       POPE     H91      HEL1     0.150000       1.00800           0
      4651 MEMB     75       POPE     C210     CEL1    -0.150000       12.0110           0
      4652 MEMB     75       POPE     H101     HEL1     0.150000       1.00800           0
      4653 MEMB     75       POPE     C211     CTL2    -0.180000       12.0110           0
      4654 MEMB     75       POPE     H11R     HAL2     0.900000E-01   1.00800           0
      4655 MEMB     75       POPE     H11S     HAL2     0.900000E-01   1.00800           0
      4656 MEMB     75       POPE     C212     CTL2    -0.180000       12.0110           0
      4657 MEMB     75       POPE     H12R     HAL2     0.900000E-01   1.00800           0
      4658 MEMB     75       POPE     H12S     HAL2     0.900000E-01   1.00800           0
      4659 MEMB     75       POPE     C213     CTL2    -0.180000       12.0110           0
      4660 MEMB     75       POPE     H13R     HAL2     0.900000E-01   1.00800           0
      4661 MEMB     75       POPE     H13S     HAL2     0.900000E-01   1.00800           0
      4662 MEMB     75       POPE     C214     CTL2    -0.180000       12.0110           0
      4663 MEMB     75       POPE     H14R     HAL2     0.900000E-01   1.00800           0
      4664 MEMB     75       POPE     H14S     HAL2     0.900000E-01   1.00800           0
      4665 MEMB     75       POPE     C215     CTL2    -0.180000       12.0110           0
      4666 MEMB     75       POPE     H15R     HAL2     0.900000E-01   1.00800           0
      4667 MEMB     75       POPE     H15S     HAL2     0.900000E-01   1.00800           0
      4668 MEMB     75       POPE     C216     CTL2    -0.180000       12.0110           0
      4669 MEMB     75       POPE     H16R     HAL2     0.900000E-01   1.00800           0
      4670 MEMB     75       POPE     H16S     HAL2     0.900000E-01   1.00800           0
      4671 MEMB     75       POPE     C217     CTL2    -0.180000       12.0110           0
      4672 MEMB     75       POPE     H17R     HAL2     0.900000E-01   1.00800           0
      4673 MEMB     75       POPE     H17S     HAL2     0.900000E-01   1.00800           0
      4674 MEMB     75       POPE     C218     CTL3    -0.270000       12.0110           0
      4675 MEMB     75       POPE     H18R     HAL3     0.900000E-01   1.00800           0
      4676 MEMB     75       POPE     H18S     HAL3     0.900000E-01   1.00800           0
      4677 MEMB     75       POPE     H18T     HAL3     0.900000E-01   1.00800           0
      4678 MEMB     75       POPE     C33      CTL2    -0.180000       12.0110           0
      4679 MEMB     75       POPE     H3X      HAL2     0.900000E-01   1.00800           0
      4680 MEMB     75       POPE     H3Y      HAL2     0.900000E-01   1.00800           0
      4681 MEMB     75       POPE     C34      CTL2    -0.180000       12.0110           0
      4682 MEMB     75       POPE     H4X      HAL2     0.900000E-01   1.00800           0
      4683 MEMB     75       POPE     H4Y      HAL2     0.900000E-01   1.00800           0
      4684 MEMB     75       POPE     C35      CTL2    -0.180000       12.0110           0
      4685 MEMB     75       POPE     H5X      HAL2     0.900000E-01   1.00800           0
      4686 MEMB     75       POPE     H5Y      HAL2     0.900000E-01   1.00800           0
      4687 MEMB     75       POPE     C36      CTL2    -0.180000       12.0110           0
      4688 MEMB     75       POPE     H6X      HAL2     0.900000E-01   1.00800           0
      4689 MEMB     75       POPE     H6Y      HAL2     0.900000E-01   1.00800           0
      4690 MEMB     75       POPE     C37      CTL2    -0.180000       12.0110           0
      4691 MEMB     75       POPE     H7X      HAL2     0.900000E-01   1.00800           0
      4692 MEMB     75       POPE     H7Y      HAL2     0.900000E-01   1.00800           0
      4693 MEMB     75       POPE     C38      CTL2    -0.180000       12.0110           0
      4694 MEMB     75       POPE     H8X      HAL2     0.900000E-01   1.00800           0
      4695 MEMB     75       POPE     H8Y      HAL2     0.900000E-01   1.00800           0
      4696 MEMB     75       POPE     C39      CTL2    -0.180000       12.0110           0
      4697 MEMB     75       POPE     H9X      HAL2     0.900000E-01   1.00800           0
      4698 MEMB     75       POPE     H9Y      HAL2     0.900000E-01   1.00800           0
      4699 MEMB     75       POPE     C310     CTL2    -0.180000       12.0110           0
      4700 MEMB     75       POPE     H10X     HAL2     0.900000E-01   1.00800           0
      4701 MEMB     75       POPE     H10Y     HAL2     0.900000E-01   1.00800           0
      4702 MEMB     75       POPE     C311     CTL2    -0.180000       12.0110           0
      4703 MEMB     75       POPE     H11X     HAL2     0.900000E-01   1.00800           0
      4704 MEMB     75       POPE     H11Y     HAL2     0.900000E-01   1.00800           0
      4705 MEMB     75       POPE     C312     CTL2    -0.180000       12.0110           0
      4706 MEMB     75       POPE     H12X     HAL2     0.900000E-01   1.00800           0
      4707 MEMB     75       POPE     H12Y     HAL2     0.900000E-01   1.00800           0
      4708 MEMB     75       POPE     C313     CTL2    -0.180000       12.0110           0
      4709 MEMB     75       POPE     H13X     HAL2     0.900000E-01   1.00800           0
      4710 MEMB     75       POPE     H13Y     HAL2     0.900000E-01   1.00800           0
      4711 MEMB     75       POPE     C314     CTL2    -0.180000       12.0110           0
      4712 MEMB     75       POPE     H14X     HAL2     0.900000E-01   1.00800           0
      4713 MEMB     75       POPE     H14Y     HAL2     0.900000E-01   1.00800           0
      4714 MEMB     75       POPE     C315     CTL2    -0.180000       12.0110           0
      4715 MEMB     75       POPE     H15X     HAL2     0.900000E-01   1.00800           0
      4716 MEMB     75       POPE     H15Y     HAL2     0.900000E-01   1.00800           0
      4717 MEMB     75       POPE     C316     CTL3    -0.270000       12.0110           0
      4718 MEMB     75       POPE     H16X     HAL3     0.900000E-01   1.00800           0
      4719 MEMB     75       POPE     H16Y     HAL3     0.900000E-01   1.00800           0
      4720 MEMB     75       POPE     H16Z     HAL3     0.900000E-01   1.00800           0
      4721 MEMB     77       POPE     N        NH3L    -0.300000       14.0070           0
      4722 MEMB     77       POPE     HN1      HCL      0.330000       1.00800           0
      4723 MEMB     77       POPE     HN2      HCL      0.330000       1.00800           0
      4724 MEMB     77       POPE     HN3      HCL      0.330000       1.00800           0
      4725 MEMB     77       POPE     C12      CTL2     0.130000       12.0110           0
      4726 MEMB     77       POPE     H12A     HAL2     0.900000E-01   1.00800           0
      4727 MEMB     77       POPE     H12B     HAL2     0.900000E-01   1.00800           0
      4728 MEMB     77       POPE     C11      CTL2    -0.800000E-01   12.0110           0
      4729 MEMB     77       POPE     H11A     HAL2     0.900000E-01   1.00800           0
      4730 MEMB     77       POPE     H11B     HAL2     0.900000E-01   1.00800           0
      4731 MEMB     77       POPE     P        PL       1.500000       30.9740           0
      4732 MEMB     77       POPE     O13      O2L     -0.780000       15.9994           0
      4733 MEMB     77       POPE     O14      O2L     -0.780000       15.9994           0
      4734 MEMB     77       POPE     O11      OSLP    -0.570000       15.9994           0
      4735 MEMB     77       POPE     O12      OSLP    -0.570000       15.9994           0
      4736 MEMB     77       POPE     C1       CTL2    -0.800000E-01   12.0110           0
      4737 MEMB     77       POPE     HA       HAL2     0.900000E-01   1.00800           0
      4738 MEMB     77       POPE     HB       HAL2     0.900000E-01   1.00800           0
      4739 MEMB     77       POPE     C2       CTL1     0.170000       12.0110           0
      4740 MEMB     77       POPE     HS       HAL1     0.900000E-01   1.00800           0
      4741 MEMB     77       POPE     O21      OSL     -0.490000       15.9994           0
      4742 MEMB     77       POPE     C21      CL       0.900000       12.0110           0
      4743 MEMB     77       POPE     O22      OBL     -0.630000       15.9994           0
      4744 MEMB     77       POPE     C22      CTL2    -0.220000       12.0110           0
      4745 MEMB     77       POPE     H2R      HAL2     0.900000E-01   1.00800           0
      4746 MEMB     77       POPE     H2S      HAL2     0.900000E-01   1.00800           0
      4747 MEMB     77       POPE     C3       CTL2     0.800000E-01   12.0110           0
      4748 MEMB     77       POPE     HX       HAL2     0.900000E-01   1.00800           0
      4749 MEMB     77       POPE     HY       HAL2     0.900000E-01   1.00800           0
      4750 MEMB     77       POPE     O31      OSL     -0.490000       15.9994           0
      4751 MEMB     77       POPE     C31      CL       0.900000       12.0110           0
      4752 MEMB     77       POPE     O32      OBL     -0.630000       15.9994           0
      4753 MEMB     77       POPE     C32      CTL2    -0.220000       12.0110           0
      4754 MEMB     77       POPE     H2X      HAL2     0.900000E-01   1.00800           0
      4755 MEMB     77       POPE     H2Y      HAL2     0.900000E-01   1.00800           0
      4756 MEMB     77       POPE     C23      CTL2    -0.180000       12.0110           0
      4757 MEMB     77       POPE     H3R      HAL2     0.900000E-01   1.00800           0
      4758 MEMB     77       POPE     H3S      HAL2     0.900000E-01   1.00800           0
      4759 MEMB     77       POPE     C24      CTL2    -0.180000       12.0110           0
      4760 MEMB     77       POPE     H4R      HAL2     0.900000E-01   1.00800           0
      4761 MEMB     77       POPE     H4S      HAL2     0.900000E-01   1.00800           0
      4762 MEMB     77       POPE     C25      CTL2    -0.180000       12.0110           0
      4763 MEMB     77       POPE     H5R      HAL2     0.900000E-01   1.00800           0
      4764 MEMB     77       POPE     H5S      HAL2     0.900000E-01   1.00800           0
      4765 MEMB     77       POPE     C26      CTL2    -0.180000       12.0110           0
      4766 MEMB     77       POPE     H6R      HAL2     0.900000E-01   1.00800           0
      4767 MEMB     77       POPE     H6S      HAL2     0.900000E-01   1.00800           0
      4768 MEMB     77       POPE     C27      CTL2    -0.180000       12.0110           0
      4769 MEMB     77       POPE     H7R      HAL2     0.900000E-01   1.00800           0
      4770 MEMB     77       POPE     H7S      HAL2     0.900000E-01   1.00800           0
      4771 MEMB     77       POPE     C28      CTL2    -0.180000       12.0110           0
      4772 MEMB     77       POPE     H8R      HAL2     0.900000E-01   1.00800           0
      4773 MEMB     77       POPE     H8S      HAL2     0.900000E-01   1.00800           0
      4774 MEMB     77       POPE     C29      CEL1    -0.150000       12.0110           0
      4775 MEMB     77       POPE     H91      HEL1     0.150000       1.00800           0
      4776 MEMB     77       POPE     C210     CEL1    -0.150000       12.0110           0
      4777 MEMB     77       POPE     H101     HEL1     0.150000       1.00800           0
      4778 MEMB     77       POPE     C211     CTL2    -0.180000       12.0110           0
      4779 MEMB     77       POPE     H11R     HAL2     0.900000E-01   1.00800           0
      4780 MEMB     77       POPE     H11S     HAL2     0.900000E-01   1.00800           0
      4781 MEMB     77       POPE     C212     CTL2    -0.180000       12.0110           0
      4782 MEMB     77       POPE     H12R     HAL2     0.900000E-01   1.00800           0
      4783 MEMB     77       POPE     H12S     HAL2     0.900000E-01   1.00800           0
      4784 MEMB     77       POPE     C213     CTL2    -0.180000       12.0110           0
      4785 MEMB     77       POPE     H13R     HAL2     0.900000E-01   1.00800           0
      4786 MEMB     77       POPE     H13S     HAL2     0.900000E-01   1.00800           0
      4787 MEMB     77       POPE     C214     CTL2    -0.180000       12.0110           0
      4788 MEMB     77       POPE     H14R     HAL2     0.900000E-01   1.00800           0
      4789 MEMB     77       POPE     H14S     HAL2     0.900000E-01   1.00800           0
      4790 MEMB     77       POPE     C215     CTL2    -0.180000       12.0110           0
      4791 MEMB     77       POPE     H15R     HAL2     0.900000E-01   1.00800           0
      4792 MEMB     77       POPE     H15S     HAL2     0.900000E-01   1.00800           0
      4793 MEMB     77       POPE     C216     CTL2    -0.180000       12.0110           0
      4794 MEMB     77       POPE     H16R     HAL2     0.900000E-01   1.00800           0
      4795 MEMB     77       POPE     H16S     HAL2     0.900000E-01   1.00800           0
      4796 MEMB     77       POPE     C217     CTL2    -0.180000       12.0110           0
      4797 MEMB     77       POPE     H17R     HAL2     0.900000E-01   1.00800           0
      4798 MEMB     77       POPE     H17S     HAL2     0.900000E-01   1.00800           0
      4799 MEMB     77       POPE     C218     CTL3    -0.270000       12.0110           0
      4800 MEMB     77       POPE     H18R     HAL3     0.900000E-01   1.00800           0
      4801 MEMB     77       POPE     H18S     HAL3     0.900000E-01   1.00800           0
      4802 MEMB     77       POPE     H18T     HAL3     0.900000E-01   1.00800           0
      4803 MEMB     77       POPE     C33      CTL2    -0.180000       12.0110           0
      4804 MEMB     77       POPE     H3X      HAL2     0.900000E-01   1.00800           0
      4805 MEMB     77       POPE     H3Y      HAL2     0.900000E-01   1.00800           0
      4806 MEMB     77       POPE     C34      CTL2    -0.180000       12.0110           0
      4807 MEMB     77       POPE     H4X      HAL2     0.900000E-01   1.00800           0
      4808 MEMB     77       POPE     H4Y      HAL2     0.900000E-01   1.00800           0
      4809 MEMB     77       POPE     C35      CTL2    -0.180000       12.0110           0
      4810 MEMB     77       POPE     H5X      HAL2     0.900000E-01   1.00800           0
      4811 MEMB     77       POPE     H5Y      HAL2     0.900000E-01   1.00800           0
      4812 MEMB     77       POPE     C36      CTL2    -0.180000       12.0110           0
      4813 MEMB     77       POPE     H6X      HAL2     0.900000E-01   1.00800           0
      4814 MEMB     77       POPE     H6Y      HAL2     0.900000E-01   1.00800           0
      4815 MEMB     77       POPE     C37      CTL2    -0.180000       12.0110           0
      4816 MEMB     77       POPE     H7X      HAL2     0.900000E-01   1.00800           0
      4817 MEMB     77       POPE     H7Y      HAL2     0.900000E-01   1.00800           0
      4818 MEMB     77       POPE     C38      CTL2    -0.180000       12.0110           0
      4819 MEMB     77       POPE     H8X      HAL2     0.900000E-01   1.00800           0
      4820 MEMB     77       POPE     H8Y      HAL2     0.900000E-01   1.00800           0
      4821 MEMB     77       POPE     C39      CTL2    -0.180000       12.0110           0
      4822 MEMB     77       POPE     H9X      HAL2     0.900000E-01   1.00800           0
      4823 MEMB     77       POPE     H9Y      HAL2     0.900000E-01   1.00800           0
      4824 MEMB     77       POPE     C310     CTL2    -0.180000       12.0110           0
      4825 MEMB     77       POPE     H10X     HAL2     0.900000E-01   1.00800           0
      4826 MEMB     77       POPE     H10Y     HAL2     0.900000E-01   1.00800           0
      4827 MEMB     77       POPE     C311     CTL2    -0.180000       12.0110           0
      4828 MEMB     77       POPE     H11X     HAL2     0.900000E-01   1.00800           0
      4829 MEMB     77       POPE     H11Y     HAL2     0.900000E-01   1.00800           0
      4830 MEMB     77       POPE     C312     CTL2    -0.180000       12.0110           0
      4831 MEMB     77       POPE     H12X     HAL2     0.900000E-01   1.00800           0
      4832 MEMB     77       POPE     H12Y     HAL2     0.900000E-01   1.00800           0
      4833 MEMB     77       POPE     C313     CTL2    -0.180000       12.0110           0
      4834 MEMB     77       POPE     H13X     HAL2     0.900000E-01   1.00800           0
      4835 MEMB     77       POPE     H13Y     HAL2     0.900000E-01   1.00800           0
      4836 MEMB     77       POPE     C314     CTL2    -0.180000       12.0110           0
      4837 MEMB     77       POPE     H14X     HAL2     0.900000E-01   1.00800           0
      4838 MEMB     77       POPE     H14Y     HAL2     0.900000E-01   1.00800           0
      4839 MEMB     77       POPE     C315     CTL2    -0.180000       12.0110           0
      4840 MEMB     77       POPE     H15X     HAL2     0.900000E-01   1.00800           0
      4841 MEMB     77       POPE     H15Y     HAL2     0.900000E-01   1.00800           0
      4842 MEMB     77       POPE     C316     CTL3    -0.270000       12.0110           0
      4843 MEMB     77       POPE     H16X     HAL3     0.900000E-01   1.00800           0
      4844 MEMB     77       POPE     H16Y     HAL3     0.900000E-01   1.00800           0
      4845 MEMB     77       POPE     H16Z     HAL3     0.900000E-01   1.00800           0
      4846 MEMB     78       POPE     N        NH3L    -0.300000       14.0070           0
      4847 MEMB     78       POPE     HN1      HCL      0.330000       1.00800           0
      4848 MEMB     78       POPE     HN2      HCL      0.330000       1.00800           0
      4849 MEMB     78       POPE     HN3      HCL      0.330000       1.00800           0
      4850 MEMB     78       POPE     C12      CTL2     0.130000       12.0110           0
      4851 MEMB     78       POPE     H12A     HAL2     0.900000E-01   1.00800           0
      4852 MEMB     78       POPE     H12B     HAL2     0.900000E-01   1.00800           0
      4853 MEMB     78       POPE     C11      CTL2    -0.800000E-01   12.0110           0
      4854 MEMB     78       POPE     H11A     HAL2     0.900000E-01   1.00800           0
      4855 MEMB     78       POPE     H11B     HAL2     0.900000E-01   1.00800           0
      4856 MEMB     78       POPE     P        PL       1.500000       30.9740           0
      4857 MEMB     78       POPE     O13      O2L     -0.780000       15.9994           0
      4858 MEMB     78       POPE     O14      O2L     -0.780000       15.9994           0
      4859 MEMB     78       POPE     O11      OSLP    -0.570000       15.9994           0
      4860 MEMB     78       POPE     O12      OSLP    -0.570000       15.9994           0
      4861 MEMB     78       POPE     C1       CTL2    -0.800000E-01   12.0110           0
      4862 MEMB     78       POPE     HA       HAL2     0.900000E-01   1.00800           0
      4863 MEMB     78       POPE     HB       HAL2     0.900000E-01   1.00800           0
      4864 MEMB     78       POPE     C2       CTL1     0.170000       12.0110           0
      4865 MEMB     78       POPE     HS       HAL1     0.900000E-01   1.00800           0
      4866 MEMB     78       POPE     O21      OSL     -0.490000       15.9994           0
      4867 MEMB     78       POPE     C21      CL       0.900000       12.0110           0
      4868 MEMB     78       POPE     O22      OBL     -0.630000       15.9994           0
      4869 MEMB     78       POPE     C22      CTL2    -0.220000       12.0110           0
      4870 MEMB     78       POPE     H2R      HAL2     0.900000E-01   1.00800           0
      4871 MEMB     78       POPE     H2S      HAL2     0.900000E-01   1.00800           0
      4872 MEMB     78       POPE     C3       CTL2     0.800000E-01   12.0110           0
      4873 MEMB     78       POPE     HX       HAL2     0.900000E-01   1.00800           0
      4874 MEMB     78       POPE     HY       HAL2     0.900000E-01   1.00800           0
      4875 MEMB     78       POPE     O31      OSL     -0.490000       15.9994           0
      4876 MEMB     78       POPE     C31      CL       0.900000       12.0110           0
      4877 MEMB     78       POPE     O32      OBL     -0.630000       15.9994           0
      4878 MEMB     78       POPE     C32      CTL2    -0.220000       12.0110           0
      4879 MEMB     78       POPE     H2X      HAL2     0.900000E-01   1.00800           0
      4880 MEMB     78       POPE     H2Y      HAL2     0.900000E-01   1.00800           0
      4881 MEMB     78       POPE     C23      CTL2    -0.180000       12.0110           0
      4882 MEMB     78       POPE     H3R      HAL2     0.900000E-01   1.00800           0
      4883 MEMB     78       POPE     H3S      HAL2     0.900000E-01   1.00800           0
      4884 MEMB     78       POPE     C24      CTL2    -0.180000       12.0110           0
      4885 MEMB     78       POPE     H4R      HAL2     0.900000E-01   1.00800           0
      4886 MEMB     78       POPE     H4S      HAL2     0.900000E-01   1.00800           0
      4887 MEMB     78       POPE     C25      CTL2    -0.180000       12.0110           0
      4888 MEMB     78       POPE     H5R      HAL2     0.900000E-01   1.00800           0
      4889 MEMB     78       POPE     H5S      HAL2     0.900000E-01   1.00800           0
      4890 MEMB     78       POPE     C26      CTL2    -0.180000       12.0110           0
      4891 MEMB     78       POPE     H6R      HAL2     0.900000E-01   1.00800           0
      4892 MEMB     78       POPE     H6S      HAL2     0.900000E-01   1.00800           0
      4893 MEMB     78       POPE     C27      CTL2    -0.180000       12.0110           0
      4894 MEMB     78       POPE     H7R      HAL2     0.900000E-01   1.00800           0
      4895 MEMB     78       POPE     H7S      HAL2     0.900000E-01   1.00800           0
      4896 MEMB     78       POPE     C28      CTL2    -0.180000       12.0110           0
      4897 MEMB     78       POPE     H8R      HAL2     0.900000E-01   1.00800           0
      4898 MEMB     78       POPE     H8S      HAL2     0.900000E-01   1.00800           0
      4899 MEMB     78       POPE     C29      CEL1    -0.150000       12.0110           0
      4900 MEMB     78       POPE     H91      HEL1     0.150000       1.00800           0
      4901 MEMB     78       POPE     C210     CEL1    -0.150000       12.0110           0
      4902 MEMB     78       POPE     H101     HEL1     0.150000       1.00800           0
      4903 MEMB     78       POPE     C211     CTL2    -0.180000       12.0110           0
      4904 MEMB     78       POPE     H11R     HAL2     0.900000E-01   1.00800           0
      4905 MEMB     78       POPE     H11S     HAL2     0.900000E-01   1.00800           0
      4906 MEMB     78       POPE     C212     CTL2    -0.180000       12.0110           0
      4907 MEMB     78       POPE     H12R     HAL2     0.900000E-01   1.00800           0
      4908 MEMB     78       POPE     H12S     HAL2     0.900000E-01   1.00800           0
      4909 MEMB     78       POPE     C213     CTL2    -0.180000       12.0110           0
      4910 MEMB     78       POPE     H13R     HAL2     0.900000E-01   1.00800           0
      4911 MEMB     78       POPE     H13S     HAL2     0.900000E-01   1.00800           0
      4912 MEMB     78       POPE     C214     CTL2    -0.180000       12.0110           0
      4913 MEMB     78       POPE     H14R     HAL2     0.900000E-01   1.00800           0
      4914 MEMB     78       POPE     H14S     HAL2     0.900000E-01   1.00800           0
      4915 MEMB     78       POPE     C215     CTL2    -0.180000       12.0110           0
      4916 MEMB     78       POPE     H15R     HAL2     0.900000E-01   1.00800           0
      4917 MEMB     78       POPE     H15S     HAL2     0.900000E-01   1.00800           0
      4918 MEMB     78       POPE     C216     CTL2    -0.180000       12.0110           0
      4919 MEMB     78       POPE     H16R     HAL2     0.900000E-01   1.00800           0
      4920 MEMB     78       POPE     H16S     HAL2     0.900000E-01   1.00800           0
      4921 MEMB     78       POPE     C217     CTL2    -0.180000       12.0110           0
      4922 MEMB     78       POPE     H17R     HAL2     0.900000E-01   1.00800           0
      4923 MEMB     78       POPE     H17S     HAL2     0.900000E-01   1.00800           0
      4924 MEMB     78       POPE     C218     CTL3    -0.270000       12.0110           0
      4925 MEMB     78       POPE     H18R     HAL3     0.900000E-01   1.00800           0
      4926 MEMB     78       POPE     H18S     HAL3     0.900000E-01   1.00800           0
      4927 MEMB     78       POPE     H18T     HAL3     0.900000E-01   1.00800           0
      4928 MEMB     78       POPE     C33      CTL2    -0.180000       12.0110           0
      4929 MEMB     78       POPE     H3X      HAL2     0.900000E-01   1.00800           0
      4930 MEMB     78       POPE     H3Y      HAL2     0.900000E-01   1.00800           0
      4931 MEMB     78       POPE     C34      CTL2    -0.180000       12.0110           0
      4932 MEMB     78       POPE     H4X      HAL2     0.900000E-01   1.00800           0
      4933 MEMB     78       POPE     H4Y      HAL2     0.900000E-01   1.00800           0
      4934 MEMB     78       POPE     C35      CTL2    -0.180000       12.0110           0
      4935 MEMB     78       POPE     H5X      HAL2     0.900000E-01   1.00800           0
      4936 MEMB     78       POPE     H5Y      HAL2     0.900000E-01   1.00800           0
      4937 MEMB     78       POPE     C36      CTL2    -0.180000       12.0110           0
      4938 MEMB     78       POPE     H6X      HAL2     0.900000E-01   1.00800           0
      4939 MEMB     78       POPE     H6Y      HAL2     0.900000E-01   1.00800           0
      4940 MEMB     78       POPE     C37      CTL2    -0.180000       12.0110           0
      4941 MEMB     78       POPE     H7X      HAL2     0.900000E-01   1.00800           0
      4942 MEMB     78       POPE     H7Y      HAL2     0.900000E-01   1.00800           0
      4943 MEMB     78       POPE     C38      CTL2    -0.180000       12.0110           0
      4944 MEMB     78       POPE     H8X      HAL2     0.900000E-01   1.00800           0
      4945 MEMB     78       POPE     H8Y      HAL2     0.900000E-01   1.00800           0
      4946 MEMB     78       POPE     C39      CTL2    -0.180000       12.0110           0
      4947 MEMB     78       POPE     H9X      HAL2     0.900000E-01   1.00800           0
      4948 MEMB     78       POPE     H9Y      HAL2     0.900000E-01   1.00800           0
      4949 MEMB     78       POPE     C310     CTL2    -0.180000       12.0110           0
      4950 MEMB     78       POPE     H10X     HAL2     0.900000E-01   1.00800           0
      4951 MEMB     78       POPE     H10Y     HAL2     0.900000E-01   1.00800           0
      4952 MEMB     78       POPE     C311     CTL2    -0.180000       12.0110           0
      4953 MEMB     78       POPE     H11X     HAL2     0.900000E-01   1.00800           0
      4954 MEMB     78       POPE     H11Y     HAL2     0.900000E-01   1.00800           0
      4955 MEMB     78       POPE     C312     CTL2    -0.180000       12.0110           0
      4956 MEMB     78       POPE     H12X     HAL2     0.900000E-01   1.00800           0
      4957 MEMB     78       POPE     H12Y     HAL2     0.900000E-01   1.00800           0
      4958 MEMB     78       POPE     C313     CTL2    -0.180000       12.0110           0
      4959 MEMB     78       POPE     H13X     HAL2     0.900000E-01   1.00800           0
      4960 MEMB     78       POPE     H13Y     HAL2     0.900000E-01   1.00800           0
      4961 MEMB     78       POPE     C314     CTL2    -0.180000       12.0110           0
      4962 MEMB     78       POPE     H14X     HAL2     0.900000E-01   1.00800           0
      4963 MEMB     78       POPE     H14Y     HAL2     0.900000E-01   1.00800           0
      4964 MEMB     78       POPE     C315     CTL2    -0.180000       12.0110           0
      4965 MEMB     78       POPE     H15X     HAL2     0.900000E-01   1.00800           0
      4966 MEMB     78       POPE     H15Y     HAL2     0.900000E-01   1.00800           0
      4967 MEMB     78       POPE     C316     CTL3    -0.270000       12.0110           0
      4968 MEMB     78       POPE     H16X     HAL3     0.900000E-01   1.00800           0
      4969 MEMB     78       POPE     H16Y     HAL3     0.900000E-01   1.00800           0
      4970 MEMB     78       POPE     H16Z     HAL3     0.900000E-01   1.00800           0
      4971 MEMB     80       POPE     N        NH3L    -0.300000       14.0070           0
      4972 MEMB     80       POPE     HN1      HCL      0.330000       1.00800           0
      4973 MEMB     80       POPE     HN2      HCL      0.330000       1.00800           0
      4974 MEMB     80       POPE     HN3      HCL      0.330000       1.00800           0
      4975 MEMB     80       POPE     C12      CTL2     0.130000       12.0110           0
      4976 MEMB     80       POPE     H12A     HAL2     0.900000E-01   1.00800           0
      4977 MEMB     80       POPE     H12B     HAL2     0.900000E-01   1.00800           0
      4978 MEMB     80       POPE     C11      CTL2    -0.800000E-01   12.0110           0
      4979 MEMB     80       POPE     H11A     HAL2     0.900000E-01   1.00800           0
      4980 MEMB     80       POPE     H11B     HAL2     0.900000E-01   1.00800           0
      4981 MEMB     80       POPE     P        PL       1.500000       30.9740           0
      4982 MEMB     80       POPE     O13      O2L     -0.780000       15.9994           0
      4983 MEMB     80       POPE     O14      O2L     -0.780000       15.9994           0
      4984 MEMB     80       POPE     O11      OSLP    -0.570000       15.9994           0
      4985 MEMB     80       POPE     O12      OSLP    -0.570000       15.9994           0
      4986 MEMB     80       POPE     C1       CTL2    -0.800000E-01   12.0110           0
      4987 MEMB     80       POPE     HA       HAL2     0.900000E-01   1.00800           0
      4988 MEMB     80       POPE     HB       HAL2     0.900000E-01   1.00800           0
      4989 MEMB     80       POPE     C2       CTL1     0.170000       12.0110           0
      4990 MEMB     80       POPE     HS       HAL1     0.900000E-01   1.00800           0
      4991 MEMB     80       POPE     O21      OSL     -0.490000       15.9994           0
      4992 MEMB     80       POPE     C21      CL       0.900000       12.0110           0
      4993 MEMB     80       POPE     O22      OBL     -0.630000       15.9994           0
      4994 MEMB     80       POPE     C22      CTL2    -0.220000       12.0110           0
      4995 MEMB     80       POPE     H2R      HAL2     0.900000E-01   1.00800           0
      4996 MEMB     80       POPE     H2S      HAL2     0.900000E-01   1.00800           0
      4997 MEMB     80       POPE     C3       CTL2     0.800000E-01   12.0110           0
      4998 MEMB     80       POPE     HX       HAL2     0.900000E-01   1.00800           0
      4999 MEMB     80       POPE     HY       HAL2     0.900000E-01   1.00800           0
      5000 MEMB     80       POPE     O31      OSL     -0.490000       15.9994           0
      5001 MEMB     80       POPE     C31      CL       0.900000       12.0110           0
      5002 MEMB     80       POPE     O32      OBL     -0.630000       15.9994           0
      5003 MEMB     80       POPE     C32      CTL2    -0.220000       12.0110           0
      5004 MEMB     80       POPE     H2X      HAL2     0.900000E-01   1.00800           0
      5005 MEMB     80       POPE     H2Y      HAL2     0.900000E-01   1.00800           0
      5006 MEMB     80       POPE     C23      CTL2    -0.180000       12.0110           0
      5007 MEMB     80       POPE     H3R      HAL2     0.900000E-01   1.00800           0
      5008 MEMB     80       POPE     H3S      HAL2     0.900000E-01   1.00800           0
      5009 MEMB     80       POPE     C24      CTL2    -0.180000       12.0110           0
      5010 MEMB     80       POPE     H4R      HAL2     0.900000E-01   1.00800           0
      5011 MEMB     80       POPE     H4S      HAL2     0.900000E-01   1.00800           0
      5012 MEMB     80       POPE     C25      CTL2    -0.180000       12.0110           0
      5013 MEMB     80       POPE     H5R      HAL2     0.900000E-01   1.00800           0
      5014 MEMB     80       POPE     H5S      HAL2     0.900000E-01   1.00800           0
      5015 MEMB     80       POPE     C26      CTL2    -0.180000       12.0110           0
      5016 MEMB     80       POPE     H6R      HAL2     0.900000E-01   1.00800           0
      5017 MEMB     80       POPE     H6S      HAL2     0.900000E-01   1.00800           0
      5018 MEMB     80       POPE     C27      CTL2    -0.180000       12.0110           0
      5019 MEMB     80       POPE     H7R      HAL2     0.900000E-01   1.00800           0
      5020 MEMB     80       POPE     H7S      HAL2     0.900000E-01   1.00800           0
      5021 MEMB     80       POPE     C28      CTL2    -0.180000       12.0110           0
      5022 MEMB     80       POPE     H8R      HAL2     0.900000E-01   1.00800           0
      5023 MEMB     80       POPE     H8S      HAL2     0.900000E-01   1.00800           0
      5024 MEMB     80       POPE     C29      CEL1    -0.150000       12.0110           0
      5025 MEMB     80       POPE     H91      HEL1     0.150000       1.00800           0
      5026 MEMB     80       POPE     C210     CEL1    -0.150000       12.0110           0
      5027 MEMB     80       POPE     H101     HEL1     0.150000       1.00800           0
      5028 MEMB     80       POPE     C211     CTL2    -0.180000       12.0110           0
      5029 MEMB     80       POPE     H11R     HAL2     0.900000E-01   1.00800           0
      5030 MEMB     80       POPE     H11S     HAL2     0.900000E-01   1.00800           0
      5031 MEMB     80       POPE     C212     CTL2    -0.180000       12.0110           0
      5032 MEMB     80       POPE     H12R     HAL2     0.900000E-01   1.00800           0
      5033 MEMB     80       POPE     H12S     HAL2     0.900000E-01   1.00800           0
      5034 MEMB     80       POPE     C213     CTL2    -0.180000       12.0110           0
      5035 MEMB     80       POPE     H13R     HAL2     0.900000E-01   1.00800           0
      5036 MEMB     80       POPE     H13S     HAL2     0.900000E-01   1.00800           0
      5037 MEMB     80       POPE     C214     CTL2    -0.180000       12.0110           0
      5038 MEMB     80       POPE     H14R     HAL2     0.900000E-01   1.00800           0
      5039 MEMB     80       POPE     H14S     HAL2     0.900000E-01   1.00800           0
      5040 MEMB     80       POPE     C215     CTL2    -0.180000       12.0110           0
      5041 MEMB     80       POPE     H15R     HAL2     0.900000E-01   1.00800           0
      5042 MEMB     80       POPE     H15S     HAL2     0.900000E-01   1.00800           0
      5043 MEMB     80       POPE     C216     CTL2    -0.180000       12.0110           0
      5044 MEMB     80       POPE     H16R     HAL2     0.900000E-01   1.00800           0
      5045 MEMB     80       POPE     H16S     HAL2     0.900000E-01   1.00800           0
      5046 MEMB     80       POPE     C217     CTL2    -0.180000       12.0110           0
      5047 MEMB     80       POPE     H17R     HAL2     0.900000E-01   1.00800           0
      5048 MEMB     80       POPE     H17S     HAL2     0.900000E-01   1.00800           0
      5049 MEMB     80       POPE     C218     CTL3    -0.270000       12.0110           0
      5050 MEMB     80       POPE     H18R     HAL3     0.900000E-01   1.00800           0
      5051 MEMB     80       POPE     H18S     HAL3     0.900000E-01   1.00800           0
      5052 MEMB     80       POPE     H18T     HAL3     0.900000E-01   1.00800           0
      5053 MEMB     80       POPE     C33      CTL2    -0.180000       12.0110           0
      5054 MEMB     80       POPE     H3X      HAL2     0.900000E-01   1.00800           0
      5055 MEMB     80       POPE     H3Y      HAL2     0.900000E-01   1.00800           0
      5056 MEMB     80       POPE     C34      CTL2    -0.180000       12.0110           0
      5057 MEMB     80       POPE     H4X      HAL2     0.900000E-01   1.00800           0
      5058 MEMB     80       POPE     H4Y      HAL2     0.900000E-01   1.00800           0
      5059 MEMB     80       POPE     C35      CTL2    -0.180000       12.0110           0
      5060 MEMB     80       POPE     H5X      HAL2     0.900000E-01   1.00800           0
      5061 MEMB     80       POPE     H5Y      HAL2     0.900000E-01   1.00800           0
      5062 MEMB     80       POPE     C36      CTL2    -0.180000       12.0110           0
      5063 MEMB     80       POPE     H6X      HAL2     0.900000E-01   1.00800           0
      5064 MEMB     80       POPE     H6Y      HAL2     0.900000E-01   1.00800           0
      5065 MEMB     80       POPE     C37      CTL2    -0.180000       12.0110           0
      5066 MEMB     80       POPE     H7X      HAL2     0.900000E-01   1.00800           0
      5067 MEMB     80       POPE     H7Y      HAL2     0.900000E-01   1.00800           0
      5068 MEMB     80       POPE     C38      CTL2    -0.180000       12.0110           0
      5069 MEMB     80       POPE     H8X      HAL2     0.900000E-01   1.00800           0
      5070 MEMB     80       POPE     H8Y      HAL2     0.900000E-01   1.00800           0
      5071 MEMB     80       POPE     C39      CTL2    -0.180000       12.0110           0
      5072 MEMB     80       POPE     H9X      HAL2     0.900000E-01   1.00800           0
      5073 MEMB     80       POPE     H9Y      HAL2     0.900000E-01   1.00800           0
      5074 MEMB     80       POPE     C310     CTL2    -0.180000       12.0110           0
      5075 MEMB     80       POPE     H10X     HAL2     0.900000E-01   1.00800           0
      5076 MEMB     80       POPE     H10Y     HAL2     0.900000E-01   1.00800           0
      5077 MEMB     80       POPE     C311     CTL2    -0.180000       12.0110           0
      5078 MEMB     80       POPE     H11X     HAL2     0.900000E-01   1.00800           0
      5079 MEMB     80       POPE     H11Y     HAL2     0.900000E-01   1.00800           0
      5080 MEMB     80       POPE     C312     CTL2    -0.180000       12.0110           0
      5081 MEMB     80       POPE     H12X     HAL2     0.900000E-01   1.00800           0
      5082 MEMB     80       POPE     H12Y     HAL2     0.900000E-01   1.00800           0
      5083 MEMB     80       POPE     C313     CTL2    -0.180000       12.0110           0
      5084 MEMB     80       POPE     H13X     HAL2     0.900000E-01   1.00800           0
      5085 MEMB     80       POPE     H13Y     HAL2     0.900000E-01   1.00800           0
      5086 MEMB     80       POPE     C314     CTL2    -0.180000       12.0110           0
      5087 MEMB     80       POPE     H14X     HAL2     0.900000E-01   1.00800           0
      5088 MEMB     80       POPE     H14Y     HAL2     0.900000E-01   1.00800           0
      5089 MEMB     80       POPE     C315     CTL2    -0.180000       12.0110           0
      5090 MEMB     80       POPE     H15X     HAL2     0.900000E-01   1.00800           0
      5091 MEMB     80       POPE     H15Y     HAL2     0.900000E-01   1.00800           0
      5092 MEMB     80       POPE     C316     CTL3    -0.270000       12.0110           0
      5093 MEMB     80       POPE     H16X     HAL3     0.900000E-01   1.00800           0
      5094 MEMB     80       POPE     H16Y     HAL3     0.900000E-01   1.00800           0
      5095 MEMB     80       POPE     H16Z     HAL3     0.900000E-01   1.00800           0
      5096 MEMB     82       POPE     N        NH3L    -0.300000       14.0070           0
      5097 MEMB     82       POPE     HN1      HCL      0.330000       1.00800           0
      5098 MEMB     82       POPE     HN2      HCL      0.330000       1.00800           0
      5099 MEMB     82       POPE     HN3      HCL      0.330000       1.00800           0
      5100 MEMB     82       POPE     C12      CTL2     0.130000       12.0110           0
      5101 MEMB     82       POPE     H12A     HAL2     0.900000E-01   1.00800           0
      5102 MEMB     82       POPE     H12B     HAL2     0.900000E-01   1.00800           0
      5103 MEMB     82       POPE     C11      CTL2    -0.800000E-01   12.0110           0
      5104 MEMB     82       POPE     H11A     HAL2     0.900000E-01   1.00800           0
      5105 MEMB     82       POPE     H11B     HAL2     0.900000E-01   1.00800           0
      5106 MEMB     82       POPE     P        PL       1.500000       30.9740           0
      5107 MEMB     82       POPE     O13      O2L     -0.780000       15.9994           0
      5108 MEMB     82       POPE     O14      O2L     -0.780000       15.9994           0
      5109 MEMB     82       POPE     O11      OSLP    -0.570000       15.9994           0
      5110 MEMB     82       POPE     O12      OSLP    -0.570000       15.9994           0
      5111 MEMB     82       POPE     C1       CTL2    -0.800000E-01   12.0110           0
      5112 MEMB     82       POPE     HA       HAL2     0.900000E-01   1.00800           0
      5113 MEMB     82       POPE     HB       HAL2     0.900000E-01   1.00800           0
      5114 MEMB     82       POPE     C2       CTL1     0.170000       12.0110           0
      5115 MEMB     82       POPE     HS       HAL1     0.900000E-01   1.00800           0
      5116 MEMB     82       POPE     O21      OSL     -0.490000       15.9994           0
      5117 MEMB     82       POPE     C21      CL       0.900000       12.0110           0
      5118 MEMB     82       POPE     O22      OBL     -0.630000       15.9994           0
      5119 MEMB     82       POPE     C22      CTL2    -0.220000       12.0110           0
      5120 MEMB     82       POPE     H2R      HAL2     0.900000E-01   1.00800           0
      5121 MEMB     82       POPE     H2S      HAL2     0.900000E-01   1.00800           0
      5122 MEMB     82       POPE     C3       CTL2     0.800000E-01   12.0110           0
      5123 MEMB     82       POPE     HX       HAL2     0.900000E-01   1.00800           0
      5124 MEMB     82       POPE     HY       HAL2     0.900000E-01   1.00800           0
      5125 MEMB     82       POPE     O31      OSL     -0.490000       15.9994           0
      5126 MEMB     82       POPE     C31      CL       0.900000       12.0110           0
      5127 MEMB     82       POPE     O32      OBL     -0.630000       15.9994           0
      5128 MEMB     82       POPE     C32      CTL2    -0.220000       12.0110           0
      5129 MEMB     82       POPE     H2X      HAL2     0.900000E-01   1.00800           0
      5130 MEMB     82       POPE     H2Y      HAL2     0.900000E-01   1.00800           0
      5131 MEMB     82       POPE     C23      CTL2    -0.180000       12.0110           0
      5132 MEMB     82       POPE     H3R      HAL2     0.900000E-01   1.00800           0
      5133 MEMB     82       POPE     H3S      HAL2     0.900000E-01   1.00800           0
      5134 MEMB     82       POPE     C24      CTL2    -0.180000       12.0110           0
      5135 MEMB     82       POPE     H4R      HAL2     0.900000E-01   1.00800           0
      5136 MEMB     82       POPE     H4S      HAL2     0.900000E-01   1.00800           0
      5137 MEMB     82       POPE     C25      CTL2    -0.180000       12.0110           0
      5138 MEMB     82       POPE     H5R      HAL2     0.900000E-01   1.00800           0
      5139 MEMB     82       POPE     H5S      HAL2     0.900000E-01   1.00800           0
      5140 MEMB     82       POPE     C26      CTL2    -0.180000       12.0110           0
      5141 MEMB     82       POPE     H6R      HAL2     0.900000E-01   1.00800           0
      5142 MEMB     82       POPE     H6S      HAL2     0.900000E-01   1.00800           0
      5143 MEMB     82       POPE     C27      CTL2    -0.180000       12.0110           0
      5144 MEMB     82       POPE     H7R      HAL2     0.900000E-01   1.00800           0
      5145 MEMB     82       POPE     H7S      HAL2     0.900000E-01   1.00800           0
      5146 MEMB     82       POPE     C28      CTL2    -0.180000       12.0110           0
      5147 MEMB     82       POPE     H8R      HAL2     0.900000E-01   1.00800           0
      5148 MEMB     82       POPE     H8S      HAL2     0.900000E-01   1.00800           0
      5149 MEMB     82       POPE     C29      CEL1    -0.150000       12.0110           0
      5150 MEMB     82       POPE     H91      HEL1     0.150000       1.00800           0
      5151 MEMB     82       POPE     C210     CEL1    -0.150000       12.0110           0
      5152 MEMB     82       POPE     H101     HEL1     0.150000       1.00800           0
      5153 MEMB     82       POPE     C211     CTL2    -0.180000       12.0110           0
      5154 MEMB     82       POPE     H11R     HAL2     0.900000E-01   1.00800           0
      5155 MEMB     82       POPE     H11S     HAL2     0.900000E-01   1.00800           0
      5156 MEMB     82       POPE     C212     CTL2    -0.180000       12.0110           0
      5157 MEMB     82       POPE     H12R     HAL2     0.900000E-01   1.00800           0
      5158 MEMB     82       POPE     H12S     HAL2     0.900000E-01   1.00800           0
      5159 MEMB     82       POPE     C213     CTL2    -0.180000       12.0110           0
      5160 MEMB     82       POPE     H13R     HAL2     0.900000E-01   1.00800           0
      5161 MEMB     82       POPE     H13S     HAL2     0.900000E-01   1.00800           0
      5162 MEMB     82       POPE     C214     CTL2    -0.180000       12.0110           0
      5163 MEMB     82       POPE     H14R     HAL2     0.900000E-01   1.00800           0
      5164 MEMB     82       POPE     H14S     HAL2     0.900000E-01   1.00800           0
      5165 MEMB     82       POPE     C215     CTL2    -0.180000       12.0110           0
      5166 MEMB     82       POPE     H15R     HAL2     0.900000E-01   1.00800           0
      5167 MEMB     82       POPE     H15S     HAL2     0.900000E-01   1.00800           0
      5168 MEMB     82       POPE     C216     CTL2    -0.180000       12.0110           0
      5169 MEMB     82       POPE     H16R     HAL2     0.900000E-01   1.00800           0
      5170 MEMB     82       POPE     H16S     HAL2     0.900000E-01   1.00800           0
      5171 MEMB     82       POPE     C217     CTL2    -0.180000       12.0110           0
      5172 MEMB     82       POPE     H17R     HAL2     0.900000E-01   1.00800           0
      5173 MEMB     82       POPE     H17S     HAL2     0.900000E-01   1.00800           0
      5174 MEMB     82       POPE     C218     CTL3    -0.270000       12.0110           0
      5175 MEMB     82       POPE     H18R     HAL3     0.900000E-01   1.00800           0
      5176 MEMB     82       POPE     H18S     HAL3     0.900000E-01   1.00800           0
      5177 MEMB     82       POPE     H18T     HAL3     0.900000E-01   1.00800           0
      5178 MEMB     82       POPE     C33      CTL2    -0.180000       12.0110           0
      5179 MEMB     82       POPE     H3X      HAL2     0.900000E-01   1.00800           0
      5180 MEMB     82       POPE     H3Y      HAL2     0.900000E-01   1.00800           0
      5181 MEMB     82       POPE     C34      CTL2    -0.180000       12.0110           0
      5182 MEMB     82       POPE     H4X      HAL2     0.900000E-01   1.00800           0
      5183 MEMB     82       POPE     H4Y      HAL2     0.900000E-01   1.00800           0
      5184 MEMB     82       POPE     C35      CTL2    -0.180000       12.0110           0
      5185 MEMB     82       POPE     H5X      HAL2     0.900000E-01   1.00800           0
      5186 MEMB     82       POPE     H5Y      HAL2     0.900000E-01   1.00800           0
      5187 MEMB     82       POPE     C36      CTL2    -0.180000       12.0110           0
      5188 MEMB     82       POPE     H6X      HAL2     0.900000E-01   1.00800           0
      5189 MEMB     82       POPE     H6Y      HAL2     0.900000E-01   1.00800           0
      5190 MEMB     82       POPE     C37      CTL2    -0.180000       12.0110           0
      5191 MEMB     82       POPE     H7X      HAL2     0.900000E-01   1.00800           0
      5192 MEMB     82       POPE     H7Y      HAL2     0.900000E-01   1.00800           0
      5193 MEMB     82       POPE     C38      CTL2    -0.180000       12.0110           0
      5194 MEMB     82       POPE     H8X      HAL2     0.900000E-01   1.00800           0
      5195 MEMB     82       POPE     H8Y      HAL2     0.900000E-01   1.00800           0
      5196 MEMB     82       POPE     C39      CTL2    -0.180000       12.0110           0
      5197 MEMB     82       POPE     H9X      HAL2     0.900000E-01   1.00800           0
      5198 MEMB     82       POPE     H9Y      HAL2     0.900000E-01   1.00800           0
      5199 MEMB     82       POPE     C310     CTL2    -0.180000       12.0110           0
      5200 MEMB     82       POPE     H10X     HAL2     0.900000E-01   1.00800           0
      5201 MEMB     82       POPE     H10Y     HAL2     0.900000E-01   1.00800           0
      5202 MEMB     82       POPE     C311     CTL2    -0.180000       12.0110           0
      5203 MEMB     82       POPE     H11X     HAL2     0.900000E-01   1.00800           0
      5204 MEMB     82       POPE     H11Y     HAL2     0.900000E-01   1.00800           0
      5205 MEMB     82       POPE     C312     CTL2    -0.180000       12.0110           0
      5206 MEMB     82       POPE     H12X     HAL2     0.900000E-01   1.00800           0
      5207 MEMB     82       POPE     H12Y     HAL2     0.900000E-01   1.00800           0
      5208 MEMB     82       POPE     C313     CTL2    -0.180000       12.0110           0
      5209 MEMB     82       POPE     H13X     HAL2     0.900000E-01   1.00800           0
      5210 MEMB     82       POPE     H13Y     HAL2     0.900000E-01   1.00800           0
      5211 MEMB     82       POPE     C314     CTL2    -0.180000       12.0110           0
      5212 MEMB     82       POPE     H14X     HAL2     0.900000E-01   1.00800           0
      5213 MEMB     82       POPE     H14Y     HAL2     0.900000E-01   1.00800           0
      5214 MEMB     82       POPE     C315     CTL2    -0.180000       12.0110           0
      5215 MEMB     82       POPE     H15X     HAL2     0.900000E-01   1.00800           0
      5216 MEMB     82       POPE     H15Y     HAL2     0.900000E-01   1.00800           0
      5217 MEMB     82       POPE     C316     CTL3    -0.270000       12.0110           0
      5218 MEMB     82       POPE     H16X     HAL3     0.900000E-01   1.00800           0
      5219 MEMB     82       POPE     H16Y     HAL3     0.900000E-01   1.00800           0
      5220 MEMB     82       POPE     H16Z     HAL3     0.900000E-01   1.00800           0
      5221 MEMB     84       POPE     N        NH3L    -0.300000       14.0070           0
      5222 MEMB     84       POPE     HN1      HCL      0.330000       1.00800           0
      5223 MEMB     84       POPE     HN2      HCL      0.330000       1.00800           0
      5224 MEMB     84       POPE     HN3      HCL      0.330000       1.00800           0
      5225 MEMB     84       POPE     C12      CTL2     0.130000       12.0110           0
      5226 MEMB     84       POPE     H12A     HAL2     0.900000E-01   1.00800           0
      5227 MEMB     84       POPE     H12B     HAL2     0.900000E-01   1.00800           0
      5228 MEMB     84       POPE     C11      CTL2    -0.800000E-01   12.0110           0
      5229 MEMB     84       POPE     H11A     HAL2     0.900000E-01   1.00800           0
      5230 MEMB     84       POPE     H11B     HAL2     0.900000E-01   1.00800           0
      5231 MEMB     84       POPE     P        PL       1.500000       30.9740           0
      5232 MEMB     84       POPE     O13      O2L     -0.780000       15.9994           0
      5233 MEMB     84       POPE     O14      O2L     -0.780000       15.9994           0
      5234 MEMB     84       POPE     O11      OSLP    -0.570000       15.9994           0
      5235 MEMB     84       POPE     O12      OSLP    -0.570000       15.9994           0
      5236 MEMB     84       POPE     C1       CTL2    -0.800000E-01   12.0110           0
      5237 MEMB     84       POPE     HA       HAL2     0.900000E-01   1.00800           0
      5238 MEMB     84       POPE     HB       HAL2     0.900000E-01   1.00800           0
      5239 MEMB     84       POPE     C2       CTL1     0.170000       12.0110           0
      5240 MEMB     84       POPE     HS       HAL1     0.900000E-01   1.00800           0
      5241 MEMB     84       POPE     O21      OSL     -0.490000       15.9994           0
      5242 MEMB     84       POPE     C21      CL       0.900000       12.0110           0
      5243 MEMB     84       POPE     O22      OBL     -0.630000       15.9994           0
      5244 MEMB     84       POPE     C22      CTL2    -0.220000       12.0110           0
      5245 MEMB     84       POPE     H2R      HAL2     0.900000E-01   1.00800           0
      5246 MEMB     84       POPE     H2S      HAL2     0.900000E-01   1.00800           0
      5247 MEMB     84       POPE     C3       CTL2     0.800000E-01   12.0110           0
      5248 MEMB     84       POPE     HX       HAL2     0.900000E-01   1.00800           0
      5249 MEMB     84       POPE     HY       HAL2     0.900000E-01   1.00800           0
      5250 MEMB     84       POPE     O31      OSL     -0.490000       15.9994           0
      5251 MEMB     84       POPE     C31      CL       0.900000       12.0110           0
      5252 MEMB     84       POPE     O32      OBL     -0.630000       15.9994           0
      5253 MEMB     84       POPE     C32      CTL2    -0.220000       12.0110           0
      5254 MEMB     84       POPE     H2X      HAL2     0.900000E-01   1.00800           0
      5255 MEMB     84       POPE     H2Y      HAL2     0.900000E-01   1.00800           0
      5256 MEMB     84       POPE     C23      CTL2    -0.180000       12.0110           0
      5257 MEMB     84       POPE     H3R      HAL2     0.900000E-01   1.00800           0
      5258 MEMB     84       POPE     H3S      HAL2     0.900000E-01   1.00800           0
      5259 MEMB     84       POPE     C24      CTL2    -0.180000       12.0110           0
      5260 MEMB     84       POPE     H4R      HAL2     0.900000E-01   1.00800           0
      5261 MEMB     84       POPE     H4S      HAL2     0.900000E-01   1.00800           0
      5262 MEMB     84       POPE     C25      CTL2    -0.180000       12.0110           0
      5263 MEMB     84       POPE     H5R      HAL2     0.900000E-01   1.00800           0
      5264 MEMB     84       POPE     H5S      HAL2     0.900000E-01   1.00800           0
      5265 MEMB     84       POPE     C26      CTL2    -0.180000       12.0110           0
      5266 MEMB     84       POPE     H6R      HAL2     0.900000E-01   1.00800           0
      5267 MEMB     84       POPE     H6S      HAL2     0.900000E-01   1.00800           0
      5268 MEMB     84       POPE     C27      CTL2    -0.180000       12.0110           0
      5269 MEMB     84       POPE     H7R      HAL2     0.900000E-01   1.00800           0
      5270 MEMB     84       POPE     H7S      HAL2     0.900000E-01   1.00800           0
      5271 MEMB     84       POPE     C28      CTL2    -0.180000       12.0110           0
      5272 MEMB     84       POPE     H8R      HAL2     0.900000E-01   1.00800           0
      5273 MEMB     84       POPE     H8S      HAL2     0.900000E-01   1.00800           0
      5274 MEMB     84       POPE     C29      CEL1    -0.150000       12.0110           0
      5275 MEMB     84       POPE     H91      HEL1     0.150000       1.00800           0
      5276 MEMB     84       POPE     C210     CEL1    -0.150000       12.0110           0
      5277 MEMB     84       POPE     H101     HEL1     0.150000       1.00800           0
      5278 MEMB     84       POPE     C211     CTL2    -0.180000       12.0110           0
      5279 MEMB     84       POPE     H11R     HAL2     0.900000E-01   1.00800           0
      5280 MEMB     84       POPE     H11S     HAL2     0.900000E-01   1.00800           0
      5281 MEMB     84       POPE     C212     CTL2    -0.180000       12.0110           0
      5282 MEMB     84       POPE     H12R     HAL2     0.900000E-01   1.00800           0
      5283 MEMB     84       POPE     H12S     HAL2     0.900000E-01   1.00800           0
      5284 MEMB     84       POPE     C213     CTL2    -0.180000       12.0110           0
      5285 MEMB     84       POPE     H13R     HAL2     0.900000E-01   1.00800           0
      5286 MEMB     84       POPE     H13S     HAL2     0.900000E-01   1.00800           0
      5287 MEMB     84       POPE     C214     CTL2    -0.180000       12.0110           0
      5288 MEMB     84       POPE     H14R     HAL2     0.900000E-01   1.00800           0
      5289 MEMB     84       POPE     H14S     HAL2     0.900000E-01   1.00800           0
      5290 MEMB     84       POPE     C215     CTL2    -0.180000       12.0110           0
      5291 MEMB     84       POPE     H15R     HAL2     0.900000E-01   1.00800           0
      5292 MEMB     84       POPE     H15S     HAL2     0.900000E-01   1.00800           0
      5293 MEMB     84       POPE     C216     CTL2    -0.180000       12.0110           0
      5294 MEMB     84       POPE     H16R     HAL2     0.900000E-01   1.00800           0
      5295 MEMB     84       POPE     H16S     HAL2     0.900000E-01   1.00800           0
      5296 MEMB     84       POPE     C217     CTL2    -0.180000       12.0110           0
      5297 MEMB     84       POPE     H17R     HAL2     0.900000E-01   1.00800           0
      5298 MEMB     84       POPE     H17S     HAL2     0.900000E-01   1.00800           0
      5299 MEMB     84       POPE     C218     CTL3    -0.270000       12.0110           0
      5300 MEMB     84       POPE     H18R     HAL3     0.900000E-01   1.00800           0
      5301 MEMB     84       POPE     H18S     HAL3     0.900000E-01   1.00800           0
      5302 MEMB     84       POPE     H18T     HAL3     0.900000E-01   1.00800           0
      5303 MEMB     84       POPE     C33      CTL2    -0.180000       12.0110           0
      5304 MEMB     84       POPE     H3X      HAL2     0.900000E-01   1.00800           0
      5305 MEMB     84       POPE     H3Y      HAL2     0.900000E-01   1.00800           0
      5306 MEMB     84       POPE     C34      CTL2    -0.180000       12.0110           0
      5307 MEMB     84       POPE     H4X      HAL2     0.900000E-01   1.00800           0
      5308 MEMB     84       POPE     H4Y      HAL2     0.900000E-01   1.00800           0
      5309 MEMB     84       POPE     C35      CTL2    -0.180000       12.0110           0
      5310 MEMB     84       POPE     H5X      HAL2     0.900000E-01   1.00800           0
      5311 MEMB     84       POPE     H5Y      HAL2     0.900000E-01   1.00800           0
      5312 MEMB     84       POPE     C36      CTL2    -0.180000       12.0110           0
      5313 MEMB     84       POPE     H6X      HAL2     0.900000E-01   1.00800           0
      5314 MEMB     84       POPE     H6Y      HAL2     0.900000E-01   1.00800           0
      5315 MEMB     84       POPE     C37      CTL2    -0.180000       12.0110           0
      5316 MEMB     84       POPE     H7X      HAL2     0.900000E-01   1.00800           0
      5317 MEMB     84       POPE     H7Y      HAL2     0.900000E-01   1.00800           0
      5318 MEMB     84       POPE     C38      CTL2    -0.180000       12.0110           0
      5319 MEMB     84       POPE     H8X      HAL2     0.900000E-01   1.00800           0
      5320 MEMB     84       POPE     H8Y      HAL2     0.900000E-01   1.00800           0
      5321 MEMB     84       POPE     C39      CTL2    -0.180000       12.0110           0
      5322 MEMB     84       POPE     H9X      HAL2     0.900000E-01   1.00800           0
      5323 MEMB     84       POPE     H9Y      HAL2     0.900000E-01   1.00800           0
      5324 MEMB     84       POPE     C310     CTL2    -0.180000       12.0110           0
      5325 MEMB     84       POPE     H10X     HAL2     0.900000E-01   1.00800           0
      5326 MEMB     84       POPE     H10Y     HAL2     0.900000E-01   1.00800           0
      5327 MEMB     84       POPE     C311     CTL2    -0.180000       12.0110           0
      5328 MEMB     84       POPE     H11X     HAL2     0.900000E-01   1.00800           0
      5329 MEMB     84       POPE     H11Y     HAL2     0.900000E-01   1.00800           0
      5330 MEMB     84       POPE     C312     CTL2    -0.180000       12.0110           0
      5331 MEMB     84       POPE     H12X     HAL2     0.900000E-01   1.00800           0
      5332 MEMB     84       POPE     H12Y     HAL2     0.900000E-01   1.00800           0
      5333 MEMB     84       POPE     C313     CTL2    -0.180000       12.0110           0
      5334 MEMB     84       POPE     H13X     HAL2     0.900000E-01   1.00800           0
      5335 MEMB     84       POPE     H13Y     HAL2     0.900000E-01   1.00800           0
      5336 MEMB     84       POPE     C314     CTL2    -0.180000       12.0110           0
      5337 MEMB     84       POPE     H14X     HAL2     0.900000E-01   1.00800           0
      5338 MEMB     84       POPE     H14Y     HAL2     0.900000E-01   1.00800           0
      5339 MEMB     84       POPE     C315     CTL2    -0.180000       12.0110           0
      5340 MEMB     84       POPE     H15X     HAL2     0.900000E-01   1.00800           0
      5341 MEMB     84       POPE     H15Y     HAL2     0.900000E-01   1.00800           0
      5342 MEMB     84       POPE     C316     CTL3    -0.270000       12.0110           0
      5343 MEMB     84       POPE     H16X     HAL3     0.900000E-01   1.00800           0
      5344 MEMB     84       POPE     H16Y     HAL3     0.900000E-01   1.00800           0
      5345 MEMB     84       POPE     H16Z     HAL3     0.900000E-01   1.00800           0
      5346 MEMB     101      POPE     N        NH3L    -0.300000       14.0070           0
      5347 MEMB     101      POPE     HN1      HCL      0.330000       1.00800           0
      5348 MEMB     101      POPE     HN2      HCL      0.330000       1.00800           0
      5349 MEMB     101      POPE     HN3      HCL      0.330000       1.00800           0
      5350 MEMB     101      POPE     C12      CTL2     0.130000       12.0110           0
      5351 MEMB     101      POPE     H12A     HAL2     0.900000E-01   1.00800           0
      5352 MEMB     101      POPE     H12B     HAL2     0.900000E-01   1.00800           0
      5353 MEMB     101      POPE     C11      CTL2    -0.800000E-01   12.0110           0
      5354 MEMB     101      POPE     H11A     HAL2     0.900000E-01   1.00800           0
      5355 MEMB     101      POPE     H11B     HAL2     0.900000E-01   1.00800           0
      5356 MEMB     101      POPE     P        PL       1.500000       30.9740           0
      5357 MEMB     101      POPE     O13      O2L     -0.780000       15.9994           0
      5358 MEMB     101      POPE     O14      O2L     -0.780000       15.9994           0
      5359 MEMB     101      POPE     O11      OSLP    -0.570000       15.9994           0
      5360 MEMB     101      POPE     O12      OSLP    -0.570000       15.9994           0
      5361 MEMB     101      POPE     C1       CTL2    -0.800000E-01   12.0110           0
      5362 MEMB     101      POPE     HA       HAL2     0.900000E-01   1.00800           0
      5363 MEMB     101      POPE     HB       HAL2     0.900000E-01   1.00800           0
      5364 MEMB     101      POPE     C2       CTL1     0.170000       12.0110           0
      5365 MEMB     101      POPE     HS       HAL1     0.900000E-01   1.00800           0
      5366 MEMB     101      POPE     O21      OSL     -0.490000       15.9994           0
      5367 MEMB     101      POPE     C21      CL       0.900000       12.0110           0
      5368 MEMB     101      POPE     O22      OBL     -0.630000       15.9994           0
      5369 MEMB     101      POPE     C22      CTL2    -0.220000       12.0110           0
      5370 MEMB     101      POPE     H2R      HAL2     0.900000E-01   1.00800           0
      5371 MEMB     101      POPE     H2S      HAL2     0.900000E-01   1.00800           0
      5372 MEMB     101      POPE     C3       CTL2     0.800000E-01   12.0110           0
      5373 MEMB     101      POPE     HX       HAL2     0.900000E-01   1.00800           0
      5374 MEMB     101      POPE     HY       HAL2     0.900000E-01   1.00800           0
      5375 MEMB     101      POPE     O31      OSL     -0.490000       15.9994           0
      5376 MEMB     101      POPE     C31      CL       0.900000       12.0110           0
      5377 MEMB     101      POPE     O32      OBL     -0.630000       15.9994           0
      5378 MEMB     101      POPE     C32      CTL2    -0.220000       12.0110           0
      5379 MEMB     101      POPE     H2X      HAL2     0.900000E-01   1.00800           0
      5380 MEMB     101      POPE     H2Y      HAL2     0.900000E-01   1.00800           0
      5381 MEMB     101      POPE     C23      CTL2    -0.180000       12.0110           0
      5382 MEMB     101      POPE     H3R      HAL2     0.900000E-01   1.00800           0
      5383 MEMB     101      POPE     H3S      HAL2     0.900000E-01   1.00800           0
      5384 MEMB     101      POPE     C24      CTL2    -0.180000       12.0110           0
      5385 MEMB     101      POPE     H4R      HAL2     0.900000E-01   1.00800           0
      5386 MEMB     101      POPE     H4S      HAL2     0.900000E-01   1.00800           0
      5387 MEMB     101      POPE     C25      CTL2    -0.180000       12.0110           0
      5388 MEMB     101      POPE     H5R      HAL2     0.900000E-01   1.00800           0
      5389 MEMB     101      POPE     H5S      HAL2     0.900000E-01   1.00800           0
      5390 MEMB     101      POPE     C26      CTL2    -0.180000       12.0110           0
      5391 MEMB     101      POPE     H6R      HAL2     0.900000E-01   1.00800           0
      5392 MEMB     101      POPE     H6S      HAL2     0.900000E-01   1.00800           0
      5393 MEMB     101      POPE     C27      CTL2    -0.180000       12.0110           0
      5394 MEMB     101      POPE     H7R      HAL2     0.900000E-01   1.00800           0
      5395 MEMB     101      POPE     H7S      HAL2     0.900000E-01   1.00800           0
      5396 MEMB     101      POPE     C28      CTL2    -0.180000       12.0110           0
      5397 MEMB     101      POPE     H8R      HAL2     0.900000E-01   1.00800           0
      5398 MEMB     101      POPE     H8S      HAL2     0.900000E-01   1.00800           0
      5399 MEMB     101      POPE     C29      CEL1    -0.150000       12.0110           0
      5400 MEMB     101      POPE     H91      HEL1     0.150000       1.00800           0
      5401 MEMB     101      POPE     C210     CEL1    -0.150000       12.0110           0
      5402 MEMB     101      POPE     H101     HEL1     0.150000       1.00800           0
      5403 MEMB     101      POPE     C211     CTL2    -0.180000       12.0110           0
      5404 MEMB     101      POPE     H11R     HAL2     0.900000E-01   1.00800           0
      5405 MEMB     101      POPE     H11S     HAL2     0.900000E-01   1.00800           0
      5406 MEMB     101      POPE     C212     CTL2    -0.180000       12.0110           0
      5407 MEMB     101      POPE     H12R     HAL2     0.900000E-01   1.00800           0
      5408 MEMB     101      POPE     H12S     HAL2     0.900000E-01   1.00800           0
      5409 MEMB     101      POPE     C213     CTL2    -0.180000       12.0110           0
      5410 MEMB     101      POPE     H13R     HAL2     0.900000E-01   1.00800           0
      5411 MEMB     101      POPE     H13S     HAL2     0.900000E-01   1.00800           0
      5412 MEMB     101      POPE     C214     CTL2    -0.180000       12.0110           0
      5413 MEMB     101      POPE     H14R     HAL2     0.900000E-01   1.00800           0
      5414 MEMB     101      POPE     H14S     HAL2     0.900000E-01   1.00800           0
      5415 MEMB     101      POPE     C215     CTL2    -0.180000       12.0110           0
      5416 MEMB     101      POPE     H15R     HAL2     0.900000E-01   1.00800           0
      5417 MEMB     101      POPE     H15S     HAL2     0.900000E-01   1.00800           0
      5418 MEMB     101      POPE     C216     CTL2    -0.180000       12.0110           0
      5419 MEMB     101      POPE     H16R     HAL2     0.900000E-01   1.00800           0
      5420 MEMB     101      POPE     H16S     HAL2     0.900000E-01   1.00800           0
      5421 MEMB     101      POPE     C217     CTL2    -0.180000       12.0110           0
      5422 MEMB     101      POPE     H17R     HAL2     0.900000E-01   1.00800           0
      5423 MEMB     101      POPE     H17S     HAL2     0.900000E-01   1.00800           0
      5424 MEMB     101      POPE     C218     CTL3    -0.270000       12.0110           0
      5425 MEMB     101      POPE     H18R     HAL3     0.900000E-01   1.00800           0
      5426 MEMB     101      POPE     H18S     HAL3     0.900000E-01   1.00800           0
      5427 MEMB     101      POPE     H18T     HAL3     0.900000E-01   1.00800           0
      5428 MEMB     101      POPE     C33      CTL2    -0.180000       12.0110           0
      5429 MEMB     101      POPE     H3X      HAL2     0.900000E-01   1.00800           0
      5430 MEMB     101      POPE     H3Y      HAL2     0.900000E-01   1.00800           0
      5431 MEMB     101      POPE     C34      CTL2    -0.180000       12.0110           0
      5432 MEMB     101      POPE     H4X      HAL2     0.900000E-01   1.00800           0
      5433 MEMB     101      POPE     H4Y      HAL2     0.900000E-01   1.00800           0
      5434 MEMB     101      POPE     C35      CTL2    -0.180000       12.0110           0
      5435 MEMB     101      POPE     H5X      HAL2     0.900000E-01   1.00800           0
      5436 MEMB     101      POPE     H5Y      HAL2     0.900000E-01   1.00800           0
      5437 MEMB     101      POPE     C36      CTL2    -0.180000       12.0110           0
      5438 MEMB     101      POPE     H6X      HAL2     0.900000E-01   1.00800           0
      5439 MEMB     101      POPE     H6Y      HAL2     0.900000E-01   1.00800           0
      5440 MEMB     101      POPE     C37      CTL2    -0.180000       12.0110           0
      5441 MEMB     101      POPE     H7X      HAL2     0.900000E-01   1.00800           0
      5442 MEMB     101      POPE     H7Y      HAL2     0.900000E-01   1.00800           0
      5443 MEMB     101      POPE     C38      CTL2    -0.180000       12.0110           0
      5444 MEMB     101      POPE     H8X      HAL2     0.900000E-01   1.00800           0
      5445 MEMB     101      POPE     H8Y      HAL2     0.900000E-01   1.00800           0
      5446 MEMB     101      POPE     C39      CTL2    -0.180000       12.0110           0
      5447 MEMB     101      POPE     H9X      HAL2     0.900000E-01   1.00800           0
      5448 MEMB     101      POPE     H9Y      HAL2     0.900000E-01   1.00800           0
      5449 MEMB     101      POPE     C310     CTL2    -0.180000       12.0110           0
      5450 MEMB     101      POPE     H10X     HAL2     0.900000E-01   1.00800           0
      5451 MEMB     101      POPE     H10Y     HAL2     0.900000E-01   1.00800           0
      5452 MEMB     101      POPE     C311     CTL2    -0.180000       12.0110           0
      5453 MEMB     101      POPE     H11X     HAL2     0.900000E-01   1.00800           0
      5454 MEMB     101      POPE     H11Y     HAL2     0.900000E-01   1.00800           0
      5455 MEMB     101      POPE     C312     CTL2    -0.180000       12.0110           0
      5456 MEMB     101      POPE     H12X     HAL2     0.900000E-01   1.00800           0
      5457 MEMB     101      POPE     H12Y     HAL2     0.900000E-01   1.00800           0
      5458 MEMB     101      POPE     C313     CTL2    -0.180000       12.0110           0
      5459 MEMB     101      POPE     H13X     HAL2     0.900000E-01   1.00800           0
      5460 MEMB     101      POPE     H13Y     HAL2     0.900000E-01   1.00800           0
      5461 MEMB     101      POPE     C314     CTL2    -0.180000       12.0110           0
      5462 MEMB     101      POPE     H14X     HAL2     0.900000E-01   1.00800           0
      5463 MEMB     101      POPE     H14Y     HAL2     0.900000E-01   1.00800           0
      5464 MEMB     101      POPE     C315     CTL2    -0.180000       12.0110           0
      5465 MEMB     101      POPE     H15X     HAL2     0.900000E-01   1.00800           0
      5466 MEMB     101      POPE     H15Y     HAL2     0.900000E-01   1.00800           0
      5467 MEMB     101      POPE     C316     CTL3    -0.270000       12.0110           0
      5468 MEMB     101      POPE     H16X     HAL3     0.900000E-01   1.00800           0
      5469 MEMB     101      POPE     H16Y     HAL3     0.900000E-01   1.00800           0
      5470 MEMB     101      POPE     H16Z     HAL3     0.900000E-01   1.00800           0
      5471 MEMB     102      POPE     N        NH3L    -0.300000       14.0070           0
      5472 MEMB     102      POPE     HN1      HCL      0.330000       1.00800           0
      5473 MEMB     102      POPE     HN2      HCL      0.330000       1.00800           0
      5474 MEMB     102      POPE     HN3      HCL      0.330000       1.00800           0
      5475 MEMB     102      POPE     C12      CTL2     0.130000       12.0110           0
      5476 MEMB     102      POPE     H12A     HAL2     0.900000E-01   1.00800           0
      5477 MEMB     102      POPE     H12B     HAL2     0.900000E-01   1.00800           0
      5478 MEMB     102      POPE     C11      CTL2    -0.800000E-01   12.0110           0
      5479 MEMB     102      POPE     H11A     HAL2     0.900000E-01   1.00800           0
      5480 MEMB     102      POPE     H11B     HAL2     0.900000E-01   1.00800           0
      5481 MEMB     102      POPE     P        PL       1.500000       30.9740           0
      5482 MEMB     102      POPE     O13      O2L     -0.780000       15.9994           0
      5483 MEMB     102      POPE     O14      O2L     -0.780000       15.9994           0
      5484 MEMB     102      POPE     O11      OSLP    -0.570000       15.9994           0
      5485 MEMB     102      POPE     O12      OSLP    -0.570000       15.9994           0
      5486 MEMB     102      POPE     C1       CTL2    -0.800000E-01   12.0110           0
      5487 MEMB     102      POPE     HA       HAL2     0.900000E-01   1.00800           0
      5488 MEMB     102      POPE     HB       HAL2     0.900000E-01   1.00800           0
      5489 MEMB     102      POPE     C2       CTL1     0.170000       12.0110           0
      5490 MEMB     102      POPE     HS       HAL1     0.900000E-01   1.00800           0
      5491 MEMB     102      POPE     O21      OSL     -0.490000       15.9994           0
      5492 MEMB     102      POPE     C21      CL       0.900000       12.0110           0
      5493 MEMB     102      POPE     O22      OBL     -0.630000       15.9994           0
      5494 MEMB     102      POPE     C22      CTL2    -0.220000       12.0110           0
      5495 MEMB     102      POPE     H2R      HAL2     0.900000E-01   1.00800           0
      5496 MEMB     102      POPE     H2S      HAL2     0.900000E-01   1.00800           0
      5497 MEMB     102      POPE     C3       CTL2     0.800000E-01   12.0110           0
      5498 MEMB     102      POPE     HX       HAL2     0.900000E-01   1.00800           0
      5499 MEMB     102      POPE     HY       HAL2     0.900000E-01   1.00800           0
      5500 MEMB     102      POPE     O31      OSL     -0.490000       15.9994           0
      5501 MEMB     102      POPE     C31      CL       0.900000       12.0110           0
      5502 MEMB     102      POPE     O32      OBL     -0.630000       15.9994           0
      5503 MEMB     102      POPE     C32      CTL2    -0.220000       12.0110           0
      5504 MEMB     102      POPE     H2X      HAL2     0.900000E-01   1.00800           0
      5505 MEMB     102      POPE     H2Y      HAL2     0.900000E-01   1.00800           0
      5506 MEMB     102      POPE     C23      CTL2    -0.180000       12.0110           0
      5507 MEMB     102      POPE     H3R      HAL2     0.900000E-01   1.00800           0
      5508 MEMB     102      POPE     H3S      HAL2     0.900000E-01   1.00800           0
      5509 MEMB     102      POPE     C24      CTL2    -0.180000       12.0110           0
      5510 MEMB     102      POPE     H4R      HAL2     0.900000E-01   1.00800           0
      5511 MEMB     102      POPE     H4S      HAL2     0.900000E-01   1.00800           0
      5512 MEMB     102      POPE     C25      CTL2    -0.180000       12.0110           0
      5513 MEMB     102      POPE     H5R      HAL2     0.900000E-01   1.00800           0
      5514 MEMB     102      POPE     H5S      HAL2     0.900000E-01   1.00800           0
      5515 MEMB     102      POPE     C26      CTL2    -0.180000       12.0110           0
      5516 MEMB     102      POPE     H6R      HAL2     0.900000E-01   1.00800           0
      5517 MEMB     102      POPE     H6S      HAL2     0.900000E-01   1.00800           0
      5518 MEMB     102      POPE     C27      CTL2    -0.180000       12.0110           0
      5519 MEMB     102      POPE     H7R      HAL2     0.900000E-01   1.00800           0
      5520 MEMB     102      POPE     H7S      HAL2     0.900000E-01   1.00800           0
      5521 MEMB     102      POPE     C28      CTL2    -0.180000       12.0110           0
      5522 MEMB     102      POPE     H8R      HAL2     0.900000E-01   1.00800           0
      5523 MEMB     102      POPE     H8S      HAL2     0.900000E-01   1.00800           0
      5524 MEMB     102      POPE     C29      CEL1    -0.150000       12.0110           0
      5525 MEMB     102      POPE     H91      HEL1     0.150000       1.00800           0
      5526 MEMB     102      POPE     C210     CEL1    -0.150000       12.0110           0
      5527 MEMB     102      POPE     H101     HEL1     0.150000       1.00800           0
      5528 MEMB     102      POPE     C211     CTL2    -0.180000       12.0110           0
      5529 MEMB     102      POPE     H11R     HAL2     0.900000E-01   1.00800           0
      5530 MEMB     102      POPE     H11S     HAL2     0.900000E-01   1.00800           0
      5531 MEMB     102      POPE     C212     CTL2    -0.180000       12.0110           0
      5532 MEMB     102      POPE     H12R     HAL2     0.900000E-01   1.00800           0
      5533 MEMB     102      POPE     H12S     HAL2     0.900000E-01   1.00800           0
      5534 MEMB     102      POPE     C213     CTL2    -0.180000       12.0110           0
      5535 MEMB     102      POPE     H13R     HAL2     0.900000E-01   1.00800           0
      5536 MEMB     102      POPE     H13S     HAL2     0.900000E-01   1.00800           0
      5537 MEMB     102      POPE     C214     CTL2    -0.180000       12.0110           0
      5538 MEMB     102      POPE     H14R     HAL2     0.900000E-01   1.00800           0
      5539 MEMB     102      POPE     H14S     HAL2     0.900000E-01   1.00800           0
      5540 MEMB     102      POPE     C215     CTL2    -0.180000       12.0110           0
      5541 MEMB     102      POPE     H15R     HAL2     0.900000E-01   1.00800           0
      5542 MEMB     102      POPE     H15S     HAL2     0.900000E-01   1.00800           0
      5543 MEMB     102      POPE     C216     CTL2    -0.180000       12.0110           0
      5544 MEMB     102      POPE     H16R     HAL2     0.900000E-01   1.00800           0
      5545 MEMB     102      POPE     H16S     HAL2     0.900000E-01   1.00800           0
      5546 MEMB     102      POPE     C217     CTL2    -0.180000       12.0110           0
      5547 MEMB     102      POPE     H17R     HAL2     0.900000E-01   1.00800           0
      5548 MEMB     102      POPE     H17S     HAL2     0.900000E-01   1.00800           0
      5549 MEMB     102      POPE     C218     CTL3    -0.270000       12.0110           0
      5550 MEMB     102      POPE     H18R     HAL3     0.900000E-01   1.00800           0
      5551 MEMB     102      POPE     H18S     HAL3     0.900000E-01   1.00800           0
      5552 MEMB     102      POPE     H18T     HAL3     0.900000E-01   1.00800           0
      5553 MEMB     102      POPE     C33      CTL2    -0.180000       12.0110           0
      5554 MEMB     102      POPE     H3X      HAL2     0.900000E-01   1.00800           0
      5555 MEMB     102      POPE     H3Y      HAL2     0.900000E-01   1.00800           0
      5556 MEMB     102      POPE     C34      CTL2    -0.180000       12.0110           0
      5557 MEMB     102      POPE     H4X      HAL2     0.900000E-01   1.00800           0
      5558 MEMB     102      POPE     H4Y      HAL2     0.900000E-01   1.00800           0
      5559 MEMB     102      POPE     C35      CTL2    -0.180000       12.0110           0
      5560 MEMB     102      POPE     H5X      HAL2     0.900000E-01   1.00800           0
      5561 MEMB     102      POPE     H5Y      HAL2     0.900000E-01   1.00800           0
      5562 MEMB     102      POPE     C36      CTL2    -0.180000       12.0110           0
      5563 MEMB     102      POPE     H6X      HAL2     0.900000E-01   1.00800           0
      5564 MEMB     102      POPE     H6Y      HAL2     0.900000E-01   1.00800           0
      5565 MEMB     102      POPE     C37      CTL2    -0.180000       12.0110           0
      5566 MEMB     102      POPE     H7X      HAL2     0.900000E-01   1.00800           0
      5567 MEMB     102      POPE     H7Y      HAL2     0.900000E-01   1.00800           0
      5568 MEMB     102      POPE     C38      CTL2    -0.180000       12.0110           0
      5569 MEMB     102      POPE     H8X      HAL2     0.900000E-01   1.00800           0
      5570 MEMB     102      POPE     H8Y      HAL2     0.900000E-01   1.00800           0
      5571 MEMB     102      POPE     C39      CTL2    -0.180000       12.0110           0
      5572 MEMB     102      POPE     H9X      HAL2     0.900000E-01   1.00800           0
      5573 MEMB     102      POPE     H9Y      HAL2     0.900000E-01   1.00800           0
      5574 MEMB     102      POPE     C310     CTL2    -0.180000       12.0110           0
      5575 MEMB     102      POPE     H10X     HAL2     0.900000E-01   1.00800           0
      5576 MEMB     102      POPE     H10Y     HAL2     0.900000E-01   1.00800           0
      5577 MEMB     102      POPE     C311     CTL2    -0.180000       12.0110           0
      5578 MEMB     102      POPE     H11X     HAL2     0.900000E-01   1.00800           0
      5579 MEMB     102      POPE     H11Y     HAL2     0.900000E-01   1.00800           0
      5580 MEMB     102      POPE     C312     CTL2    -0.180000       12.0110           0
      5581 MEMB     102      POPE     H12X     HAL2     0.900000E-01   1.00800           0
      5582 MEMB     102      POPE     H12Y     HAL2     0.900000E-01   1.00800           0
      5583 MEMB     102      POPE     C313     CTL2    -0.180000       12.0110           0
      5584 MEMB     102      POPE     H13X     HAL2     0.900000E-01   1.00800           0
      5585 MEMB     102      POPE     H13Y     HAL2     0.900000E-01   1.00800           0
      5586 MEMB     102      POPE     C314     CTL2    -0.180000       12.0110           0
      5587 MEMB     102      POPE     H14X     HAL2     0.900000E-01   1.00800           0
      5588 MEMB     102      POPE     H14Y     HAL2     0.900000E-01   1.00800           0
      5589 MEMB     102      POPE     C315     CTL2    -0.180000       12.0110           0
      5590 MEMB     102      POPE     H15X     HAL2     0.900000E-01   1.00800           0
      5591 MEMB     102      POPE     H15Y     HAL2     0.900000E-01   1.00800           0
      5592 MEMB     102      POPE     C316     CTL3    -0.270000       12.0110           0
      5593 MEMB     102      POPE     H16X     HAL3     0.900000E-01   1.00800           0
      5594 MEMB     102      POPE     H16Y     HAL3     0.900000E-01   1.00800           0
      5595 MEMB     102      POPE     H16Z     HAL3     0.900000E-01   1.00800           0
      5596 MEMB     113      POPE     N        NH3L    -0.300000       14.0070           0
      5597 MEMB     113      POPE     HN1      HCL      0.330000       1.00800           0
      5598 MEMB     113      POPE     HN2      HCL      0.330000       1.00800           0
      5599 MEMB     113      POPE     HN3      HCL      0.330000       1.00800           0
      5600 MEMB     113      POPE     C12      CTL2     0.130000       12.0110           0
      5601 MEMB     113      POPE     H12A     HAL2     0.900000E-01   1.00800           0
      5602 MEMB     113      POPE     H12B     HAL2     0.900000E-01   1.00800           0
      5603 MEMB     113      POPE     C11      CTL2    -0.800000E-01   12.0110           0
      5604 MEMB     113      POPE     H11A     HAL2     0.900000E-01   1.00800           0
      5605 MEMB     113      POPE     H11B     HAL2     0.900000E-01   1.00800           0
      5606 MEMB     113      POPE     P        PL       1.500000       30.9740           0
      5607 MEMB     113      POPE     O13      O2L     -0.780000       15.9994           0
      5608 MEMB     113      POPE     O14      O2L     -0.780000       15.9994           0
      5609 MEMB     113      POPE     O11      OSLP    -0.570000       15.9994           0
      5610 MEMB     113      POPE     O12      OSLP    -0.570000       15.9994           0
      5611 MEMB     113      POPE     C1       CTL2    -0.800000E-01   12.0110           0
      5612 MEMB     113      POPE     HA       HAL2     0.900000E-01   1.00800           0
      5613 MEMB     113      POPE     HB       HAL2     0.900000E-01   1.00800           0
      5614 MEMB     113      POPE     C2       CTL1     0.170000       12.0110           0
      5615 MEMB     113      POPE     HS       HAL1     0.900000E-01   1.00800           0
      5616 MEMB     113      POPE     O21      OSL     -0.490000       15.9994           0
      5617 MEMB     113      POPE     C21      CL       0.900000       12.0110           0
      5618 MEMB     113      POPE     O22      OBL     -0.630000       15.9994           0
      5619 MEMB     113      POPE     C22      CTL2    -0.220000       12.0110           0
      5620 MEMB     113      POPE     H2R      HAL2     0.900000E-01   1.00800           0
      5621 MEMB     113      POPE     H2S      HAL2     0.900000E-01   1.00800           0
      5622 MEMB     113      POPE     C3       CTL2     0.800000E-01   12.0110           0
      5623 MEMB     113      POPE     HX       HAL2     0.900000E-01   1.00800           0
      5624 MEMB     113      POPE     HY       HAL2     0.900000E-01   1.00800           0
      5625 MEMB     113      POPE     O31      OSL     -0.490000       15.9994           0
      5626 MEMB     113      POPE     C31      CL       0.900000       12.0110           0
      5627 MEMB     113      POPE     O32      OBL     -0.630000       15.9994           0
      5628 MEMB     113      POPE     C32      CTL2    -0.220000       12.0110           0
      5629 MEMB     113      POPE     H2X      HAL2     0.900000E-01   1.00800           0
      5630 MEMB     113      POPE     H2Y      HAL2     0.900000E-01   1.00800           0
      5631 MEMB     113      POPE     C23      CTL2    -0.180000       12.0110           0
      5632 MEMB     113      POPE     H3R      HAL2     0.900000E-01   1.00800           0
      5633 MEMB     113      POPE     H3S      HAL2     0.900000E-01   1.00800           0
      5634 MEMB     113      POPE     C24      CTL2    -0.180000       12.0110           0
      5635 MEMB     113      POPE     H4R      HAL2     0.900000E-01   1.00800           0
      5636 MEMB     113      POPE     H4S      HAL2     0.900000E-01   1.00800           0
      5637 MEMB     113      POPE     C25      CTL2    -0.180000       12.0110           0
      5638 MEMB     113      POPE     H5R      HAL2     0.900000E-01   1.00800           0
      5639 MEMB     113      POPE     H5S      HAL2     0.900000E-01   1.00800           0
      5640 MEMB     113      POPE     C26      CTL2    -0.180000       12.0110           0
      5641 MEMB     113      POPE     H6R      HAL2     0.900000E-01   1.00800           0
      5642 MEMB     113      POPE     H6S      HAL2     0.900000E-01   1.00800           0
      5643 MEMB     113      POPE     C27      CTL2    -0.180000       12.0110           0
      5644 MEMB     113      POPE     H7R      HAL2     0.900000E-01   1.00800           0
      5645 MEMB     113      POPE     H7S      HAL2     0.900000E-01   1.00800           0
      5646 MEMB     113      POPE     C28      CTL2    -0.180000       12.0110           0
      5647 MEMB     113      POPE     H8R      HAL2     0.900000E-01   1.00800           0
      5648 MEMB     113      POPE     H8S      HAL2     0.900000E-01   1.00800           0
      5649 MEMB     113      POPE     C29      CEL1    -0.150000       12.0110           0
      5650 MEMB     113      POPE     H91      HEL1     0.150000       1.00800           0
      5651 MEMB     113      POPE     C210     CEL1    -0.150000       12.0110           0
      5652 MEMB     113      POPE     H101     HEL1     0.150000       1.00800           0
      5653 MEMB     113      POPE     C211     CTL2    -0.180000       12.0110           0
      5654 MEMB     113      POPE     H11R     HAL2     0.900000E-01   1.00800           0
      5655 MEMB     113      POPE     H11S     HAL2     0.900000E-01   1.00800           0
      5656 MEMB     113      POPE     C212     CTL2    -0.180000       12.0110           0
      5657 MEMB     113      POPE     H12R     HAL2     0.900000E-01   1.00800           0
      5658 MEMB     113      POPE     H12S     HAL2     0.900000E-01   1.00800           0
      5659 MEMB     113      POPE     C213     CTL2    -0.180000       12.0110           0
      5660 MEMB     113      POPE     H13R     HAL2     0.900000E-01   1.00800           0
      5661 MEMB     113      POPE     H13S     HAL2     0.900000E-01   1.00800           0
      5662 MEMB     113      POPE     C214     CTL2    -0.180000       12.0110           0
      5663 MEMB     113      POPE     H14R     HAL2     0.900000E-01   1.00800           0
      5664 MEMB     113      POPE     H14S     HAL2     0.900000E-01   1.00800           0
      5665 MEMB     113      POPE     C215     CTL2    -0.180000       12.0110           0
      5666 MEMB     113      POPE     H15R     HAL2     0.900000E-01   1.00800           0
      5667 MEMB     113      POPE     H15S     HAL2     0.900000E-01   1.00800           0
      5668 MEMB     113      POPE     C216     CTL2    -0.180000       12.0110           0
      5669 MEMB     113      POPE     H16R     HAL2     0.900000E-01   1.00800           0
      5670 MEMB     113      POPE     H16S     HAL2     0.900000E-01   1.00800           0
      5671 MEMB     113      POPE     C217     CTL2    -0.180000       12.0110           0
      5672 MEMB     113      POPE     H17R     HAL2     0.900000E-01   1.00800           0
      5673 MEMB     113      POPE     H17S     HAL2     0.900000E-01   1.00800           0
      5674 MEMB     113      POPE     C218     CTL3    -0.270000       12.0110           0
      5675 MEMB     113      POPE     H18R     HAL3     0.900000E-01   1.00800           0
      5676 MEMB     113      POPE     H18S     HAL3     0.900000E-01   1.00800           0
      5677 MEMB     113      POPE     H18T     HAL3     0.900000E-01   1.00800           0
      5678 MEMB     113      POPE     C33      CTL2    -0.180000       12.0110           0
      5679 MEMB     113      POPE     H3X      HAL2     0.900000E-01   1.00800           0
      5680 MEMB     113      POPE     H3Y      HAL2     0.900000E-01   1.00800           0
      5681 MEMB     113      POPE     C34      CTL2    -0.180000       12.0110           0
      5682 MEMB     113      POPE     H4X      HAL2     0.900000E-01   1.00800           0
      5683 MEMB     113      POPE     H4Y      HAL2     0.900000E-01   1.00800           0
      5684 MEMB     113      POPE     C35      CTL2    -0.180000       12.0110           0
      5685 MEMB     113      POPE     H5X      HAL2     0.900000E-01   1.00800           0
      5686 MEMB     113      POPE     H5Y      HAL2     0.900000E-01   1.00800           0
      5687 MEMB     113      POPE     C36      CTL2    -0.180000       12.0110           0
      5688 MEMB     113      POPE     H6X      HAL2     0.900000E-01   1.00800           0
      5689 MEMB     113      POPE     H6Y      HAL2     0.900000E-01   1.00800           0
      5690 MEMB     113      POPE     C37      CTL2    -0.180000       12.0110           0
      5691 MEMB     113      POPE     H7X      HAL2     0.900000E-01   1.00800           0
      5692 MEMB     113      POPE     H7Y      HAL2     0.900000E-01   1.00800           0
      5693 MEMB     113      POPE     C38      CTL2    -0.180000       12.0110           0
      5694 MEMB     113      POPE     H8X      HAL2     0.900000E-01   1.00800           0
      5695 MEMB     113      POPE     H8Y      HAL2     0.900000E-01   1.00800           0
      5696 MEMB     113      POPE     C39      CTL2    -0.180000       12.0110           0
      5697 MEMB     113      POPE     H9X      HAL2     0.900000E-01   1.00800           0
      5698 MEMB     113      POPE     H9Y      HAL2     0.900000E-01   1.00800           0
      5699 MEMB     113      POPE     C310     CTL2    -0.180000       12.0110           0
      5700 MEMB     113      POPE     H10X     HAL2     0.900000E-01   1.00800           0
      5701 MEMB     113      POPE     H10Y     HAL2     0.900000E-01   1.00800           0
      5702 MEMB     113      POPE     C311     CTL2    -0.180000       12.0110           0
      5703 MEMB     113      POPE     H11X     HAL2     0.900000E-01   1.00800           0
      5704 MEMB     113      POPE     H11Y     HAL2     0.900000E-01   1.00800           0
      5705 MEMB     113      POPE     C312     CTL2    -0.180000       12.0110           0
      5706 MEMB     113      POPE     H12X     HAL2     0.900000E-01   1.00800           0
      5707 MEMB     113      POPE     H12Y     HAL2     0.900000E-01   1.00800           0
      5708 MEMB     113      POPE     C313     CTL2    -0.180000       12.0110           0
      5709 MEMB     113      POPE     H13X     HAL2     0.900000E-01   1.00800           0
      5710 MEMB     113      POPE     H13Y     HAL2     0.900000E-01   1.00800           0
      5711 MEMB     113      POPE     C314     CTL2    -0.180000       12.0110           0
      5712 MEMB     113      POPE     H14X     HAL2     0.900000E-01   1.00800           0
      5713 MEMB     113      POPE     H14Y     HAL2     0.900000E-01   1.00800           0
      5714 MEMB     113      POPE     C315     CTL2    -0.180000       12.0110           0
      5715 MEMB     113      POPE     H15X     HAL2     0.900000E-01   1.00800           0
      5716 MEMB     113      POPE     H15Y     HAL2     0.900000E-01   1.00800           0
      5717 MEMB     113      POPE     C316     CTL3    -0.270000       12.0110           0
      5718 MEMB     113      POPE     H16X     HAL3     0.900000E-01   1.00800           0
      5719 MEMB     113      POPE     H16Y     HAL3     0.900000E-01   1.00800           0
      5720 MEMB     113      POPE     H16Z     HAL3     0.900000E-01   1.00800           0
      5721 MEMB     117      POPE     N        NH3L    -0.300000       14.0070           0
      5722 MEMB     117      POPE     HN1      HCL      0.330000       1.00800           0
      5723 MEMB     117      POPE     HN2      HCL      0.330000       1.00800           0
      5724 MEMB     117      POPE     HN3      HCL      0.330000       1.00800           0
      5725 MEMB     117      POPE     C12      CTL2     0.130000       12.0110           0
      5726 MEMB     117      POPE     H12A     HAL2     0.900000E-01   1.00800           0
      5727 MEMB     117      POPE     H12B     HAL2     0.900000E-01   1.00800           0
      5728 MEMB     117      POPE     C11      CTL2    -0.800000E-01   12.0110           0
      5729 MEMB     117      POPE     H11A     HAL2     0.900000E-01   1.00800           0
      5730 MEMB     117      POPE     H11B     HAL2     0.900000E-01   1.00800           0
      5731 MEMB     117      POPE     P        PL       1.500000       30.9740           0
      5732 MEMB     117      POPE     O13      O2L     -0.780000       15.9994           0
      5733 MEMB     117      POPE     O14      O2L     -0.780000       15.9994           0
      5734 MEMB     117      POPE     O11      OSLP    -0.570000       15.9994           0
      5735 MEMB     117      POPE     O12      OSLP    -0.570000       15.9994           0
      5736 MEMB     117      POPE     C1       CTL2    -0.800000E-01   12.0110           0
      5737 MEMB     117      POPE     HA       HAL2     0.900000E-01   1.00800           0
      5738 MEMB     117      POPE     HB       HAL2     0.900000E-01   1.00800           0
      5739 MEMB     117      POPE     C2       CTL1     0.170000       12.0110           0
      5740 MEMB     117      POPE     HS       HAL1     0.900000E-01   1.00800           0
      5741 MEMB     117      POPE     O21      OSL     -0.490000       15.9994           0
      5742 MEMB     117      POPE     C21      CL       0.900000       12.0110           0
      5743 MEMB     117      POPE     O22      OBL     -0.630000       15.9994           0
      5744 MEMB     117      POPE     C22      CTL2    -0.220000       12.0110           0
      5745 MEMB     117      POPE     H2R      HAL2     0.900000E-01   1.00800           0
      5746 MEMB     117      POPE     H2S      HAL2     0.900000E-01   1.00800           0
      5747 MEMB     117      POPE     C3       CTL2     0.800000E-01   12.0110           0
      5748 MEMB     117      POPE     HX       HAL2     0.900000E-01   1.00800           0
      5749 MEMB     117      POPE     HY       HAL2     0.900000E-01   1.00800           0
      5750 MEMB     117      POPE     O31      OSL     -0.490000       15.9994           0
      5751 MEMB     117      POPE     C31      CL       0.900000       12.0110           0
      5752 MEMB     117      POPE     O32      OBL     -0.630000       15.9994           0
      5753 MEMB     117      POPE     C32      CTL2    -0.220000       12.0110           0
      5754 MEMB     117      POPE     H2X      HAL2     0.900000E-01   1.00800           0
      5755 MEMB     117      POPE     H2Y      HAL2     0.900000E-01   1.00800           0
      5756 MEMB     117      POPE     C23      CTL2    -0.180000       12.0110           0
      5757 MEMB     117      POPE     H3R      HAL2     0.900000E-01   1.00800           0
      5758 MEMB     117      POPE     H3S      HAL2     0.900000E-01   1.00800           0
      5759 MEMB     117      POPE     C24      CTL2    -0.180000       12.0110           0
      5760 MEMB     117      POPE     H4R      HAL2     0.900000E-01   1.00800           0
      5761 MEMB     117      POPE     H4S      HAL2     0.900000E-01   1.00800           0
      5762 MEMB     117      POPE     C25      CTL2    -0.180000       12.0110           0
      5763 MEMB     117      POPE     H5R      HAL2     0.900000E-01   1.00800           0
      5764 MEMB     117      POPE     H5S      HAL2     0.900000E-01   1.00800           0
      5765 MEMB     117      POPE     C26      CTL2    -0.180000       12.0110           0
      5766 MEMB     117      POPE     H6R      HAL2     0.900000E-01   1.00800           0
      5767 MEMB     117      POPE     H6S      HAL2     0.900000E-01   1.00800           0
      5768 MEMB     117      POPE     C27      CTL2    -0.180000       12.0110           0
      5769 MEMB     117      POPE     H7R      HAL2     0.900000E-01   1.00800           0
      5770 MEMB     117      POPE     H7S      HAL2     0.900000E-01   1.00800           0
      5771 MEMB     117      POPE     C28      CTL2    -0.180000       12.0110           0
      5772 MEMB     117      POPE     H8R      HAL2     0.900000E-01   1.00800           0
      5773 MEMB     117      POPE     H8S      HAL2     0.900000E-01   1.00800           0
      5774 MEMB     117      POPE     C29      CEL1    -0.150000       12.0110           0
      5775 MEMB     117      POPE     H91      HEL1     0.150000       1.00800           0
      5776 MEMB     117      POPE     C210     CEL1    -0.150000       12.0110           0
      5777 MEMB     117      POPE     H101     HEL1     0.150000       1.00800           0
      5778 MEMB     117      POPE     C211     CTL2    -0.180000       12.0110           0
      5779 MEMB     117      POPE     H11R     HAL2     0.900000E-01   1.00800           0
      5780 MEMB     117      POPE     H11S     HAL2     0.900000E-01   1.00800           0
      5781 MEMB     117      POPE     C212     CTL2    -0.180000       12.0110           0
      5782 MEMB     117      POPE     H12R     HAL2     0.900000E-01   1.00800           0
      5783 MEMB     117      POPE     H12S     HAL2     0.900000E-01   1.00800           0
      5784 MEMB     117      POPE     C213     CTL2    -0.180000       12.0110           0
      5785 MEMB     117      POPE     H13R     HAL2     0.900000E-01   1.00800           0
      5786 MEMB     117      POPE     H13S     HAL2     0.900000E-01   1.00800           0
      5787 MEMB     117      POPE     C214     CTL2    -0.180000       12.0110           0
      5788 MEMB     117      POPE     H14R     HAL2     0.900000E-01   1.00800           0
      5789 MEMB     117      POPE     H14S     HAL2     0.900000E-01   1.00800           0
      5790 MEMB     117      POPE     C215     CTL2    -0.180000       12.0110           0
      5791 MEMB     117      POPE     H15R     HAL2     0.900000E-01   1.00800           0
      5792 MEMB     117      POPE     H15S     HAL2     0.900000E-01   1.00800           0
      5793 MEMB     117      POPE     C216     CTL2    -0.180000       12.0110           0
      5794 MEMB     117      POPE     H16R     HAL2     0.900000E-01   1.00800           0
      5795 MEMB     117      POPE     H16S     HAL2     0.900000E-01   1.00800           0
      5796 MEMB     117      POPE     C217     CTL2    -0.180000       12.0110           0
      5797 MEMB     117      POPE     H17R     HAL2     0.900000E-01   1.00800           0
      5798 MEMB     117      POPE     H17S     HAL2     0.900000E-01   1.00800           0
      5799 MEMB     117      POPE     C218     CTL3    -0.270000       12.0110           0
      5800 MEMB     117      POPE     H18R     HAL3     0.900000E-01   1.00800           0
      5801 MEMB     117      POPE     H18S     HAL3     0.900000E-01   1.00800           0
      5802 MEMB     117      POPE     H18T     HAL3     0.900000E-01   1.00800           0
      5803 MEMB     117      POPE     C33      CTL2    -0.180000       12.0110           0
      5804 MEMB     117      POPE     H3X      HAL2     0.900000E-01   1.00800           0
      5805 MEMB     117      POPE     H3Y      HAL2     0.900000E-01   1.00800           0
      5806 MEMB     117      POPE     C34      CTL2    -0.180000       12.0110           0
      5807 MEMB     117      POPE     H4X      HAL2     0.900000E-01   1.00800           0
      5808 MEMB     117      POPE     H4Y      HAL2     0.900000E-01   1.00800           0
      5809 MEMB     117      POPE     C35      CTL2    -0.180000       12.0110           0
      5810 MEMB     117      POPE     H5X      HAL2     0.900000E-01   1.00800           0
      5811 MEMB     117      POPE     H5Y      HAL2     0.900000E-01   1.00800           0
      5812 MEMB     117      POPE     C36      CTL2    -0.180000       12.0110           0
      5813 MEMB     117      POPE     H6X      HAL2     0.900000E-01   1.00800           0
      5814 MEMB     117      POPE     H6Y      HAL2     0.900000E-01   1.00800           0
      5815 MEMB     117      POPE     C37      CTL2    -0.180000       12.0110           0
      5816 MEMB     117      POPE     H7X      HAL2     0.900000E-01   1.00800           0
      5817 MEMB     117      POPE     H7Y      HAL2     0.900000E-01   1.00800           0
      5818 MEMB     117      POPE     C38      CTL2    -0.180000       12.0110           0
      5819 MEMB     117      POPE     H8X      HAL2     0.900000E-01   1.00800           0
      5820 MEMB     117      POPE     H8Y      HAL2     0.900000E-01   1.00800           0
      5821 MEMB     117      POPE     C39      CTL2    -0.180000       12.0110           0
      5822 MEMB     117      POPE     H9X      HAL2     0.900000E-01   1.00800           0
      5823 MEMB     117      POPE     H9Y      HAL2     0.900000E-01   1.00800           0
      5824 MEMB     117      POPE     C310     CTL2    -0.180000       12.0110           0
      5825 MEMB     117      POPE     H10X     HAL2     0.900000E-01   1.00800           0
      5826 MEMB     117      POPE     H10Y     HAL2     0.900000E-01   1.00800           0
      5827 MEMB     117      POPE     C311     CTL2    -0.180000       12.0110           0
      5828 MEMB     117      POPE     H11X     HAL2     0.900000E-01   1.00800           0
      5829 MEMB     117      POPE     H11Y     HAL2     0.900000E-01   1.00800           0
      5830 MEMB     117      POPE     C312     CTL2    -0.180000       12.0110           0
      5831 MEMB     117      POPE     H12X     HAL2     0.900000E-01   1.00800           0
      5832 MEMB     117      POPE     H12Y     HAL2     0.900000E-01   1.00800           0
      5833 MEMB     117      POPE     C313     CTL2    -0.180000       12.0110           0
      5834 MEMB     117      POPE     H13X     HAL2     0.900000E-01   1.00800           0
      5835 MEMB     117      POPE     H13Y     HAL2     0.900000E-01   1.00800           0
      5836 MEMB     117      POPE     C314     CTL2    -0.180000       12.0110           0
      5837 MEMB     117      POPE     H14X     HAL2     0.900000E-01   1.00800           0
      5838 MEMB     117      POPE     H14Y     HAL2     0.900000E-01   1.00800           0
      5839 MEMB     117      POPE     C315     CTL2    -0.180000       12.0110           0
      5840 MEMB     117      POPE     H15X     HAL2     0.900000E-01   1.00800           0
      5841 MEMB     117      POPE     H15Y     HAL2     0.900000E-01   1.00800           0
      5842 MEMB     117      POPE     C316     CTL3    -0.270000       12.0110           0
      5843 MEMB     117      POPE     H16X     HAL3     0.900000E-01   1.00800           0
      5844 MEMB     117      POPE     H16Y     HAL3     0.900000E-01   1.00800           0
      5845 MEMB     117      POPE     H16Z     HAL3     0.900000E-01   1.00800           0
      5846 MEMB     126      POPE     N        NH3L    -0.300000       14.0070           0
      5847 MEMB     126      POPE     HN1      HCL      0.330000       1.00800           0
      5848 MEMB     126      POPE     HN2      HCL      0.330000       1.00800           0
      5849 MEMB     126      POPE     HN3      HCL      0.330000       1.00800           0
      5850 MEMB     126      POPE     C12      CTL2     0.130000       12.0110           0
      5851 MEMB     126      POPE     H12A     HAL2     0.900000E-01   1.00800           0
      5852 MEMB     126      POPE     H12B     HAL2     0.900000E-01   1.00800           0
      5853 MEMB     126      POPE     C11      CTL2    -0.800000E-01   12.0110           0
      5854 MEMB     126      POPE     H11A     HAL2     0.900000E-01   1.00800           0
      5855 MEMB     126      POPE     H11B     HAL2     0.900000E-01   1.00800           0
      5856 MEMB     126      POPE     P        PL       1.500000       30.9740           0
      5857 MEMB     126      POPE     O13      O2L     -0.780000       15.9994           0
      5858 MEMB     126      POPE     O14      O2L     -0.780000       15.9994           0
      5859 MEMB     126      POPE     O11      OSLP    -0.570000       15.9994           0
      5860 MEMB     126      POPE     O12      OSLP    -0.570000       15.9994           0
      5861 MEMB     126      POPE     C1       CTL2    -0.800000E-01   12.0110           0
      5862 MEMB     126      POPE     HA       HAL2     0.900000E-01   1.00800           0
      5863 MEMB     126      POPE     HB       HAL2     0.900000E-01   1.00800           0
      5864 MEMB     126      POPE     C2       CTL1     0.170000       12.0110           0
      5865 MEMB     126      POPE     HS       HAL1     0.900000E-01   1.00800           0
      5866 MEMB     126      POPE     O21      OSL     -0.490000       15.9994           0
      5867 MEMB     126      POPE     C21      CL       0.900000       12.0110           0
      5868 MEMB     126      POPE     O22      OBL     -0.630000       15.9994           0
      5869 MEMB     126      POPE     C22      CTL2    -0.220000       12.0110           0
      5870 MEMB     126      POPE     H2R      HAL2     0.900000E-01   1.00800           0
      5871 MEMB     126      POPE     H2S      HAL2     0.900000E-01   1.00800           0
      5872 MEMB     126      POPE     C3       CTL2     0.800000E-01   12.0110           0
      5873 MEMB     126      POPE     HX       HAL2     0.900000E-01   1.00800           0
      5874 MEMB     126      POPE     HY       HAL2     0.900000E-01   1.00800           0
      5875 MEMB     126      POPE     O31      OSL     -0.490000       15.9994           0
      5876 MEMB     126      POPE     C31      CL       0.900000       12.0110           0
      5877 MEMB     126      POPE     O32      OBL     -0.630000       15.9994           0
      5878 MEMB     126      POPE     C32      CTL2    -0.220000       12.0110           0
      5879 MEMB     126      POPE     H2X      HAL2     0.900000E-01   1.00800           0
      5880 MEMB     126      POPE     H2Y      HAL2     0.900000E-01   1.00800           0
      5881 MEMB     126      POPE     C23      CTL2    -0.180000       12.0110           0
      5882 MEMB     126      POPE     H3R      HAL2     0.900000E-01   1.00800           0
      5883 MEMB     126      POPE     H3S      HAL2     0.900000E-01   1.00800           0
      5884 MEMB     126      POPE     C24      CTL2    -0.180000       12.0110           0
      5885 MEMB     126      POPE     H4R      HAL2     0.900000E-01   1.00800           0
      5886 MEMB     126      POPE     H4S      HAL2     0.900000E-01   1.00800           0
      5887 MEMB     126      POPE     C25      CTL2    -0.180000       12.0110           0
      5888 MEMB     126      POPE     H5R      HAL2     0.900000E-01   1.00800           0
      5889 MEMB     126      POPE     H5S      HAL2     0.900000E-01   1.00800           0
      5890 MEMB     126      POPE     C26      CTL2    -0.180000       12.0110           0
      5891 MEMB     126      POPE     H6R      HAL2     0.900000E-01   1.00800           0
      5892 MEMB     126      POPE     H6S      HAL2     0.900000E-01   1.00800           0
      5893 MEMB     126      POPE     C27      CTL2    -0.180000       12.0110           0
      5894 MEMB     126      POPE     H7R      HAL2     0.900000E-01   1.00800           0
      5895 MEMB     126      POPE     H7S      HAL2     0.900000E-01   1.00800           0
      5896 MEMB     126      POPE     C28      CTL2    -0.180000       12.0110           0
      5897 MEMB     126      POPE     H8R      HAL2     0.900000E-01   1.00800           0
      5898 MEMB     126      POPE     H8S      HAL2     0.900000E-01   1.00800           0
      5899 MEMB     126      POPE     C29      CEL1    -0.150000       12.0110           0
      5900 MEMB     126      POPE     H91      HEL1     0.150000       1.00800           0
      5901 MEMB     126      POPE     C210     CEL1    -0.150000       12.0110           0
      5902 MEMB     126      POPE     H101     HEL1     0.150000       1.00800           0
      5903 MEMB     126      POPE     C211     CTL2    -0.180000       12.0110           0
      5904 MEMB     126      POPE     H11R     HAL2     0.900000E-01   1.00800           0
      5905 MEMB     126      POPE     H11S     HAL2     0.900000E-01   1.00800           0
      5906 MEMB     126      POPE     C212     CTL2    -0.180000       12.0110           0
      5907 MEMB     126      POPE     H12R     HAL2     0.900000E-01   1.00800           0
      5908 MEMB     126      POPE     H12S     HAL2     0.900000E-01   1.00800           0
      5909 MEMB     126      POPE     C213     CTL2    -0.180000       12.0110           0
      5910 MEMB     126      POPE     H13R     HAL2     0.900000E-01   1.00800           0
      5911 MEMB     126      POPE     H13S     HAL2     0.900000E-01   1.00800           0
      5912 MEMB     126      POPE     C214     CTL2    -0.180000       12.0110           0
      5913 MEMB     126      POPE     H14R     HAL2     0.900000E-01   1.00800           0
      5914 MEMB     126      POPE     H14S     HAL2     0.900000E-01   1.00800           0
      5915 MEMB     126      POPE     C215     CTL2    -0.180000       12.0110           0
      5916 MEMB     126      POPE     H15R     HAL2     0.900000E-01   1.00800           0
      5917 MEMB     126      POPE     H15S     HAL2     0.900000E-01   1.00800           0
      5918 MEMB     126      POPE     C216     CTL2    -0.180000       12.0110           0
      5919 MEMB     126      POPE     H16R     HAL2     0.900000E-01   1.00800           0
      5920 MEMB     126      POPE     H16S     HAL2     0.900000E-01   1.00800           0
      5921 MEMB     126      POPE     C217     CTL2    -0.180000       12.0110           0
      5922 MEMB     126      POPE     H17R     HAL2     0.900000E-01   1.00800           0
      5923 MEMB     126      POPE     H17S     HAL2     0.900000E-01   1.00800           0
      5924 MEMB     126      POPE     C218     CTL3    -0.270000       12.0110           0
      5925 MEMB     126      POPE     H18R     HAL3     0.900000E-01   1.00800           0
      5926 MEMB     126      POPE     H18S     HAL3     0.900000E-01   1.00800           0
      5927 MEMB     126      POPE     H18T     HAL3     0.900000E-01   1.00800           0
      5928 MEMB     126      POPE     C33      CTL2    -0.180000       12.0110           0
      5929 MEMB     126      POPE     H3X      HAL2     0.900000E-01   1.00800           0
      5930 MEMB     126      POPE     H3Y      HAL2     0.900000E-01   1.00800           0
      5931 MEMB     126      POPE     C34      CTL2    -0.180000       12.0110           0
      5932 MEMB     126      POPE     H4X      HAL2     0.900000E-01   1.00800           0
      5933 MEMB     126      POPE     H4Y      HAL2     0.900000E-01   1.00800           0
      5934 MEMB     126      POPE     C35      CTL2    -0.180000       12.0110           0
      5935 MEMB     126      POPE     H5X      HAL2     0.900000E-01   1.00800           0
      5936 MEMB     126      POPE     H5Y      HAL2     0.900000E-01   1.00800           0
      5937 MEMB     126      POPE     C36      CTL2    -0.180000       12.0110           0
      5938 MEMB     126      POPE     H6X      HAL2     0.900000E-01   1.00800           0
      5939 MEMB     126      POPE     H6Y      HAL2     0.900000E-01   1.00800           0
      5940 MEMB     126      POPE     C37      CTL2    -0.180000       12.0110           0
      5941 MEMB     126      POPE     H7X      HAL2     0.900000E-01   1.00800           0
      5942 MEMB     126      POPE     H7Y      HAL2     0.900000E-01   1.00800           0
      5943 MEMB     126      POPE     C38      CTL2    -0.180000       12.0110           0
      5944 MEMB     126      POPE     H8X      HAL2     0.900000E-01   1.00800           0
      5945 MEMB     126      POPE     H8Y      HAL2     0.900000E-01   1.00800           0
      5946 MEMB     126      POPE     C39      CTL2    -0.180000       12.0110           0
      5947 MEMB     126      POPE     H9X      HAL2     0.900000E-01   1.00800           0
      5948 MEMB     126      POPE     H9Y      HAL2     0.900000E-01   1.00800           0
      5949 MEMB     126      POPE     C310     CTL2    -0.180000       12.0110           0
      5950 MEMB     126      POPE     H10X     HAL2     0.900000E-01   1.00800           0
      5951 MEMB     126      POPE     H10Y     HAL2     0.900000E-01   1.00800           0
      5952 MEMB     126      POPE     C311     CTL2    -0.180000       12.0110           0
      5953 MEMB     126      POPE     H11X     HAL2     0.900000E-01   1.00800           0
      5954 MEMB     126      POPE     H11Y     HAL2     0.900000E-01   1.00800           0
      5955 MEMB     126      POPE     C312     CTL2    -0.180000       12.0110           0
      5956 MEMB     126      POPE     H12X     HAL2     0.900000E-01   1.00800           0
      5957 MEMB     126      POPE     H12Y     HAL2     0.900000E-01   1.00800           0
      5958 MEMB     126      POPE     C313     CTL2    -0.180000       12.0110           0
      5959 MEMB     126      POPE     H13X     HAL2     0.900000E-01   1.00800           0
      5960 MEMB     126      POPE     H13Y     HAL2     0.900000E-01   1.00800           0
      5961 MEMB     126      POPE     C314     CTL2    -0.180000       12.0110           0
      5962 MEMB     126      POPE     H14X     HAL2     0.900000E-01   1.00800           0
      5963 MEMB     126      POPE     H14Y     HAL2     0.900000E-01   1.00800           0
      5964 MEMB     126      POPE     C315     CTL2    -0.180000       12.0110           0
      5965 MEMB     126      POPE     H15X     HAL2     0.900000E-01   1.00800           0
      5966 MEMB     126      POPE     H15Y     HAL2     0.900000E-01   1.00800           0
      5967 MEMB     126      POPE     C316     CTL3    -0.270000       12.0110           0
      5968 MEMB     126      POPE     H16X     HAL3     0.900000E-01   1.00800           0
      5969 MEMB     126      POPE     H16Y     HAL3     0.900000E-01   1.00800           0
      5970 MEMB     126      POPE     H16Z     HAL3     0.900000E-01   1.00800           0
      5971 MEMB     131      POPE     N        NH3L    -0.300000       14.0070           0
      5972 MEMB     131      POPE     HN1      HCL      0.330000       1.00800           0
      5973 MEMB     131      POPE     HN2      HCL      0.330000       1.00800           0
      5974 MEMB     131      POPE     HN3      HCL      0.330000       1.00800           0
      5975 MEMB     131      POPE     C12      CTL2     0.130000       12.0110           0
      5976 MEMB     131      POPE     H12A     HAL2     0.900000E-01   1.00800           0
      5977 MEMB     131      POPE     H12B     HAL2     0.900000E-01   1.00800           0
      5978 MEMB     131      POPE     C11      CTL2    -0.800000E-01   12.0110           0
      5979 MEMB     131      POPE     H11A     HAL2     0.900000E-01   1.00800           0
      5980 MEMB     131      POPE     H11B     HAL2     0.900000E-01   1.00800           0
      5981 MEMB     131      POPE     P        PL       1.500000       30.9740           0
      5982 MEMB     131      POPE     O13      O2L     -0.780000       15.9994           0
      5983 MEMB     131      POPE     O14      O2L     -0.780000       15.9994           0
      5984 MEMB     131      POPE     O11      OSLP    -0.570000       15.9994           0
      5985 MEMB     131      POPE     O12      OSLP    -0.570000       15.9994           0
      5986 MEMB     131      POPE     C1       CTL2    -0.800000E-01   12.0110           0
      5987 MEMB     131      POPE     HA       HAL2     0.900000E-01   1.00800           0
      5988 MEMB     131      POPE     HB       HAL2     0.900000E-01   1.00800           0
      5989 MEMB     131      POPE     C2       CTL1     0.170000       12.0110           0
      5990 MEMB     131      POPE     HS       HAL1     0.900000E-01   1.00800           0
      5991 MEMB     131      POPE     O21      OSL     -0.490000       15.9994           0
      5992 MEMB     131      POPE     C21      CL       0.900000       12.0110           0
      5993 MEMB     131      POPE     O22      OBL     -0.630000       15.9994           0
      5994 MEMB     131      POPE     C22      CTL2    -0.220000       12.0110           0
      5995 MEMB     131      POPE     H2R      HAL2     0.900000E-01   1.00800           0
      5996 MEMB     131      POPE     H2S      HAL2     0.900000E-01   1.00800           0
      5997 MEMB     131      POPE     C3       CTL2     0.800000E-01   12.0110           0
      5998 MEMB     131      POPE     HX       HAL2     0.900000E-01   1.00800           0
      5999 MEMB     131      POPE     HY       HAL2     0.900000E-01   1.00800           0
      6000 MEMB     131      POPE     O31      OSL     -0.490000       15.9994           0
      6001 MEMB     131      POPE     C31      CL       0.900000       12.0110           0
      6002 MEMB     131      POPE     O32      OBL     -0.630000       15.9994           0
      6003 MEMB     131      POPE     C32      CTL2    -0.220000       12.0110           0
      6004 MEMB     131      POPE     H2X      HAL2     0.900000E-01   1.00800           0
      6005 MEMB     131      POPE     H2Y      HAL2     0.900000E-01   1.00800           0
      6006 MEMB     131      POPE     C23      CTL2    -0.180000       12.0110           0
      6007 MEMB     131      POPE     H3R      HAL2     0.900000E-01   1.00800           0
      6008 MEMB     131      POPE     H3S      HAL2     0.900000E-01   1.00800           0
      6009 MEMB     131      POPE     C24      CTL2    -0.180000       12.0110           0
      6010 MEMB     131      POPE     H4R      HAL2     0.900000E-01   1.00800           0
      6011 MEMB     131      POPE     H4S      HAL2     0.900000E-01   1.00800           0
      6012 MEMB     131      POPE     C25      CTL2    -0.180000       12.0110           0
      6013 MEMB     131      POPE     H5R      HAL2     0.900000E-01   1.00800           0
      6014 MEMB     131      POPE     H5S      HAL2     0.900000E-01   1.00800           0
      6015 MEMB     131      POPE     C26      CTL2    -0.180000       12.0110           0
      6016 MEMB     131      POPE     H6R      HAL2     0.900000E-01   1.00800           0
      6017 MEMB     131      POPE     H6S      HAL2     0.900000E-01   1.00800           0
      6018 MEMB     131      POPE     C27      CTL2    -0.180000       12.0110           0
      6019 MEMB     131      POPE     H7R      HAL2     0.900000E-01   1.00800           0
      6020 MEMB     131      POPE     H7S      HAL2     0.900000E-01   1.00800           0
      6021 MEMB     131      POPE     C28      CTL2    -0.180000       12.0110           0
      6022 MEMB     131      POPE     H8R      HAL2     0.900000E-01   1.00800           0
      6023 MEMB     131      POPE     H8S      HAL2     0.900000E-01   1.00800           0
      6024 MEMB     131      POPE     C29      CEL1    -0.150000       12.0110           0
      6025 MEMB     131      POPE     H91      HEL1     0.150000       1.00800           0
      6026 MEMB     131      POPE     C210     CEL1    -0.150000       12.0110           0
      6027 MEMB     131      POPE     H101     HEL1     0.150000       1.00800           0
      6028 MEMB     131      POPE     C211     CTL2    -0.180000       12.0110           0
      6029 MEMB     131      POPE     H11R     HAL2     0.900000E-01   1.00800           0
      6030 MEMB     131      POPE     H11S     HAL2     0.900000E-01   1.00800           0
      6031 MEMB     131      POPE     C212     CTL2    -0.180000       12.0110           0
      6032 MEMB     131      POPE     H12R     HAL2     0.900000E-01   1.00800           0
      6033 MEMB     131      POPE     H12S     HAL2     0.900000E-01   1.00800           0
      6034 MEMB     131      POPE     C213     CTL2    -0.180000       12.0110           0
      6035 MEMB     131      POPE     H13R     HAL2     0.900000E-01   1.00800           0
      6036 MEMB     131      POPE     H13S     HAL2     0.900000E-01   1.00800           0
      6037 MEMB     131      POPE     C214     CTL2    -0.180000       12.0110           0
      6038 MEMB     131      POPE     H14R     HAL2     0.900000E-01   1.00800           0
      6039 MEMB     131      POPE     H14S     HAL2     0.900000E-01   1.00800           0
      6040 MEMB     131      POPE     C215     CTL2    -0.180000       12.0110           0
      6041 MEMB     131      POPE     H15R     HAL2     0.900000E-01   1.00800           0
      6042 MEMB     131      POPE     H15S     HAL2     0.900000E-01   1.00800           0
      6043 MEMB     131      POPE     C216     CTL2    -0.180000       12.0110           0
      6044 MEMB     131      POPE     H16R     HAL2     0.900000E-01   1.00800           0
      6045 MEMB     131      POPE     H16S     HAL2     0.900000E-01   1.00800           0
      6046 MEMB     131      POPE     C217     CTL2    -0.180000       12.0110           0
      6047 MEMB     131      POPE     H17R     HAL2     0.900000E-01   1.00800           0
      6048 MEMB     131      POPE     H17S     HAL2     0.900000E-01   1.00800           0
      6049 MEMB     131      POPE     C218     CTL3    -0.270000       12.0110           0
      6050 MEMB     131      POPE     H18R     HAL3     0.900000E-01   1.00800           0
      6051 MEMB     131      POPE     H18S     HAL3     0.900000E-01   1.00800           0
      6052 MEMB     131      POPE     H18T     HAL3     0.900000E-01   1.00800           0
      6053 MEMB     131      POPE     C33      CTL2    -0.180000       12.0110           0
      6054 MEMB     131      POPE     H3X      HAL2     0.900000E-01   1.00800           0
      6055 MEMB     131      POPE     H3Y      HAL2     0.900000E-01   1.00800           0
      6056 MEMB     131      POPE     C34      CTL2    -0.180000       12.0110           0
      6057 MEMB     131      POPE     H4X      HAL2     0.900000E-01   1.00800           0
      6058 MEMB     131      POPE     H4Y      HAL2     0.900000E-01   1.00800           0
      6059 MEMB     131      POPE     C35      CTL2    -0.180000       12.0110           0
      6060 MEMB     131      POPE     H5X      HAL2     0.900000E-01   1.00800           0
      6061 MEMB     131      POPE     H5Y      HAL2     0.900000E-01   1.00800           0
      6062 MEMB     131      POPE     C36      CTL2    -0.180000       12.0110           0
      6063 MEMB     131      POPE     H6X      HAL2     0.900000E-01   1.00800           0
      6064 MEMB     131      POPE     H6Y      HAL2     0.900000E-01   1.00800           0
      6065 MEMB     131      POPE     C37      CTL2    -0.180000       12.0110           0
      6066 MEMB     131      POPE     H7X      HAL2     0.900000E-01   1.00800           0
      6067 MEMB     131      POPE     H7Y      HAL2     0.900000E-01   1.00800           0
      6068 MEMB     131      POPE     C38      CTL2    -0.180000       12.0110           0
      6069 MEMB     131      POPE     H8X      HAL2     0.900000E-01   1.00800           0
      6070 MEMB     131      POPE     H8Y      HAL2     0.900000E-01   1.00800           0
      6071 MEMB     131      POPE     C39      CTL2    -0.180000       12.0110           0
      6072 MEMB     131      POPE     H9X      HAL2     0.900000E-01   1.00800           0
      6073 MEMB     131      POPE     H9Y      HAL2     0.900000E-01   1.00800           0
      6074 MEMB     131      POPE     C310     CTL2    -0.180000       12.0110           0
      6075 MEMB     131      POPE     H10X     HAL2     0.900000E-01   1.00800           0
      6076 MEMB     131      POPE     H10Y     HAL2     0.900000E-01   1.00800           0
      6077 MEMB     131      POPE     C311     CTL2    -0.180000       12.0110           0
      6078 MEMB     131      POPE     H11X     HAL2     0.900000E-01   1.00800           0
      6079 MEMB     131      POPE     H11Y     HAL2     0.900000E-01   1.00800           0
      6080 MEMB     131      POPE     C312     CTL2    -0.180000       12.0110           0
      6081 MEMB     131      POPE     H12X     HAL2     0.900000E-01   1.00800           0
      6082 MEMB     131      POPE     H12Y     HAL2     0.900000E-01   1.00800           0
      6083 MEMB     131      POPE     C313     CTL2    -0.180000       12.0110           0
      6084 MEMB     131      POPE     H13X     HAL2     0.900000E-01   1.00800           0
      6085 MEMB     131      POPE     H13Y     HAL2     0.900000E-01   1.00800           0
      6086 MEMB     131      POPE     C314     CTL2    -0.180000       12.0110           0
      6087 MEMB     131      POPE     H14X     HAL2     0.900000E-01   1.00800           0
      6088 MEMB     131      POPE     H14Y     HAL2     0.900000E-01   1.00800           0
      6089 MEMB     131      POPE     C315     CTL2    -0.180000       12.0110           0
      6090 MEMB     131      POPE     H15X     HAL2     0.900000E-01   1.00800           0
      6091 MEMB     131      POPE     H15Y     HAL2     0.900000E-01   1.00800           0
      6092 MEMB     131      POPE     C316     CTL3    -0.270000       12.0110           0
      6093 MEMB     131      POPE     H16X     HAL3     0.900000E-01   1.00800           0
      6094 MEMB     131      POPE     H16Y     HAL3     0.900000E-01   1.00800           0
      6095 MEMB     131      POPE     H16Z     HAL3     0.900000E-01   1.00800           0
      6096 MEMB     134      POPE     N        NH3L    -0.300000       14.0070           0
      6097 MEMB     134      POPE     HN1      HCL      0.330000       1.00800           0
      6098 MEMB     134      POPE     HN2      HCL      0.330000       1.00800           0
      6099 MEMB     134      POPE     HN3      HCL      0.330000       1.00800           0
      6100 MEMB     134      POPE     C12      CTL2     0.130000       12.0110           0
      6101 MEMB     134      POPE     H12A     HAL2     0.900000E-01   1.00800           0
      6102 MEMB     134      POPE     H12B     HAL2     0.900000E-01   1.00800           0
      6103 MEMB     134      POPE     C11      CTL2    -0.800000E-01   12.0110           0
      6104 MEMB     134      POPE     H11A     HAL2     0.900000E-01   1.00800           0
      6105 MEMB     134      POPE     H11B     HAL2     0.900000E-01   1.00800           0
      6106 MEMB     134      POPE     P        PL       1.500000       30.9740           0
      6107 MEMB     134      POPE     O13      O2L     -0.780000       15.9994           0
      6108 MEMB     134      POPE     O14      O2L     -0.780000       15.9994           0
      6109 MEMB     134      POPE     O11      OSLP    -0.570000       15.9994           0
      6110 MEMB     134      POPE     O12      OSLP    -0.570000       15.9994           0
      6111 MEMB     134      POPE     C1       CTL2    -0.800000E-01   12.0110           0
      6112 MEMB     134      POPE     HA       HAL2     0.900000E-01   1.00800           0
      6113 MEMB     134      POPE     HB       HAL2     0.900000E-01   1.00800           0
      6114 MEMB     134      POPE     C2       CTL1     0.170000       12.0110           0
      6115 MEMB     134      POPE     HS       HAL1     0.900000E-01   1.00800           0
      6116 MEMB     134      POPE     O21      OSL     -0.490000       15.9994           0
      6117 MEMB     134      POPE     C21      CL       0.900000       12.0110           0
      6118 MEMB     134      POPE     O22      OBL     -0.630000       15.9994           0
      6119 MEMB     134      POPE     C22      CTL2    -0.220000       12.0110           0
      6120 MEMB     134      POPE     H2R      HAL2     0.900000E-01   1.00800           0
      6121 MEMB     134      POPE     H2S      HAL2     0.900000E-01   1.00800           0
      6122 MEMB     134      POPE     C3       CTL2     0.800000E-01   12.0110           0
      6123 MEMB     134      POPE     HX       HAL2     0.900000E-01   1.00800           0
      6124 MEMB     134      POPE     HY       HAL2     0.900000E-01   1.00800           0
      6125 MEMB     134      POPE     O31      OSL     -0.490000       15.9994           0
      6126 MEMB     134      POPE     C31      CL       0.900000       12.0110           0
      6127 MEMB     134      POPE     O32      OBL     -0.630000       15.9994           0
      6128 MEMB     134      POPE     C32      CTL2    -0.220000       12.0110           0
      6129 MEMB     134      POPE     H2X      HAL2     0.900000E-01   1.00800           0
      6130 MEMB     134      POPE     H2Y      HAL2     0.900000E-01   1.00800           0
      6131 MEMB     134      POPE     C23      CTL2    -0.180000       12.0110           0
      6132 MEMB     134      POPE     H3R      HAL2     0.900000E-01   1.00800           0
      6133 MEMB     134      POPE     H3S      HAL2     0.900000E-01   1.00800           0
      6134 MEMB     134      POPE     C24      CTL2    -0.180000       12.0110           0
      6135 MEMB     134      POPE     H4R      HAL2     0.900000E-01   1.00800           0
      6136 MEMB     134      POPE     H4S      HAL2     0.900000E-01   1.00800           0
      6137 MEMB     134      POPE     C25      CTL2    -0.180000       12.0110           0
      6138 MEMB     134      POPE     H5R      HAL2     0.900000E-01   1.00800           0
      6139 MEMB     134      POPE     H5S      HAL2     0.900000E-01   1.00800           0
      6140 MEMB     134      POPE     C26      CTL2    -0.180000       12.0110           0
      6141 MEMB     134      POPE     H6R      HAL2     0.900000E-01   1.00800           0
      6142 MEMB     134      POPE     H6S      HAL2     0.900000E-01   1.00800           0
      6143 MEMB     134      POPE     C27      CTL2    -0.180000       12.0110           0
      6144 MEMB     134      POPE     H7R      HAL2     0.900000E-01   1.00800           0
      6145 MEMB     134      POPE     H7S      HAL2     0.900000E-01   1.00800           0
      6146 MEMB     134      POPE     C28      CTL2    -0.180000       12.0110           0
      6147 MEMB     134      POPE     H8R      HAL2     0.900000E-01   1.00800           0
      6148 MEMB     134      POPE     H8S      HAL2     0.900000E-01   1.00800           0
      6149 MEMB     134      POPE     C29      CEL1    -0.150000       12.0110           0
      6150 MEMB     134      POPE     H91      HEL1     0.150000       1.00800           0
      6151 MEMB     134      POPE     C210     CEL1    -0.150000       12.0110           0
      6152 MEMB     134      POPE     H101     HEL1     0.150000       1.00800           0
      6153 MEMB     134      POPE     C211     CTL2    -0.180000       12.0110           0
      6154 MEMB     134      POPE     H11R     HAL2     0.900000E-01   1.00800           0
      6155 MEMB     134      POPE     H11S     HAL2     0.900000E-01   1.00800           0
      6156 MEMB     134      POPE     C212     CTL2    -0.180000       12.0110           0
      6157 MEMB     134      POPE     H12R     HAL2     0.900000E-01   1.00800           0
      6158 MEMB     134      POPE     H12S     HAL2     0.900000E-01   1.00800           0
      6159 MEMB     134      POPE     C213     CTL2    -0.180000       12.0110           0
      6160 MEMB     134      POPE     H13R     HAL2     0.900000E-01   1.00800           0
      6161 MEMB     134      POPE     H13S     HAL2     0.900000E-01   1.00800           0
      6162 MEMB     134      POPE     C214     CTL2    -0.180000       12.0110           0
      6163 MEMB     134      POPE     H14R     HAL2     0.900000E-01   1.00800           0
      6164 MEMB     134      POPE     H14S     HAL2     0.900000E-01   1.00800           0
      6165 MEMB     134      POPE     C215     CTL2    -0.180000       12.0110           0
      6166 MEMB     134      POPE     H15R     HAL2     0.900000E-01   1.00800           0
      6167 MEMB     134      POPE     H15S     HAL2     0.900000E-01   1.00800           0
      6168 MEMB     134      POPE     C216     CTL2    -0.180000       12.0110           0
      6169 MEMB     134      POPE     H16R     HAL2     0.900000E-01   1.00800           0
      6170 MEMB     134      POPE     H16S     HAL2     0.900000E-01   1.00800           0
      6171 MEMB     134      POPE     C217     CTL2    -0.180000       12.0110           0
      6172 MEMB     134      POPE     H17R     HAL2     0.900000E-01   1.00800           0
      6173 MEMB     134      POPE     H17S     HAL2     0.900000E-01   1.00800           0
      6174 MEMB     134      POPE     C218     CTL3    -0.270000       12.0110           0
      6175 MEMB     134      POPE     H18R     HAL3     0.900000E-01   1.00800           0
      6176 MEMB     134      POPE     H18S     HAL3     0.900000E-01   1.00800           0
      6177 MEMB     134      POPE     H18T     HAL3     0.900000E-01   1.00800           0
      6178 MEMB     134      POPE     C33      CTL2    -0.180000       12.0110           0
      6179 MEMB     134      POPE     H3X      HAL2     0.900000E-01   1.00800           0
      6180 MEMB     134      POPE     H3Y      HAL2     0.900000E-01   1.00800           0
      6181 MEMB     134      POPE     C34      CTL2    -0.180000       12.0110           0
      6182 MEMB     134      POPE     H4X      HAL2     0.900000E-01   1.00800           0
      6183 MEMB     134      POPE     H4Y      HAL2     0.900000E-01   1.00800           0
      6184 MEMB     134      POPE     C35      CTL2    -0.180000       12.0110           0
      6185 MEMB     134      POPE     H5X      HAL2     0.900000E-01   1.00800           0
      6186 MEMB     134      POPE     H5Y      HAL2     0.900000E-01   1.00800           0
      6187 MEMB     134      POPE     C36      CTL2    -0.180000       12.0110           0
      6188 MEMB     134      POPE     H6X      HAL2     0.900000E-01   1.00800           0
      6189 MEMB     134      POPE     H6Y      HAL2     0.900000E-01   1.00800           0
      6190 MEMB     134      POPE     C37      CTL2    -0.180000       12.0110           0
      6191 MEMB     134      POPE     H7X      HAL2     0.900000E-01   1.00800           0
      6192 MEMB     134      POPE     H7Y      HAL2     0.900000E-01   1.00800           0
      6193 MEMB     134      POPE     C38      CTL2    -0.180000       12.0110           0
      6194 MEMB     134      POPE     H8X      HAL2     0.900000E-01   1.00800           0
      6195 MEMB     134      POPE     H8Y      HAL2     0.900000E-01   1.00800           0
      6196 MEMB     134      POPE     C39      CTL2    -0.180000       12.0110           0
      6197 MEMB     134      POPE     H9X      HAL2     0.900000E-01   1.00800           0
      6198 MEMB     134      POPE     H9Y      HAL2     0.900000E-01   1.00800           0
      6199 MEMB     134      POPE     C310     CTL2    -0.180000       12.0110           0
      6200 MEMB     134      POPE     H10X     HAL2     0.900000E-01   1.00800           0
      6201 MEMB     134      POPE     H10Y     HAL2     0.900000E-01   1.00800           0
      6202 MEMB     134      POPE     C311     CTL2    -0.180000       12.0110           0
      6203 MEMB     134      POPE     H11X     HAL2     0.900000E-01   1.00800           0
      6204 MEMB     134      POPE     H11Y     HAL2     0.900000E-01   1.00800           0
      6205 MEMB     134      POPE     C312     CTL2    -0.180000       12.0110           0
      6206 MEMB     134      POPE     H12X     HAL2     0.900000E-01   1.00800           0
      6207 MEMB     134      POPE     H12Y     HAL2     0.900000E-01   1.00800           0
      6208 MEMB     134      POPE     C313     CTL2    -0.180000       12.0110           0
      6209 MEMB     134      POPE     H13X     HAL2     0.900000E-01   1.00800           0
      6210 MEMB     134      POPE     H13Y     HAL2     0.900000E-01   1.00800           0
      6211 MEMB     134      POPE     C314     CTL2    -0.180000       12.0110           0
      6212 MEMB     134      POPE     H14X     HAL2     0.900000E-01   1.00800           0
      6213 MEMB     134      POPE     H14Y     HAL2     0.900000E-01   1.00800           0
      6214 MEMB     134      POPE     C315     CTL2    -0.180000       12.0110           0
      6215 MEMB     134      POPE     H15X     HAL2     0.900000E-01   1.00800           0
      6216 MEMB     134      POPE     H15Y     HAL2     0.900000E-01   1.00800           0
      6217 MEMB     134      POPE     C316     CTL3    -0.270000       12.0110           0
      6218 MEMB     134      POPE     H16X     HAL3     0.900000E-01   1.00800           0
      6219 MEMB     134      POPE     H16Y     HAL3     0.900000E-01   1.00800           0
      6220 MEMB     134      POPE     H16Z     HAL3     0.900000E-01   1.00800           0
      6221 MEMB     141      POPE     N        NH3L    -0.300000       14.0070           0
      6222 MEMB     141      POPE     HN1      HCL      0.330000       1.00800           0
      6223 MEMB     141      POPE     HN2      HCL      0.330000       1.00800           0
      6224 MEMB     141      POPE     HN3      HCL      0.330000       1.00800           0
      6225 MEMB     141      POPE     C12      CTL2     0.130000       12.0110           0
      6226 MEMB     141      POPE     H12A     HAL2     0.900000E-01   1.00800           0
      6227 MEMB     141      POPE     H12B     HAL2     0.900000E-01   1.00800           0
      6228 MEMB     141      POPE     C11      CTL2    -0.800000E-01   12.0110           0
      6229 MEMB     141      POPE     H11A     HAL2     0.900000E-01   1.00800           0
      6230 MEMB     141      POPE     H11B     HAL2     0.900000E-01   1.00800           0
      6231 MEMB     141      POPE     P        PL       1.500000       30.9740           0
      6232 MEMB     141      POPE     O13      O2L     -0.780000       15.9994           0
      6233 MEMB     141      POPE     O14      O2L     -0.780000       15.9994           0
      6234 MEMB     141      POPE     O11      OSLP    -0.570000       15.9994           0
      6235 MEMB     141      POPE     O12      OSLP    -0.570000       15.9994           0
      6236 MEMB     141      POPE     C1       CTL2    -0.800000E-01   12.0110           0
      6237 MEMB     141      POPE     HA       HAL2     0.900000E-01   1.00800           0
      6238 MEMB     141      POPE     HB       HAL2     0.900000E-01   1.00800           0
      6239 MEMB     141      POPE     C2       CTL1     0.170000       12.0110           0
      6240 MEMB     141      POPE     HS       HAL1     0.900000E-01   1.00800           0
      6241 MEMB     141      POPE     O21      OSL     -0.490000       15.9994           0
      6242 MEMB     141      POPE     C21      CL       0.900000       12.0110           0
      6243 MEMB     141      POPE     O22      OBL     -0.630000       15.9994           0
      6244 MEMB     141      POPE     C22      CTL2    -0.220000       12.0110           0
      6245 MEMB     141      POPE     H2R      HAL2     0.900000E-01   1.00800           0
      6246 MEMB     141      POPE     H2S      HAL2     0.900000E-01   1.00800           0
      6247 MEMB     141      POPE     C3       CTL2     0.800000E-01   12.0110           0
      6248 MEMB     141      POPE     HX       HAL2     0.900000E-01   1.00800           0
      6249 MEMB     141      POPE     HY       HAL2     0.900000E-01   1.00800           0
      6250 MEMB     141      POPE     O31      OSL     -0.490000       15.9994           0
      6251 MEMB     141      POPE     C31      CL       0.900000       12.0110           0
      6252 MEMB     141      POPE     O32      OBL     -0.630000       15.9994           0
      6253 MEMB     141      POPE     C32      CTL2    -0.220000       12.0110           0
      6254 MEMB     141      POPE     H2X      HAL2     0.900000E-01   1.00800           0
      6255 MEMB     141      POPE     H2Y      HAL2     0.900000E-01   1.00800           0
      6256 MEMB     141      POPE     C23      CTL2    -0.180000       12.0110           0
      6257 MEMB     141      POPE     H3R      HAL2     0.900000E-01   1.00800           0
      6258 MEMB     141      POPE     H3S      HAL2     0.900000E-01   1.00800           0
      6259 MEMB     141      POPE     C24      CTL2    -0.180000       12.0110           0
      6260 MEMB     141      POPE     H4R      HAL2     0.900000E-01   1.00800           0
      6261 MEMB     141      POPE     H4S      HAL2     0.900000E-01   1.00800           0
      6262 MEMB     141      POPE     C25      CTL2    -0.180000       12.0110           0
      6263 MEMB     141      POPE     H5R      HAL2     0.900000E-01   1.00800           0
      6264 MEMB     141      POPE     H5S      HAL2     0.900000E-01   1.00800           0
      6265 MEMB     141      POPE     C26      CTL2    -0.180000       12.0110           0
      6266 MEMB     141      POPE     H6R      HAL2     0.900000E-01   1.00800           0
      6267 MEMB     141      POPE     H6S      HAL2     0.900000E-01   1.00800           0
      6268 MEMB     141      POPE     C27      CTL2    -0.180000       12.0110           0
      6269 MEMB     141      POPE     H7R      HAL2     0.900000E-01   1.00800           0
      6270 MEMB     141      POPE     H7S      HAL2     0.900000E-01   1.00800           0
      6271 MEMB     141      POPE     C28      CTL2    -0.180000       12.0110           0
      6272 MEMB     141      POPE     H8R      HAL2     0.900000E-01   1.00800           0
      6273 MEMB     141      POPE     H8S      HAL2     0.900000E-01   1.00800           0
      6274 MEMB     141      POPE     C29      CEL1    -0.150000       12.0110           0
      6275 MEMB     141      POPE     H91      HEL1     0.150000       1.00800           0
      6276 MEMB     141      POPE     C210     CEL1    -0.150000       12.0110           0
      6277 MEMB     141      POPE     H101     HEL1     0.150000       1.00800           0
      6278 MEMB     141      POPE     C211     CTL2    -0.180000       12.0110           0
      6279 MEMB     141      POPE     H11R     HAL2     0.900000E-01   1.00800           0
      6280 MEMB     141      POPE     H11S     HAL2     0.900000E-01   1.00800           0
      6281 MEMB     141      POPE     C212     CTL2    -0.180000       12.0110           0
      6282 MEMB     141      POPE     H12R     HAL2     0.900000E-01   1.00800           0
      6283 MEMB     141      POPE     H12S     HAL2     0.900000E-01   1.00800           0
      6284 MEMB     141      POPE     C213     CTL2    -0.180000       12.0110           0
      6285 MEMB     141      POPE     H13R     HAL2     0.900000E-01   1.00800           0
      6286 MEMB     141      POPE     H13S     HAL2     0.900000E-01   1.00800           0
      6287 MEMB     141      POPE     C214     CTL2    -0.180000       12.0110           0
      6288 MEMB     141      POPE     H14R     HAL2     0.900000E-01   1.00800           0
      6289 MEMB     141      POPE     H14S     HAL2     0.900000E-01   1.00800           0
      6290 MEMB     141      POPE     C215     CTL2    -0.180000       12.0110           0
      6291 MEMB     141      POPE     H15R     HAL2     0.900000E-01   1.00800           0
      6292 MEMB     141      POPE     H15S     HAL2     0.900000E-01   1.00800           0
      6293 MEMB     141      POPE     C216     CTL2    -0.180000       12.0110           0
      6294 MEMB     141      POPE     H16R     HAL2     0.900000E-01   1.00800           0
      6295 MEMB     141      POPE     H16S     HAL2     0.900000E-01   1.00800           0
      6296 MEMB     141      POPE     C217     CTL2    -0.180000       12.0110           0
      6297 MEMB     141      POPE     H17R     HAL2     0.900000E-01   1.00800           0
      6298 MEMB     141      POPE     H17S     HAL2     0.900000E-01   1.00800           0
      6299 MEMB     141      POPE     C218     CTL3    -0.270000       12.0110           0
      6300 MEMB     141      POPE     H18R     HAL3     0.900000E-01   1.00800           0
      6301 MEMB     141      POPE     H18S     HAL3     0.900000E-01   1.00800           0
      6302 MEMB     141      POPE     H18T     HAL3     0.900000E-01   1.00800           0
      6303 MEMB     141      POPE     C33      CTL2    -0.180000       12.0110           0
      6304 MEMB     141      POPE     H3X      HAL2     0.900000E-01   1.00800           0
      6305 MEMB     141      POPE     H3Y      HAL2     0.900000E-01   1.00800           0
      6306 MEMB     141      POPE     C34      CTL2    -0.180000       12.0110           0
      6307 MEMB     141      POPE     H4X      HAL2     0.900000E-01   1.00800           0
      6308 MEMB     141      POPE     H4Y      HAL2     0.900000E-01   1.00800           0
      6309 MEMB     141      POPE     C35      CTL2    -0.180000       12.0110           0
      6310 MEMB     141      POPE     H5X      HAL2     0.900000E-01   1.00800           0
      6311 MEMB     141      POPE     H5Y      HAL2     0.900000E-01   1.00800           0
      6312 MEMB     141      POPE     C36      CTL2    -0.180000       12.0110           0
      6313 MEMB     141      POPE     H6X      HAL2     0.900000E-01   1.00800           0
      6314 MEMB     141      POPE     H6Y      HAL2     0.900000E-01   1.00800           0
      6315 MEMB     141      POPE     C37      CTL2    -0.180000       12.0110           0
      6316 MEMB     141      POPE     H7X      HAL2     0.900000E-01   1.00800           0
      6317 MEMB     141      POPE     H7Y      HAL2     0.900000E-01   1.00800           0
      6318 MEMB     141      POPE     C38      CTL2    -0.180000       12.0110           0
      6319 MEMB     141      POPE     H8X      HAL2     0.900000E-01   1.00800           0
      6320 MEMB     141      POPE     H8Y      HAL2     0.900000E-01   1.00800           0
      6321 MEMB     141      POPE     C39      CTL2    -0.180000       12.0110           0
      6322 MEMB     141      POPE     H9X      HAL2     0.900000E-01   1.00800           0
      6323 MEMB     141      POPE     H9Y      HAL2     0.900000E-01   1.00800           0
      6324 MEMB     141      POPE     C310     CTL2    -0.180000       12.0110           0
      6325 MEMB     141      POPE     H10X     HAL2     0.900000E-01   1.00800           0
      6326 MEMB     141      POPE     H10Y     HAL2     0.900000E-01   1.00800           0
      6327 MEMB     141      POPE     C311     CTL2    -0.180000       12.0110           0
      6328 MEMB     141      POPE     H11X     HAL2     0.900000E-01   1.00800           0
      6329 MEMB     141      POPE     H11Y     HAL2     0.900000E-01   1.00800           0
      6330 MEMB     141      POPE     C312     CTL2    -0.180000       12.0110           0
      6331 MEMB     141      POPE     H12X     HAL2     0.900000E-01   1.00800           0
      6332 MEMB     141      POPE     H12Y     HAL2     0.900000E-01   1.00800           0
      6333 MEMB     141      POPE     C313     CTL2    -0.180000       12.0110           0
      6334 MEMB     141      POPE     H13X     HAL2     0.900000E-01   1.00800           0
      6335 MEMB     141      POPE     H13Y     HAL2     0.900000E-01   1.00800           0
      6336 MEMB     141      POPE     C314     CTL2    -0.180000       12.0110           0
      6337 MEMB     141      POPE     H14X     HAL2     0.900000E-01   1.00800           0
      6338 MEMB     141      POPE     H14Y     HAL2     0.900000E-01   1.00800           0
      6339 MEMB     141      POPE     C315     CTL2    -0.180000       12.0110           0
      6340 MEMB     141      POPE     H15X     HAL2     0.900000E-01   1.00800           0
      6341 MEMB     141      POPE     H15Y     HAL2     0.900000E-01   1.00800           0
      6342 MEMB     141      POPE     C316     CTL3    -0.270000       12.0110           0
      6343 MEMB     141      POPE     H16X     HAL3     0.900000E-01   1.00800           0
      6344 MEMB     141      POPE     H16Y     HAL3     0.900000E-01   1.00800           0
      6345 MEMB     141      POPE     H16Z     HAL3     0.900000E-01   1.00800           0
      6346 MEMB     143      POPE     N        NH3L    -0.300000       14.0070           0
      6347 MEMB     143      POPE     HN1      HCL      0.330000       1.00800           0
      6348 MEMB     143      POPE     HN2      HCL      0.330000       1.00800           0
      6349 MEMB     143      POPE     HN3      HCL      0.330000       1.00800           0
      6350 MEMB     143      POPE     C12      CTL2     0.130000       12.0110           0
      6351 MEMB     143      POPE     H12A     HAL2     0.900000E-01   1.00800           0
      6352 MEMB     143      POPE     H12B     HAL2     0.900000E-01   1.00800           0
      6353 MEMB     143      POPE     C11      CTL2    -0.800000E-01   12.0110           0
      6354 MEMB     143      POPE     H11A     HAL2     0.900000E-01   1.00800           0
      6355 MEMB     143      POPE     H11B     HAL2     0.900000E-01   1.00800           0
      6356 MEMB     143      POPE     P        PL       1.500000       30.9740           0
      6357 MEMB     143      POPE     O13      O2L     -0.780000       15.9994           0
      6358 MEMB     143      POPE     O14      O2L     -0.780000       15.9994           0
      6359 MEMB     143      POPE     O11      OSLP    -0.570000       15.9994           0
      6360 MEMB     143      POPE     O12      OSLP    -0.570000       15.9994           0
      6361 MEMB     143      POPE     C1       CTL2    -0.800000E-01   12.0110           0
      6362 MEMB     143      POPE     HA       HAL2     0.900000E-01   1.00800           0
      6363 MEMB     143      POPE     HB       HAL2     0.900000E-01   1.00800           0
      6364 MEMB     143      POPE     C2       CTL1     0.170000       12.0110           0
      6365 MEMB     143      POPE     HS       HAL1     0.900000E-01   1.00800           0
      6366 MEMB     143      POPE     O21      OSL     -0.490000       15.9994           0
      6367 MEMB     143      POPE     C21      CL       0.900000       12.0110           0
      6368 MEMB     143      POPE     O22      OBL     -0.630000       15.9994           0
      6369 MEMB     143      POPE     C22      CTL2    -0.220000       12.0110           0
      6370 MEMB     143      POPE     H2R      HAL2     0.900000E-01   1.00800           0
      6371 MEMB     143      POPE     H2S      HAL2     0.900000E-01   1.00800           0
      6372 MEMB     143      POPE     C3       CTL2     0.800000E-01   12.0110           0
      6373 MEMB     143      POPE     HX       HAL2     0.900000E-01   1.00800           0
      6374 MEMB     143      POPE     HY       HAL2     0.900000E-01   1.00800           0
      6375 MEMB     143      POPE     O31      OSL     -0.490000       15.9994           0
      6376 MEMB     143      POPE     C31      CL       0.900000       12.0110           0
      6377 MEMB     143      POPE     O32      OBL     -0.630000       15.9994           0
      6378 MEMB     143      POPE     C32      CTL2    -0.220000       12.0110           0
      6379 MEMB     143      POPE     H2X      HAL2     0.900000E-01   1.00800           0
      6380 MEMB     143      POPE     H2Y      HAL2     0.900000E-01   1.00800           0
      6381 MEMB     143      POPE     C23      CTL2    -0.180000       12.0110           0
      6382 MEMB     143      POPE     H3R      HAL2     0.900000E-01   1.00800           0
      6383 MEMB     143      POPE     H3S      HAL2     0.900000E-01   1.00800           0
      6384 MEMB     143      POPE     C24      CTL2    -0.180000       12.0110           0
      6385 MEMB     143      POPE     H4R      HAL2     0.900000E-01   1.00800           0
      6386 MEMB     143      POPE     H4S      HAL2     0.900000E-01   1.00800           0
      6387 MEMB     143      POPE     C25      CTL2    -0.180000       12.0110           0
      6388 MEMB     143      POPE     H5R      HAL2     0.900000E-01   1.00800           0
      6389 MEMB     143      POPE     H5S      HAL2     0.900000E-01   1.00800           0
      6390 MEMB     143      POPE     C26      CTL2    -0.180000       12.0110           0
      6391 MEMB     143      POPE     H6R      HAL2     0.900000E-01   1.00800           0
      6392 MEMB     143      POPE     H6S      HAL2     0.900000E-01   1.00800           0
      6393 MEMB     143      POPE     C27      CTL2    -0.180000       12.0110           0
      6394 MEMB     143      POPE     H7R      HAL2     0.900000E-01   1.00800           0
      6395 MEMB     143      POPE     H7S      HAL2     0.900000E-01   1.00800           0
      6396 MEMB     143      POPE     C28      CTL2    -0.180000       12.0110           0
      6397 MEMB     143      POPE     H8R      HAL2     0.900000E-01   1.00800           0
      6398 MEMB     143      POPE     H8S      HAL2     0.900000E-01   1.00800           0
      6399 MEMB     143      POPE     C29      CEL1    -0.150000       12.0110           0
      6400 MEMB     143      POPE     H91      HEL1     0.150000       1.00800           0
      6401 MEMB     143      POPE     C210     CEL1    -0.150000       12.0110           0
      6402 MEMB     143      POPE     H101     HEL1     0.150000       1.00800           0
      6403 MEMB     143      POPE     C211     CTL2    -0.180000       12.0110           0
      6404 MEMB     143      POPE     H11R     HAL2     0.900000E-01   1.00800           0
      6405 MEMB     143      POPE     H11S     HAL2     0.900000E-01   1.00800           0
      6406 MEMB     143      POPE     C212     CTL2    -0.180000       12.0110           0
      6407 MEMB     143      POPE     H12R     HAL2     0.900000E-01   1.00800           0
      6408 MEMB     143      POPE     H12S     HAL2     0.900000E-01   1.00800           0
      6409 MEMB     143      POPE     C213     CTL2    -0.180000       12.0110           0
      6410 MEMB     143      POPE     H13R     HAL2     0.900000E-01   1.00800           0
      6411 MEMB     143      POPE     H13S     HAL2     0.900000E-01   1.00800           0
      6412 MEMB     143      POPE     C214     CTL2    -0.180000       12.0110           0
      6413 MEMB     143      POPE     H14R     HAL2     0.900000E-01   1.00800           0
      6414 MEMB     143      POPE     H14S     HAL2     0.900000E-01   1.00800           0
      6415 MEMB     143      POPE     C215     CTL2    -0.180000       12.0110           0
      6416 MEMB     143      POPE     H15R     HAL2     0.900000E-01   1.00800           0
      6417 MEMB     143      POPE     H15S     HAL2     0.900000E-01   1.00800           0
      6418 MEMB     143      POPE     C216     CTL2    -0.180000       12.0110           0
      6419 MEMB     143      POPE     H16R     HAL2     0.900000E-01   1.00800           0
      6420 MEMB     143      POPE     H16S     HAL2     0.900000E-01   1.00800           0
      6421 MEMB     143      POPE     C217     CTL2    -0.180000       12.0110           0
      6422 MEMB     143      POPE     H17R     HAL2     0.900000E-01   1.00800           0
      6423 MEMB     143      POPE     H17S     HAL2     0.900000E-01   1.00800           0
      6424 MEMB     143      POPE     C218     CTL3    -0.270000       12.0110           0
      6425 MEMB     143      POPE     H18R     HAL3     0.900000E-01   1.00800           0
      6426 MEMB     143      POPE     H18S     HAL3     0.900000E-01   1.00800           0
      6427 MEMB     143      POPE     H18T     HAL3     0.900000E-01   1.00800           0
      6428 MEMB     143      POPE     C33      CTL2    -0.180000       12.0110           0
      6429 MEMB     143      POPE     H3X      HAL2     0.900000E-01   1.00800           0
      6430 MEMB     143      POPE     H3Y      HAL2     0.900000E-01   1.00800           0
      6431 MEMB     143      POPE     C34      CTL2    -0.180000       12.0110           0
      6432 MEMB     143      POPE     H4X      HAL2     0.900000E-01   1.00800           0
      6433 MEMB     143      POPE     H4Y      HAL2     0.900000E-01   1.00800           0
      6434 MEMB     143      POPE     C35      CTL2    -0.180000       12.0110           0
      6435 MEMB     143      POPE     H5X      HAL2     0.900000E-01   1.00800           0
      6436 MEMB     143      POPE     H5Y      HAL2     0.900000E-01   1.00800           0
      6437 MEMB     143      POPE     C36      CTL2    -0.180000       12.0110           0
      6438 MEMB     143      POPE     H6X      HAL2     0.900000E-01   1.00800           0
      6439 MEMB     143      POPE     H6Y      HAL2     0.900000E-01   1.00800           0
      6440 MEMB     143      POPE     C37      CTL2    -0.180000       12.0110           0
      6441 MEMB     143      POPE     H7X      HAL2     0.900000E-01   1.00800           0
      6442 MEMB     143      POPE     H7Y      HAL2     0.900000E-01   1.00800           0
      6443 MEMB     143      POPE     C38      CTL2    -0.180000       12.0110           0
      6444 MEMB     143      POPE     H8X      HAL2     0.900000E-01   1.00800           0
      6445 MEMB     143      POPE     H8Y      HAL2     0.900000E-01   1.00800           0
      6446 MEMB     143      POPE     C39      CTL2    -0.180000       12.0110           0
      6447 MEMB     143      POPE     H9X      HAL2     0.900000E-01   1.00800           0
      6448 MEMB     143      POPE     H9Y      HAL2     0.900000E-01   1.00800           0
      6449 MEMB     143      POPE     C310     CTL2    -0.180000       12.0110           0
      6450 MEMB     143      POPE     H10X     HAL2     0.900000E-01   1.00800           0
      6451 MEMB     143      POPE     H10Y     HAL2     0.900000E-01   1.00800           0
      6452 MEMB     143      POPE     C311     CTL2    -0.180000       12.0110           0
      6453 MEMB     143      POPE     H11X     HAL2     0.900000E-01   1.00800           0
      6454 MEMB     143      POPE     H11Y     HAL2     0.900000E-01   1.00800           0
      6455 MEMB     143      POPE     C312     CTL2    -0.180000       12.0110           0
      6456 MEMB     143      POPE     H12X     HAL2     0.900000E-01   1.00800           0
      6457 MEMB     143      POPE     H12Y     HAL2     0.900000E-01   1.00800           0
      6458 MEMB     143      POPE     C313     CTL2    -0.180000       12.0110           0
      6459 MEMB     143      POPE     H13X     HAL2     0.900000E-01   1.00800           0
      6460 MEMB     143      POPE     H13Y     HAL2     0.900000E-01   1.00800           0
      6461 MEMB     143      POPE     C314     CTL2    -0.180000       12.0110           0
      6462 MEMB     143      POPE     H14X     HAL2     0.900000E-01   1.00800           0
      6463 MEMB     143      POPE     H14Y     HAL2     0.900000E-01   1.00800           0
      6464 MEMB     143      POPE     C315     CTL2    -0.180000       12.0110           0
      6465 MEMB     143      POPE     H15X     HAL2     0.900000E-01   1.00800           0
      6466 MEMB     143      POPE     H15Y     HAL2     0.900000E-01   1.00800           0
      6467 MEMB     143      POPE     C316     CTL3    -0.270000       12.0110           0
      6468 MEMB     143      POPE     H16X     HAL3     0.900000E-01   1.00800           0
      6469 MEMB     143      POPE     H16Y     HAL3     0.900000E-01   1.00800           0
      6470 MEMB     143      POPE     H16Z     HAL3     0.900000E-01   1.00800           0
      6471 MEMB     144      POPE     N        NH3L    -0.300000       14.0070           0
      6472 MEMB     144      POPE     HN1      HCL      0.330000       1.00800           0
      6473 MEMB     144      POPE     HN2      HCL      0.330000       1.00800           0
      6474 MEMB     144      POPE     HN3      HCL      0.330000       1.00800           0
      6475 MEMB     144      POPE     C12      CTL2     0.130000       12.0110           0
      6476 MEMB     144      POPE     H12A     HAL2     0.900000E-01   1.00800           0
      6477 MEMB     144      POPE     H12B     HAL2     0.900000E-01   1.00800           0
      6478 MEMB     144      POPE     C11      CTL2    -0.800000E-01   12.0110           0
      6479 MEMB     144      POPE     H11A     HAL2     0.900000E-01   1.00800           0
      6480 MEMB     144      POPE     H11B     HAL2     0.900000E-01   1.00800           0
      6481 MEMB     144      POPE     P        PL       1.500000       30.9740           0
      6482 MEMB     144      POPE     O13      O2L     -0.780000       15.9994           0
      6483 MEMB     144      POPE     O14      O2L     -0.780000       15.9994           0
      6484 MEMB     144      POPE     O11      OSLP    -0.570000       15.9994           0
      6485 MEMB     144      POPE     O12      OSLP    -0.570000       15.9994           0
      6486 MEMB     144      POPE     C1       CTL2    -0.800000E-01   12.0110           0
      6487 MEMB     144      POPE     HA       HAL2     0.900000E-01   1.00800           0
      6488 MEMB     144      POPE     HB       HAL2     0.900000E-01   1.00800           0
      6489 MEMB     144      POPE     C2       CTL1     0.170000       12.0110           0
      6490 MEMB     144      POPE     HS       HAL1     0.900000E-01   1.00800           0
      6491 MEMB     144      POPE     O21      OSL     -0.490000       15.9994           0
      6492 MEMB     144      POPE     C21      CL       0.900000       12.0110           0
      6493 MEMB     144      POPE     O22      OBL     -0.630000       15.9994           0
      6494 MEMB     144      POPE     C22      CTL2    -0.220000       12.0110           0
      6495 MEMB     144      POPE     H2R      HAL2     0.900000E-01   1.00800           0
      6496 MEMB     144      POPE     H2S      HAL2     0.900000E-01   1.00800           0
      6497 MEMB     144      POPE     C3       CTL2     0.800000E-01   12.0110           0
      6498 MEMB     144      POPE     HX       HAL2     0.900000E-01   1.00800           0
      6499 MEMB     144      POPE     HY       HAL2     0.900000E-01   1.00800           0
      6500 MEMB     144      POPE     O31      OSL     -0.490000       15.9994           0
      6501 MEMB     144      POPE     C31      CL       0.900000       12.0110           0
      6502 MEMB     144      POPE     O32      OBL     -0.630000       15.9994           0
      6503 MEMB     144      POPE     C32      CTL2    -0.220000       12.0110           0
      6504 MEMB     144      POPE     H2X      HAL2     0.900000E-01   1.00800           0
      6505 MEMB     144      POPE     H2Y      HAL2     0.900000E-01   1.00800           0
      6506 MEMB     144      POPE     C23      CTL2    -0.180000       12.0110           0
      6507 MEMB     144      POPE     H3R      HAL2     0.900000E-01   1.00800           0
      6508 MEMB     144      POPE     H3S      HAL2     0.900000E-01   1.00800           0
      6509 MEMB     144      POPE     C24      CTL2    -0.180000       12.0110           0
      6510 MEMB     144      POPE     H4R      HAL2     0.900000E-01   1.00800           0
      6511 MEMB     144      POPE     H4S      HAL2     0.900000E-01   1.00800           0
      6512 MEMB     144      POPE     C25      CTL2    -0.180000       12.0110           0
      6513 MEMB     144      POPE     H5R      HAL2     0.900000E-01   1.00800           0
      6514 MEMB     144      POPE     H5S      HAL2     0.900000E-01   1.00800           0
      6515 MEMB     144      POPE     C26      CTL2    -0.180000       12.0110           0
      6516 MEMB     144      POPE     H6R      HAL2     0.900000E-01   1.00800           0
      6517 MEMB     144      POPE     H6S      HAL2     0.900000E-01   1.00800           0
      6518 MEMB     144      POPE     C27      CTL2    -0.180000       12.0110           0
      6519 MEMB     144      POPE     H7R      HAL2     0.900000E-01   1.00800           0
      6520 MEMB     144      POPE     H7S      HAL2     0.900000E-01   1.00800           0
      6521 MEMB     144      POPE     C28      CTL2    -0.180000       12.0110           0
      6522 MEMB     144      POPE     H8R      HAL2     0.900000E-01   1.00800           0
      6523 MEMB     144      POPE     H8S      HAL2     0.900000E-01   1.00800           0
      6524 MEMB     144      POPE     C29      CEL1    -0.150000       12.0110           0
      6525 MEMB     144      POPE     H91      HEL1     0.150000       1.00800           0
      6526 MEMB     144      POPE     C210     CEL1    -0.150000       12.0110           0
      6527 MEMB     144      POPE     H101     HEL1     0.150000       1.00800           0
      6528 MEMB     144      POPE     C211     CTL2    -0.180000       12.0110           0
      6529 MEMB     144      POPE     H11R     HAL2     0.900000E-01   1.00800           0
      6530 MEMB     144      POPE     H11S     HAL2     0.900000E-01   1.00800           0
      6531 MEMB     144      POPE     C212     CTL2    -0.180000       12.0110           0
      6532 MEMB     144      POPE     H12R     HAL2     0.900000E-01   1.00800           0
      6533 MEMB     144      POPE     H12S     HAL2     0.900000E-01   1.00800           0
      6534 MEMB     144      POPE     C213     CTL2    -0.180000       12.0110           0
      6535 MEMB     144      POPE     H13R     HAL2     0.900000E-01   1.00800           0
      6536 MEMB     144      POPE     H13S     HAL2     0.900000E-01   1.00800           0
      6537 MEMB     144      POPE     C214     CTL2    -0.180000       12.0110           0
      6538 MEMB     144      POPE     H14R     HAL2     0.900000E-01   1.00800           0
      6539 MEMB     144      POPE     H14S     HAL2     0.900000E-01   1.00800           0
      6540 MEMB     144      POPE     C215     CTL2    -0.180000       12.0110           0
      6541 MEMB     144      POPE     H15R     HAL2     0.900000E-01   1.00800           0
      6542 MEMB     144      POPE     H15S     HAL2     0.900000E-01   1.00800           0
      6543 MEMB     144      POPE     C216     CTL2    -0.180000       12.0110           0
      6544 MEMB     144      POPE     H16R     HAL2     0.900000E-01   1.00800           0
      6545 MEMB     144      POPE     H16S     HAL2     0.900000E-01   1.00800           0
      6546 MEMB     144      POPE     C217     CTL2    -0.180000       12.0110           0
      6547 MEMB     144      POPE     H17R     HAL2     0.900000E-01   1.00800           0
      6548 MEMB     144      POPE     H17S     HAL2     0.900000E-01   1.00800           0
      6549 MEMB     144      POPE     C218     CTL3    -0.270000       12.0110           0
      6550 MEMB     144      POPE     H18R     HAL3     0.900000E-01   1.00800           0
      6551 MEMB     144      POPE     H18S     HAL3     0.900000E-01   1.00800           0
      6552 MEMB     144      POPE     H18T     HAL3     0.900000E-01   1.00800           0
      6553 MEMB     144      POPE     C33      CTL2    -0.180000       12.0110           0
      6554 MEMB     144      POPE     H3X      HAL2     0.900000E-01   1.00800           0
      6555 MEMB     144      POPE     H3Y      HAL2     0.900000E-01   1.00800           0
      6556 MEMB     144      POPE     C34      CTL2    -0.180000       12.0110           0
      6557 MEMB     144      POPE     H4X      HAL2     0.900000E-01   1.00800           0
      6558 MEMB     144      POPE     H4Y      HAL2     0.900000E-01   1.00800           0
      6559 MEMB     144      POPE     C35      CTL2    -0.180000       12.0110           0
      6560 MEMB     144      POPE     H5X      HAL2     0.900000E-01   1.00800           0
      6561 MEMB     144      POPE     H5Y      HAL2     0.900000E-01   1.00800           0
      6562 MEMB     144      POPE     C36      CTL2    -0.180000       12.0110           0
      6563 MEMB     144      POPE     H6X      HAL2     0.900000E-01   1.00800           0
      6564 MEMB     144      POPE     H6Y      HAL2     0.900000E-01   1.00800           0
      6565 MEMB     144      POPE     C37      CTL2    -0.180000       12.0110           0
      6566 MEMB     144      POPE     H7X      HAL2     0.900000E-01   1.00800           0
      6567 MEMB     144      POPE     H7Y      HAL2     0.900000E-01   1.00800           0
      6568 MEMB     144      POPE     C38      CTL2    -0.180000       12.0110           0
      6569 MEMB     144      POPE     H8X      HAL2     0.900000E-01   1.00800           0
      6570 MEMB     144      POPE     H8Y      HAL2     0.900000E-01   1.00800           0
      6571 MEMB     144      POPE     C39      CTL2    -0.180000       12.0110           0
      6572 MEMB     144      POPE     H9X      HAL2     0.900000E-01   1.00800           0
      6573 MEMB     144      POPE     H9Y      HAL2     0.900000E-01   1.00800           0
      6574 MEMB     144      POPE     C310     CTL2    -0.180000       12.0110           0
      6575 MEMB     144      POPE     H10X     HAL2     0.900000E-01   1.00800           0
      6576 MEMB     144      POPE     H10Y     HAL2     0.900000E-01   1.00800           0
      6577 MEMB     144      POPE     C311     CTL2    -0.180000       12.0110           0
      6578 MEMB     144      POPE     H11X     HAL2     0.900000E-01   1.00800           0
      6579 MEMB     144      POPE     H11Y     HAL2     0.900000E-01   1.00800           0
      6580 MEMB     144      POPE     C312     CTL2    -0.180000       12.0110           0
      6581 MEMB     144      POPE     H12X     HAL2     0.900000E-01   1.00800           0
      6582 MEMB     144      POPE     H12Y     HAL2     0.900000E-01   1.00800           0
      6583 MEMB     144      POPE     C313     CTL2    -0.180000       12.0110           0
      6584 MEMB     144      POPE     H13X     HAL2     0.900000E-01   1.00800           0
      6585 MEMB     144      POPE     H13Y     HAL2     0.900000E-01   1.00800           0
      6586 MEMB     144      POPE     C314     CTL2    -0.180000       12.0110           0
      6587 MEMB     144      POPE     H14X     HAL2     0.900000E-01   1.00800           0
      6588 MEMB     144      POPE     H14Y     HAL2     0.900000E-01   1.00800           0
      6589 MEMB     144      POPE     C315     CTL2    -0.180000       12.0110           0
      6590 MEMB     144      POPE     H15X     HAL2     0.900000E-01   1.00800           0
      6591 MEMB     144      POPE     H15Y     HAL2     0.900000E-01   1.00800           0
      6592 MEMB     144      POPE     C316     CTL3    -0.270000       12.0110           0
      6593 MEMB     144      POPE     H16X     HAL3     0.900000E-01   1.00800           0
      6594 MEMB     144      POPE     H16Y     HAL3     0.900000E-01   1.00800           0
      6595 MEMB     144      POPE     H16Z     HAL3     0.900000E-01   1.00800           0
      6596 MEMB     149      POPE     N        NH3L    -0.300000       14.0070           0
      6597 MEMB     149      POPE     HN1      HCL      0.330000       1.00800           0
      6598 MEMB     149      POPE     HN2      HCL      0.330000       1.00800           0
      6599 MEMB     149      POPE     HN3      HCL      0.330000       1.00800           0
      6600 MEMB     149      POPE     C12      CTL2     0.130000       12.0110           0
      6601 MEMB     149      POPE     H12A     HAL2     0.900000E-01   1.00800           0
      6602 MEMB     149      POPE     H12B     HAL2     0.900000E-01   1.00800           0
      6603 MEMB     149      POPE     C11      CTL2    -0.800000E-01   12.0110           0
      6604 MEMB     149      POPE     H11A     HAL2     0.900000E-01   1.00800           0
      6605 MEMB     149      POPE     H11B     HAL2     0.900000E-01   1.00800           0
      6606 MEMB     149      POPE     P        PL       1.500000       30.9740           0
      6607 MEMB     149      POPE     O13      O2L     -0.780000       15.9994           0
      6608 MEMB     149      POPE     O14      O2L     -0.780000       15.9994           0
      6609 MEMB     149      POPE     O11      OSLP    -0.570000       15.9994           0
      6610 MEMB     149      POPE     O12      OSLP    -0.570000       15.9994           0
      6611 MEMB     149      POPE     C1       CTL2    -0.800000E-01   12.0110           0
      6612 MEMB     149      POPE     HA       HAL2     0.900000E-01   1.00800           0
      6613 MEMB     149      POPE     HB       HAL2     0.900000E-01   1.00800           0
      6614 MEMB     149      POPE     C2       CTL1     0.170000       12.0110           0
      6615 MEMB     149      POPE     HS       HAL1     0.900000E-01   1.00800           0
      6616 MEMB     149      POPE     O21      OSL     -0.490000       15.9994           0
      6617 MEMB     149      POPE     C21      CL       0.900000       12.0110           0
      6618 MEMB     149      POPE     O22      OBL     -0.630000       15.9994           0
      6619 MEMB     149      POPE     C22      CTL2    -0.220000       12.0110           0
      6620 MEMB     149      POPE     H2R      HAL2     0.900000E-01   1.00800           0
      6621 MEMB     149      POPE     H2S      HAL2     0.900000E-01   1.00800           0
      6622 MEMB     149      POPE     C3       CTL2     0.800000E-01   12.0110           0
      6623 MEMB     149      POPE     HX       HAL2     0.900000E-01   1.00800           0
      6624 MEMB     149      POPE     HY       HAL2     0.900000E-01   1.00800           0
      6625 MEMB     149      POPE     O31      OSL     -0.490000       15.9994           0
      6626 MEMB     149      POPE     C31      CL       0.900000       12.0110           0
      6627 MEMB     149      POPE     O32      OBL     -0.630000       15.9994           0
      6628 MEMB     149      POPE     C32      CTL2    -0.220000       12.0110           0
      6629 MEMB     149      POPE     H2X      HAL2     0.900000E-01   1.00800           0
      6630 MEMB     149      POPE     H2Y      HAL2     0.900000E-01   1.00800           0
      6631 MEMB     149      POPE     C23      CTL2    -0.180000       12.0110           0
      6632 MEMB     149      POPE     H3R      HAL2     0.900000E-01   1.00800           0
      6633 MEMB     149      POPE     H3S      HAL2     0.900000E-01   1.00800           0
      6634 MEMB     149      POPE     C24      CTL2    -0.180000       12.0110           0
      6635 MEMB     149      POPE     H4R      HAL2     0.900000E-01   1.00800           0
      6636 MEMB     149      POPE     H4S      HAL2     0.900000E-01   1.00800           0
      6637 MEMB     149      POPE     C25      CTL2    -0.180000       12.0110           0
      6638 MEMB     149      POPE     H5R      HAL2     0.900000E-01   1.00800           0
      6639 MEMB     149      POPE     H5S      HAL2     0.900000E-01   1.00800           0
      6640 MEMB     149      POPE     C26      CTL2    -0.180000       12.0110           0
      6641 MEMB     149      POPE     H6R      HAL2     0.900000E-01   1.00800           0
      6642 MEMB     149      POPE     H6S      HAL2     0.900000E-01   1.00800           0
      6643 MEMB     149      POPE     C27      CTL2    -0.180000       12.0110           0
      6644 MEMB     149      POPE     H7R      HAL2     0.900000E-01   1.00800           0
      6645 MEMB     149      POPE     H7S      HAL2     0.900000E-01   1.00800           0
      6646 MEMB     149      POPE     C28      CTL2    -0.180000       12.0110           0
      6647 MEMB     149      POPE     H8R      HAL2     0.900000E-01   1.00800           0
      6648 MEMB     149      POPE     H8S      HAL2     0.900000E-01   1.00800           0
      6649 MEMB     149      POPE     C29      CEL1    -0.150000       12.0110           0
      6650 MEMB     149      POPE     H91      HEL1     0.150000       1.00800           0
      6651 MEMB     149      POPE     C210     CEL1    -0.150000       12.0110           0
      6652 MEMB     149      POPE     H101     HEL1     0.150000       1.00800           0
      6653 MEMB     149      POPE     C211     CTL2    -0.180000       12.0110           0
      6654 MEMB     149      POPE     H11R     HAL2     0.900000E-01   1.00800           0
      6655 MEMB     149      POPE     H11S     HAL2     0.900000E-01   1.00800           0
      6656 MEMB     149      POPE     C212     CTL2    -0.180000       12.0110           0
      6657 MEMB     149      POPE     H12R     HAL2     0.900000E-01   1.00800           0
      6658 MEMB     149      POPE     H12S     HAL2     0.900000E-01   1.00800           0
      6659 MEMB     149      POPE     C213     CTL2    -0.180000       12.0110           0
      6660 MEMB     149      POPE     H13R     HAL2     0.900000E-01   1.00800           0
      6661 MEMB     149      POPE     H13S     HAL2     0.900000E-01   1.00800           0
      6662 MEMB     149      POPE     C214     CTL2    -0.180000       12.0110           0
      6663 MEMB     149      POPE     H14R     HAL2     0.900000E-01   1.00800           0
      6664 MEMB     149      POPE     H14S     HAL2     0.900000E-01   1.00800           0
      6665 MEMB     149      POPE     C215     CTL2    -0.180000       12.0110           0
      6666 MEMB     149      POPE     H15R     HAL2     0.900000E-01   1.00800           0
      6667 MEMB     149      POPE     H15S     HAL2     0.900000E-01   1.00800           0
      6668 MEMB     149      POPE     C216     CTL2    -0.180000       12.0110           0
      6669 MEMB     149      POPE     H16R     HAL2     0.900000E-01   1.00800           0
      6670 MEMB     149      POPE     H16S     HAL2     0.900000E-01   1.00800           0
      6671 MEMB     149      POPE     C217     CTL2    -0.180000       12.0110           0
      6672 MEMB     149      POPE     H17R     HAL2     0.900000E-01   1.00800           0
      6673 MEMB     149      POPE     H17S     HAL2     0.900000E-01   1.00800           0
      6674 MEMB     149      POPE     C218     CTL3    -0.270000       12.0110           0
      6675 MEMB     149      POPE     H18R     HAL3     0.900000E-01   1.00800           0
      6676 MEMB     149      POPE     H18S     HAL3     0.900000E-01   1.00800           0
      6677 MEMB     149      POPE     H18T     HAL3     0.900000E-01   1.00800           0
      6678 MEMB     149      POPE     C33      CTL2    -0.180000       12.0110           0
      6679 MEMB     149      POPE     H3X      HAL2     0.900000E-01   1.00800           0
      6680 MEMB     149      POPE     H3Y      HAL2     0.900000E-01   1.00800           0
      6681 MEMB     149      POPE     C34      CTL2    -0.180000       12.0110           0
      6682 MEMB     149      POPE     H4X      HAL2     0.900000E-01   1.00800           0
      6683 MEMB     149      POPE     H4Y      HAL2     0.900000E-01   1.00800           0
      6684 MEMB     149      POPE     C35      CTL2    -0.180000       12.0110           0
      6685 MEMB     149      POPE     H5X      HAL2     0.900000E-01   1.00800           0
      6686 MEMB     149      POPE     H5Y      HAL2     0.900000E-01   1.00800           0
      6687 MEMB     149      POPE     C36      CTL2    -0.180000       12.0110           0
      6688 MEMB     149      POPE     H6X      HAL2     0.900000E-01   1.00800           0
      6689 MEMB     149      POPE     H6Y      HAL2     0.900000E-01   1.00800           0
      6690 MEMB     149      POPE     C37      CTL2    -0.180000       12.0110           0
      6691 MEMB     149      POPE     H7X      HAL2     0.900000E-01   1.00800           0
      6692 MEMB     149      POPE     H7Y      HAL2     0.900000E-01   1.00800           0
      6693 MEMB     149      POPE     C38      CTL2    -0.180000       12.0110           0
      6694 MEMB     149      POPE     H8X      HAL2     0.900000E-01   1.00800           0
      6695 MEMB     149      POPE     H8Y      HAL2     0.900000E-01   1.00800           0
      6696 MEMB     149      POPE     C39      CTL2    -0.180000       12.0110           0
      6697 MEMB     149      POPE     H9X      HAL2     0.900000E-01   1.00800           0
      6698 MEMB     149      POPE     H9Y      HAL2     0.900000E-01   1.00800           0
      6699 MEMB     149      POPE     C310     CTL2    -0.180000       12.0110           0
      6700 MEMB     149      POPE     H10X     HAL2     0.900000E-01   1.00800           0
      6701 MEMB     149      POPE     H10Y     HAL2     0.900000E-01   1.00800           0
      6702 MEMB     149      POPE     C311     CTL2    -0.180000       12.0110           0
      6703 MEMB     149      POPE     H11X     HAL2     0.900000E-01   1.00800           0
      6704 MEMB     149      POPE     H11Y     HAL2     0.900000E-01   1.00800           0
      6705 MEMB     149      POPE     C312     CTL2    -0.180000       12.0110           0
      6706 MEMB     149      POPE     H12X     HAL2     0.900000E-01   1.00800           0
      6707 MEMB     149      POPE     H12Y     HAL2     0.900000E-01   1.00800           0
      6708 MEMB     149      POPE     C313     CTL2    -0.180000       12.0110           0
      6709 MEMB     149      POPE     H13X     HAL2     0.900000E-01   1.00800           0
      6710 MEMB     149      POPE     H13Y     HAL2     0.900000E-01   1.00800           0
      6711 MEMB     149      POPE     C314     CTL2    -0.180000       12.0110           0
      6712 MEMB     149      POPE     H14X     HAL2     0.900000E-01   1.00800           0
      6713 MEMB     149      POPE     H14Y     HAL2     0.900000E-01   1.00800           0
      6714 MEMB     149      POPE     C315     CTL2    -0.180000       12.0110           0
      6715 MEMB     149      POPE     H15X     HAL2     0.900000E-01   1.00800           0
      6716 MEMB     149      POPE     H15Y     HAL2     0.900000E-01   1.00800           0
      6717 MEMB     149      POPE     C316     CTL3    -0.270000       12.0110           0
      6718 MEMB     149      POPE     H16X     HAL3     0.900000E-01   1.00800           0
      6719 MEMB     149      POPE     H16Y     HAL3     0.900000E-01   1.00800           0
      6720 MEMB     149      POPE     H16Z     HAL3     0.900000E-01   1.00800           0
      6721 MEMB     153      POPE     N        NH3L    -0.300000       14.0070           0
      6722 MEMB     153      POPE     HN1      HCL      0.330000       1.00800           0
      6723 MEMB     153      POPE     HN2      HCL      0.330000       1.00800           0
      6724 MEMB     153      POPE     HN3      HCL      0.330000       1.00800           0
      6725 MEMB     153      POPE     C12      CTL2     0.130000       12.0110           0
      6726 MEMB     153      POPE     H12A     HAL2     0.900000E-01   1.00800           0
      6727 MEMB     153      POPE     H12B     HAL2     0.900000E-01   1.00800           0
      6728 MEMB     153      POPE     C11      CTL2    -0.800000E-01   12.0110           0
      6729 MEMB     153      POPE     H11A     HAL2     0.900000E-01   1.00800           0
      6730 MEMB     153      POPE     H11B     HAL2     0.900000E-01   1.00800           0
      6731 MEMB     153      POPE     P        PL       1.500000       30.9740           0
      6732 MEMB     153      POPE     O13      O2L     -0.780000       15.9994           0
      6733 MEMB     153      POPE     O14      O2L     -0.780000       15.9994           0
      6734 MEMB     153      POPE     O11      OSLP    -0.570000       15.9994           0
      6735 MEMB     153      POPE     O12      OSLP    -0.570000       15.9994           0
      6736 MEMB     153      POPE     C1       CTL2    -0.800000E-01   12.0110           0
      6737 MEMB     153      POPE     HA       HAL2     0.900000E-01   1.00800           0
      6738 MEMB     153      POPE     HB       HAL2     0.900000E-01   1.00800           0
      6739 MEMB     153      POPE     C2       CTL1     0.170000       12.0110           0
      6740 MEMB     153      POPE     HS       HAL1     0.900000E-01   1.00800           0
      6741 MEMB     153      POPE     O21      OSL     -0.490000       15.9994           0
      6742 MEMB     153      POPE     C21      CL       0.900000       12.0110           0
      6743 MEMB     153      POPE     O22      OBL     -0.630000       15.9994           0
      6744 MEMB     153      POPE     C22      CTL2    -0.220000       12.0110           0
      6745 MEMB     153      POPE     H2R      HAL2     0.900000E-01   1.00800           0
      6746 MEMB     153      POPE     H2S      HAL2     0.900000E-01   1.00800           0
      6747 MEMB     153      POPE     C3       CTL2     0.800000E-01   12.0110           0
      6748 MEMB     153      POPE     HX       HAL2     0.900000E-01   1.00800           0
      6749 MEMB     153      POPE     HY       HAL2     0.900000E-01   1.00800           0
      6750 MEMB     153      POPE     O31      OSL     -0.490000       15.9994           0
      6751 MEMB     153      POPE     C31      CL       0.900000       12.0110           0
      6752 MEMB     153      POPE     O32      OBL     -0.630000       15.9994           0
      6753 MEMB     153      POPE     C32      CTL2    -0.220000       12.0110           0
      6754 MEMB     153      POPE     H2X      HAL2     0.900000E-01   1.00800           0
      6755 MEMB     153      POPE     H2Y      HAL2     0.900000E-01   1.00800           0
      6756 MEMB     153      POPE     C23      CTL2    -0.180000       12.0110           0
      6757 MEMB     153      POPE     H3R      HAL2     0.900000E-01   1.00800           0
      6758 MEMB     153      POPE     H3S      HAL2     0.900000E-01   1.00800           0
      6759 MEMB     153      POPE     C24      CTL2    -0.180000       12.0110           0
      6760 MEMB     153      POPE     H4R      HAL2     0.900000E-01   1.00800           0
      6761 MEMB     153      POPE     H4S      HAL2     0.900000E-01   1.00800           0
      6762 MEMB     153      POPE     C25      CTL2    -0.180000       12.0110           0
      6763 MEMB     153      POPE     H5R      HAL2     0.900000E-01   1.00800           0
      6764 MEMB     153      POPE     H5S      HAL2     0.900000E-01   1.00800           0
      6765 MEMB     153      POPE     C26      CTL2    -0.180000       12.0110           0
      6766 MEMB     153      POPE     H6R      HAL2     0.900000E-01   1.00800           0
      6767 MEMB     153      POPE     H6S      HAL2     0.900000E-01   1.00800           0
      6768 MEMB     153      POPE     C27      CTL2    -0.180000       12.0110           0
      6769 MEMB     153      POPE     H7R      HAL2     0.900000E-01   1.00800           0
      6770 MEMB     153      POPE     H7S      HAL2     0.900000E-01   1.00800           0
      6771 MEMB     153      POPE     C28      CTL2    -0.180000       12.0110           0
      6772 MEMB     153      POPE     H8R      HAL2     0.900000E-01   1.00800           0
      6773 MEMB     153      POPE     H8S      HAL2     0.900000E-01   1.00800           0
      6774 MEMB     153      POPE     C29      CEL1    -0.150000       12.0110           0
      6775 MEMB     153      POPE     H91      HEL1     0.150000       1.00800           0
      6776 MEMB     153      POPE     C210     CEL1    -0.150000       12.0110           0
      6777 MEMB     153      POPE     H101     HEL1     0.150000       1.00800           0
      6778 MEMB     153      POPE     C211     CTL2    -0.180000       12.0110           0
      6779 MEMB     153      POPE     H11R     HAL2     0.900000E-01   1.00800           0
      6780 MEMB     153      POPE     H11S     HAL2     0.900000E-01   1.00800           0
      6781 MEMB     153      POPE     C212     CTL2    -0.180000       12.0110           0
      6782 MEMB     153      POPE     H12R     HAL2     0.900000E-01   1.00800           0
      6783 MEMB     153      POPE     H12S     HAL2     0.900000E-01   1.00800           0
      6784 MEMB     153      POPE     C213     CTL2    -0.180000       12.0110           0
      6785 MEMB     153      POPE     H13R     HAL2     0.900000E-01   1.00800           0
      6786 MEMB     153      POPE     H13S     HAL2     0.900000E-01   1.00800           0
      6787 MEMB     153      POPE     C214     CTL2    -0.180000       12.0110           0
      6788 MEMB     153      POPE     H14R     HAL2     0.900000E-01   1.00800           0
      6789 MEMB     153      POPE     H14S     HAL2     0.900000E-01   1.00800           0
      6790 MEMB     153      POPE     C215     CTL2    -0.180000       12.0110           0
      6791 MEMB     153      POPE     H15R     HAL2     0.900000E-01   1.00800           0
      6792 MEMB     153      POPE     H15S     HAL2     0.900000E-01   1.00800           0
      6793 MEMB     153      POPE     C216     CTL2    -0.180000       12.0110           0
      6794 MEMB     153      POPE     H16R     HAL2     0.900000E-01   1.00800           0
      6795 MEMB     153      POPE     H16S     HAL2     0.900000E-01   1.00800           0
      6796 MEMB     153      POPE     C217     CTL2    -0.180000       12.0110           0
      6797 MEMB     153      POPE     H17R     HAL2     0.900000E-01   1.00800           0
      6798 MEMB     153      POPE     H17S     HAL2     0.900000E-01   1.00800           0
      6799 MEMB     153      POPE     C218     CTL3    -0.270000       12.0110           0
      6800 MEMB     153      POPE     H18R     HAL3     0.900000E-01   1.00800           0
      6801 MEMB     153      POPE     H18S     HAL3     0.900000E-01   1.00800           0
      6802 MEMB     153      POPE     H18T     HAL3     0.900000E-01   1.00800           0
      6803 MEMB     153      POPE     C33      CTL2    -0.180000       12.0110           0
      6804 MEMB     153      POPE     H3X      HAL2     0.900000E-01   1.00800           0
      6805 MEMB     153      POPE     H3Y      HAL2     0.900000E-01   1.00800           0
      6806 MEMB     153      POPE     C34      CTL2    -0.180000       12.0110           0
      6807 MEMB     153      POPE     H4X      HAL2     0.900000E-01   1.00800           0
      6808 MEMB     153      POPE     H4Y      HAL2     0.900000E-01   1.00800           0
      6809 MEMB     153      POPE     C35      CTL2    -0.180000       12.0110           0
      6810 MEMB     153      POPE     H5X      HAL2     0.900000E-01   1.00800           0
      6811 MEMB     153      POPE     H5Y      HAL2     0.900000E-01   1.00800           0
      6812 MEMB     153      POPE     C36      CTL2    -0.180000       12.0110           0
      6813 MEMB     153      POPE     H6X      HAL2     0.900000E-01   1.00800           0
      6814 MEMB     153      POPE     H6Y      HAL2     0.900000E-01   1.00800           0
      6815 MEMB     153      POPE     C37      CTL2    -0.180000       12.0110           0
      6816 MEMB     153      POPE     H7X      HAL2     0.900000E-01   1.00800           0
      6817 MEMB     153      POPE     H7Y      HAL2     0.900000E-01   1.00800           0
      6818 MEMB     153      POPE     C38      CTL2    -0.180000       12.0110           0
      6819 MEMB     153      POPE     H8X      HAL2     0.900000E-01   1.00800           0
      6820 MEMB     153      POPE     H8Y      HAL2     0.900000E-01   1.00800           0
      6821 MEMB     153      POPE     C39      CTL2    -0.180000       12.0110           0
      6822 MEMB     153      POPE     H9X      HAL2     0.900000E-01   1.00800           0
      6823 MEMB     153      POPE     H9Y      HAL2     0.900000E-01   1.00800           0
      6824 MEMB     153      POPE     C310     CTL2    -0.180000       12.0110           0
      6825 MEMB     153      POPE     H10X     HAL2     0.900000E-01   1.00800           0
      6826 MEMB     153      POPE     H10Y     HAL2     0.900000E-01   1.00800           0
      6827 MEMB     153      POPE     C311     CTL2    -0.180000       12.0110           0
      6828 MEMB     153      POPE     H11X     HAL2     0.900000E-01   1.00800           0
      6829 MEMB     153      POPE     H11Y     HAL2     0.900000E-01   1.00800           0
      6830 MEMB     153      POPE     C312     CTL2    -0.180000       12.0110           0
      6831 MEMB     153      POPE     H12X     HAL2     0.900000E-01   1.00800           0
      6832 MEMB     153      POPE     H12Y     HAL2     0.900000E-01   1.00800           0
      6833 MEMB     153      POPE     C313     CTL2    -0.180000       12.0110           0
      6834 MEMB     153      POPE     H13X     HAL2     0.900000E-01   1.00800           0
      6835 MEMB     153      POPE     H13Y     HAL2     0.900000E-01   1.00800           0
      6836 MEMB     153      POPE     C314     CTL2    -0.180000       12.0110           0
      6837 MEMB     153      POPE     H14X     HAL2     0.900000E-01   1.00800           0
      6838 MEMB     153      POPE     H14Y     HAL2     0.900000E-01   1.00800           0
      6839 MEMB     153      POPE     C315     CTL2    -0.180000       12.0110           0
      6840 MEMB     153      POPE     H15X     HAL2     0.900000E-01   1.00800           0
      6841 MEMB     153      POPE     H15Y     HAL2     0.900000E-01   1.00800           0
      6842 MEMB     153      POPE     C316     CTL3    -0.270000       12.0110           0
      6843 MEMB     153      POPE     H16X     HAL3     0.900000E-01   1.00800           0
      6844 MEMB     153      POPE     H16Y     HAL3     0.900000E-01   1.00800           0
      6845 MEMB     153      POPE     H16Z     HAL3     0.900000E-01   1.00800           0
      6846 MEMB     156      POPE     N        NH3L    -0.300000       14.0070           0
      6847 MEMB     156      POPE     HN1      HCL      0.330000       1.00800           0
      6848 MEMB     156      POPE     HN2      HCL      0.330000       1.00800           0
      6849 MEMB     156      POPE     HN3      HCL      0.330000       1.00800           0
      6850 MEMB     156      POPE     C12      CTL2     0.130000       12.0110           0
      6851 MEMB     156      POPE     H12A     HAL2     0.900000E-01   1.00800           0
      6852 MEMB     156      POPE     H12B     HAL2     0.900000E-01   1.00800           0
      6853 MEMB     156      POPE     C11      CTL2    -0.800000E-01   12.0110           0
      6854 MEMB     156      POPE     H11A     HAL2     0.900000E-01   1.00800           0
      6855 MEMB     156      POPE     H11B     HAL2     0.900000E-01   1.00800           0
      6856 MEMB     156      POPE     P        PL       1.500000       30.9740           0
      6857 MEMB     156      POPE     O13      O2L     -0.780000       15.9994           0
      6858 MEMB     156      POPE     O14      O2L     -0.780000       15.9994           0
      6859 MEMB     156      POPE     O11      OSLP    -0.570000       15.9994           0
      6860 MEMB     156      POPE     O12      OSLP    -0.570000       15.9994           0
      6861 MEMB     156      POPE     C1       CTL2    -0.800000E-01   12.0110           0
      6862 MEMB     156      POPE     HA       HAL2     0.900000E-01   1.00800           0
      6863 MEMB     156      POPE     HB       HAL2     0.900000E-01   1.00800           0
      6864 MEMB     156      POPE     C2       CTL1     0.170000       12.0110           0
      6865 MEMB     156      POPE     HS       HAL1     0.900000E-01   1.00800           0
      6866 MEMB     156      POPE     O21      OSL     -0.490000       15.9994           0
      6867 MEMB     156      POPE     C21      CL       0.900000       12.0110           0
      6868 MEMB     156      POPE     O22      OBL     -0.630000       15.9994           0
      6869 MEMB     156      POPE     C22      CTL2    -0.220000       12.0110           0
      6870 MEMB     156      POPE     H2R      HAL2     0.900000E-01   1.00800           0
      6871 MEMB     156      POPE     H2S      HAL2     0.900000E-01   1.00800           0
      6872 MEMB     156      POPE     C3       CTL2     0.800000E-01   12.0110           0
      6873 MEMB     156      POPE     HX       HAL2     0.900000E-01   1.00800           0
      6874 MEMB     156      POPE     HY       HAL2     0.900000E-01   1.00800           0
      6875 MEMB     156      POPE     O31      OSL     -0.490000       15.9994           0
      6876 MEMB     156      POPE     C31      CL       0.900000       12.0110           0
      6877 MEMB     156      POPE     O32      OBL     -0.630000       15.9994           0
      6878 MEMB     156      POPE     C32      CTL2    -0.220000       12.0110           0
      6879 MEMB     156      POPE     H2X      HAL2     0.900000E-01   1.00800           0
      6880 MEMB     156      POPE     H2Y      HAL2     0.900000E-01   1.00800           0
      6881 MEMB     156      POPE     C23      CTL2    -0.180000       12.0110           0
      6882 MEMB     156      POPE     H3R      HAL2     0.900000E-01   1.00800           0
      6883 MEMB     156      POPE     H3S      HAL2     0.900000E-01   1.00800           0
      6884 MEMB     156      POPE     C24      CTL2    -0.180000       12.0110           0
      6885 MEMB     156      POPE     H4R      HAL2     0.900000E-01   1.00800           0
      6886 MEMB     156      POPE     H4S      HAL2     0.900000E-01   1.00800           0
      6887 MEMB     156      POPE     C25      CTL2    -0.180000       12.0110           0
      6888 MEMB     156      POPE     H5R      HAL2     0.900000E-01   1.00800           0
      6889 MEMB     156      POPE     H5S      HAL2     0.900000E-01   1.00800           0
      6890 MEMB     156      POPE     C26      CTL2    -0.180000       12.0110           0
      6891 MEMB     156      POPE     H6R      HAL2     0.900000E-01   1.00800           0
      6892 MEMB     156      POPE     H6S      HAL2     0.900000E-01   1.00800           0
      6893 MEMB     156      POPE     C27      CTL2    -0.180000       12.0110           0
      6894 MEMB     156      POPE     H7R      HAL2     0.900000E-01   1.00800           0
      6895 MEMB     156      POPE     H7S      HAL2     0.900000E-01   1.00800           0
      6896 MEMB     156      POPE     C28      CTL2    -0.180000       12.0110           0
      6897 MEMB     156      POPE     H8R      HAL2     0.900000E-01   1.00800           0
      6898 MEMB     156      POPE     H8S      HAL2     0.900000E-01   1.00800           0
      6899 MEMB     156      POPE     C29      CEL1    -0.150000       12.0110           0
      6900 MEMB     156      POPE     H91      HEL1     0.150000       1.00800           0
      6901 MEMB     156      POPE     C210     CEL1    -0.150000       12.0110           0
      6902 MEMB     156      POPE     H101     HEL1     0.150000       1.00800           0
      6903 MEMB     156      POPE     C211     CTL2    -0.180000       12.0110           0
      6904 MEMB     156      POPE     H11R     HAL2     0.900000E-01   1.00800           0
      6905 MEMB     156      POPE     H11S     HAL2     0.900000E-01   1.00800           0
      6906 MEMB     156      POPE     C212     CTL2    -0.180000       12.0110           0
      6907 MEMB     156      POPE     H12R     HAL2     0.900000E-01   1.00800           0
      6908 MEMB     156      POPE     H12S     HAL2     0.900000E-01   1.00800           0
      6909 MEMB     156      POPE     C213     CTL2    -0.180000       12.0110           0
      6910 MEMB     156      POPE     H13R     HAL2     0.900000E-01   1.00800           0
      6911 MEMB     156      POPE     H13S     HAL2     0.900000E-01   1.00800           0
      6912 MEMB     156      POPE     C214     CTL2    -0.180000       12.0110           0
      6913 MEMB     156      POPE     H14R     HAL2     0.900000E-01   1.00800           0
      6914 MEMB     156      POPE     H14S     HAL2     0.900000E-01   1.00800           0
      6915 MEMB     156      POPE     C215     CTL2    -0.180000       12.0110           0
      6916 MEMB     156      POPE     H15R     HAL2     0.900000E-01   1.00800           0
      6917 MEMB     156      POPE     H15S     HAL2     0.900000E-01   1.00800           0
      6918 MEMB     156      POPE     C216     CTL2    -0.180000       12.0110           0
      6919 MEMB     156      POPE     H16R     HAL2     0.900000E-01   1.00800           0
      6920 MEMB     156      POPE     H16S     HAL2     0.900000E-01   1.00800           0
      6921 MEMB     156      POPE     C217     CTL2    -0.180000       12.0110           0
      6922 MEMB     156      POPE     H17R     HAL2     0.900000E-01   1.00800           0
      6923 MEMB     156      POPE     H17S     HAL2     0.900000E-01   1.00800           0
      6924 MEMB     156      POPE     C218     CTL3    -0.270000       12.0110           0
      6925 MEMB     156      POPE     H18R     HAL3     0.900000E-01   1.00800           0
      6926 MEMB     156      POPE     H18S     HAL3     0.900000E-01   1.00800           0
      6927 MEMB     156      POPE     H18T     HAL3     0.900000E-01   1.00800           0
      6928 MEMB     156      POPE     C33      CTL2    -0.180000       12.0110           0
      6929 MEMB     156      POPE     H3X      HAL2     0.900000E-01   1.00800           0
      6930 MEMB     156      POPE     H3Y      HAL2     0.900000E-01   1.00800           0
      6931 MEMB     156      POPE     C34      CTL2    -0.180000       12.0110           0
      6932 MEMB     156      POPE     H4X      HAL2     0.900000E-01   1.00800           0
      6933 MEMB     156      POPE     H4Y      HAL2     0.900000E-01   1.00800           0
      6934 MEMB     156      POPE     C35      CTL2    -0.180000       12.0110           0
      6935 MEMB     156      POPE     H5X      HAL2     0.900000E-01   1.00800           0
      6936 MEMB     156      POPE     H5Y      HAL2     0.900000E-01   1.00800           0
      6937 MEMB     156      POPE     C36      CTL2    -0.180000       12.0110           0
      6938 MEMB     156      POPE     H6X      HAL2     0.900000E-01   1.00800           0
      6939 MEMB     156      POPE     H6Y      HAL2     0.900000E-01   1.00800           0
      6940 MEMB     156      POPE     C37      CTL2    -0.180000       12.0110           0
      6941 MEMB     156      POPE     H7X      HAL2     0.900000E-01   1.00800           0
      6942 MEMB     156      POPE     H7Y      HAL2     0.900000E-01   1.00800           0
      6943 MEMB     156      POPE     C38      CTL2    -0.180000       12.0110           0
      6944 MEMB     156      POPE     H8X      HAL2     0.900000E-01   1.00800           0
      6945 MEMB     156      POPE     H8Y      HAL2     0.900000E-01   1.00800           0
      6946 MEMB     156      POPE     C39      CTL2    -0.180000       12.0110           0
      6947 MEMB     156      POPE     H9X      HAL2     0.900000E-01   1.00800           0
      6948 MEMB     156      POPE     H9Y      HAL2     0.900000E-01   1.00800           0
      6949 MEMB     156      POPE     C310     CTL2    -0.180000       12.0110           0
      6950 MEMB     156      POPE     H10X     HAL2     0.900000E-01   1.00800           0
      6951 MEMB     156      POPE     H10Y     HAL2     0.900000E-01   1.00800           0
      6952 MEMB     156      POPE     C311     CTL2    -0.180000       12.0110           0
      6953 MEMB     156      POPE     H11X     HAL2     0.900000E-01   1.00800           0
      6954 MEMB     156      POPE     H11Y     HAL2     0.900000E-01   1.00800           0
      6955 MEMB     156      POPE     C312     CTL2    -0.180000       12.0110           0
      6956 MEMB     156      POPE     H12X     HAL2     0.900000E-01   1.00800           0
      6957 MEMB     156      POPE     H12Y     HAL2     0.900000E-01   1.00800           0
      6958 MEMB     156      POPE     C313     CTL2    -0.180000       12.0110           0
      6959 MEMB     156      POPE     H13X     HAL2     0.900000E-01   1.00800           0
      6960 MEMB     156      POPE     H13Y     HAL2     0.900000E-01   1.00800           0
      6961 MEMB     156      POPE     C314     CTL2    -0.180000       12.0110           0
      6962 MEMB     156      POPE     H14X     HAL2     0.900000E-01   1.00800           0
      6963 MEMB     156      POPE     H14Y     HAL2     0.900000E-01   1.00800           0
      6964 MEMB     156      POPE     C315     CTL2    -0.180000       12.0110           0
      6965 MEMB     156      POPE     H15X     HAL2     0.900000E-01   1.00800           0
      6966 MEMB     156      POPE     H15Y     HAL2     0.900000E-01   1.00800           0
      6967 MEMB     156      POPE     C316     CTL3    -0.270000       12.0110           0
      6968 MEMB     156      POPE     H16X     HAL3     0.900000E-01   1.00800           0
      6969 MEMB     156      POPE     H16Y     HAL3     0.900000E-01   1.00800           0
      6970 MEMB     156      POPE     H16Z     HAL3     0.900000E-01   1.00800           0
      6971 MEMB     164      POPE     N        NH3L    -0.300000       14.0070           0
      6972 MEMB     164      POPE     HN1      HCL      0.330000       1.00800           0
      6973 MEMB     164      POPE     HN2      HCL      0.330000       1.00800           0
      6974 MEMB     164      POPE     HN3      HCL      0.330000       1.00800           0
      6975 MEMB     164      POPE     C12      CTL2     0.130000       12.0110           0
      6976 MEMB     164      POPE     H12A     HAL2     0.900000E-01   1.00800           0
      6977 MEMB     164      POPE     H12B     HAL2     0.900000E-01   1.00800           0
      6978 MEMB     164      POPE     C11      CTL2    -0.800000E-01   12.0110           0
      6979 MEMB     164      POPE     H11A     HAL2     0.900000E-01   1.00800           0
      6980 MEMB     164      POPE     H11B     HAL2     0.900000E-01   1.00800           0
      6981 MEMB     164      POPE     P        PL       1.500000       30.9740           0
      6982 MEMB     164      POPE     O13      O2L     -0.780000       15.9994           0
      6983 MEMB     164      POPE     O14      O2L     -0.780000       15.9994           0
      6984 MEMB     164      POPE     O11      OSLP    -0.570000       15.9994           0
      6985 MEMB     164      POPE     O12      OSLP    -0.570000       15.9994           0
      6986 MEMB     164      POPE     C1       CTL2    -0.800000E-01   12.0110           0
      6987 MEMB     164      POPE     HA       HAL2     0.900000E-01   1.00800           0
      6988 MEMB     164      POPE     HB       HAL2     0.900000E-01   1.00800           0
      6989 MEMB     164      POPE     C2       CTL1     0.170000       12.0110           0
      6990 MEMB     164      POPE     HS       HAL1     0.900000E-01   1.00800           0
      6991 MEMB     164      POPE     O21      OSL     -0.490000       15.9994           0
      6992 MEMB     164      POPE     C21      CL       0.900000       12.0110           0
      6993 MEMB     164      POPE     O22      OBL     -0.630000       15.9994           0
      6994 MEMB     164      POPE     C22      CTL2    -0.220000       12.0110           0
      6995 MEMB     164      POPE     H2R      HAL2     0.900000E-01   1.00800           0
      6996 MEMB     164      POPE     H2S      HAL2     0.900000E-01   1.00800           0
      6997 MEMB     164      POPE     C3       CTL2     0.800000E-01   12.0110           0
      6998 MEMB     164      POPE     HX       HAL2     0.900000E-01   1.00800           0
      6999 MEMB     164      POPE     HY       HAL2     0.900000E-01   1.00800           0
      7000 MEMB     164      POPE     O31      OSL     -0.490000       15.9994           0
      7001 MEMB     164      POPE     C31      CL       0.900000       12.0110           0
      7002 MEMB     164      POPE     O32      OBL     -0.630000       15.9994           0
      7003 MEMB     164      POPE     C32      CTL2    -0.220000       12.0110           0
      7004 MEMB     164      POPE     H2X      HAL2     0.900000E-01   1.00800           0
      7005 MEMB     164      POPE     H2Y      HAL2     0.900000E-01   1.00800           0
      7006 MEMB     164      POPE     C23      CTL2    -0.180000       12.0110           0
      7007 MEMB     164      POPE     H3R      HAL2     0.900000E-01   1.00800           0
      7008 MEMB     164      POPE     H3S      HAL2     0.900000E-01   1.00800           0
      7009 MEMB     164      POPE     C24      CTL2    -0.180000       12.0110           0
      7010 MEMB     164      POPE     H4R      HAL2     0.900000E-01   1.00800           0
      7011 MEMB     164      POPE     H4S      HAL2     0.900000E-01   1.00800           0
      7012 MEMB     164      POPE     C25      CTL2    -0.180000       12.0110           0
      7013 MEMB     164      POPE     H5R      HAL2     0.900000E-01   1.00800           0
      7014 MEMB     164      POPE     H5S      HAL2     0.900000E-01   1.00800           0
      7015 MEMB     164      POPE     C26      CTL2    -0.180000       12.0110           0
      7016 MEMB     164      POPE     H6R      HAL2     0.900000E-01   1.00800           0
      7017 MEMB     164      POPE     H6S      HAL2     0.900000E-01   1.00800           0
      7018 MEMB     164      POPE     C27      CTL2    -0.180000       12.0110           0
      7019 MEMB     164      POPE     H7R      HAL2     0.900000E-01   1.00800           0
      7020 MEMB     164      POPE     H7S      HAL2     0.900000E-01   1.00800           0
      7021 MEMB     164      POPE     C28      CTL2    -0.180000       12.0110           0
      7022 MEMB     164      POPE     H8R      HAL2     0.900000E-01   1.00800           0
      7023 MEMB     164      POPE     H8S      HAL2     0.900000E-01   1.00800           0
      7024 MEMB     164      POPE     C29      CEL1    -0.150000       12.0110           0
      7025 MEMB     164      POPE     H91      HEL1     0.150000       1.00800           0
      7026 MEMB     164      POPE     C210     CEL1    -0.150000       12.0110           0
      7027 MEMB     164      POPE     H101     HEL1     0.150000       1.00800           0
      7028 MEMB     164      POPE     C211     CTL2    -0.180000       12.0110           0
      7029 MEMB     164      POPE     H11R     HAL2     0.900000E-01   1.00800           0
      7030 MEMB     164      POPE     H11S     HAL2     0.900000E-01   1.00800           0
      7031 MEMB     164      POPE     C212     CTL2    -0.180000       12.0110           0
      7032 MEMB     164      POPE     H12R     HAL2     0.900000E-01   1.00800           0
      7033 MEMB     164      POPE     H12S     HAL2     0.900000E-01   1.00800           0
      7034 MEMB     164      POPE     C213     CTL2    -0.180000       12.0110           0
      7035 MEMB     164      POPE     H13R     HAL2     0.900000E-01   1.00800           0
      7036 MEMB     164      POPE     H13S     HAL2     0.900000E-01   1.00800           0
      7037 MEMB     164      POPE     C214     CTL2    -0.180000       12.0110           0
      7038 MEMB     164      POPE     H14R     HAL2     0.900000E-01   1.00800           0
      7039 MEMB     164      POPE     H14S     HAL2     0.900000E-01   1.00800           0
      7040 MEMB     164      POPE     C215     CTL2    -0.180000       12.0110           0
      7041 MEMB     164      POPE     H15R     HAL2     0.900000E-01   1.00800           0
      7042 MEMB     164      POPE     H15S     HAL2     0.900000E-01   1.00800           0
      7043 MEMB     164      POPE     C216     CTL2    -0.180000       12.0110           0
      7044 MEMB     164      POPE     H16R     HAL2     0.900000E-01   1.00800           0
      7045 MEMB     164      POPE     H16S     HAL2     0.900000E-01   1.00800           0
      7046 MEMB     164      POPE     C217     CTL2    -0.180000       12.0110           0
      7047 MEMB     164      POPE     H17R     HAL2     0.900000E-01   1.00800           0
      7048 MEMB     164      POPE     H17S     HAL2     0.900000E-01   1.00800           0
      7049 MEMB     164      POPE     C218     CTL3    -0.270000       12.0110           0
      7050 MEMB     164      POPE     H18R     HAL3     0.900000E-01   1.00800           0
      7051 MEMB     164      POPE     H18S     HAL3     0.900000E-01   1.00800           0
      7052 MEMB     164      POPE     H18T     HAL3     0.900000E-01   1.00800           0
      7053 MEMB     164      POPE     C33      CTL2    -0.180000       12.0110           0
      7054 MEMB     164      POPE     H3X      HAL2     0.900000E-01   1.00800           0
      7055 MEMB     164      POPE     H3Y      HAL2     0.900000E-01   1.00800           0
      7056 MEMB     164      POPE     C34      CTL2    -0.180000       12.0110           0
      7057 MEMB     164      POPE     H4X      HAL2     0.900000E-01   1.00800           0
      7058 MEMB     164      POPE     H4Y      HAL2     0.900000E-01   1.00800           0
      7059 MEMB     164      POPE     C35      CTL2    -0.180000       12.0110           0
      7060 MEMB     164      POPE     H5X      HAL2     0.900000E-01   1.00800           0
      7061 MEMB     164      POPE     H5Y      HAL2     0.900000E-01   1.00800           0
      7062 MEMB     164      POPE     C36      CTL2    -0.180000       12.0110           0
      7063 MEMB     164      POPE     H6X      HAL2     0.900000E-01   1.00800           0
      7064 MEMB     164      POPE     H6Y      HAL2     0.900000E-01   1.00800           0
      7065 MEMB     164      POPE     C37      CTL2    -0.180000       12.0110           0
      7066 MEMB     164      POPE     H7X      HAL2     0.900000E-01   1.00800           0
      7067 MEMB     164      POPE     H7Y      HAL2     0.900000E-01   1.00800           0
      7068 MEMB     164      POPE     C38      CTL2    -0.180000       12.0110           0
      7069 MEMB     164      POPE     H8X      HAL2     0.900000E-01   1.00800           0
      7070 MEMB     164      POPE     H8Y      HAL2     0.900000E-01   1.00800           0
      7071 MEMB     164      POPE     C39      CTL2    -0.180000       12.0110           0
      7072 MEMB     164      POPE     H9X      HAL2     0.900000E-01   1.00800           0
      7073 MEMB     164      POPE     H9Y      HAL2     0.900000E-01   1.00800           0
      7074 MEMB     164      POPE     C310     CTL2    -0.180000       12.0110           0
      7075 MEMB     164      POPE     H10X     HAL2     0.900000E-01   1.00800           0
      7076 MEMB     164      POPE     H10Y     HAL2     0.900000E-01   1.00800           0
      7077 MEMB     164      POPE     C311     CTL2    -0.180000       12.0110           0
      7078 MEMB     164      POPE     H11X     HAL2     0.900000E-01   1.00800           0
      7079 MEMB     164      POPE     H11Y     HAL2     0.900000E-01   1.00800           0
      7080 MEMB     164      POPE     C312     CTL2    -0.180000       12.0110           0
      7081 MEMB     164      POPE     H12X     HAL2     0.900000E-01   1.00800           0
      7082 MEMB     164      POPE     H12Y     HAL2     0.900000E-01   1.00800           0
      7083 MEMB     164      POPE     C313     CTL2    -0.180000       12.0110           0
      7084 MEMB     164      POPE     H13X     HAL2     0.900000E-01   1.00800           0
      7085 MEMB     164      POPE     H13Y     HAL2     0.900000E-01   1.00800           0
      7086 MEMB     164      POPE     C314     CTL2    -0.180000       12.0110           0
      7087 MEMB     164      POPE     H14X     HAL2     0.900000E-01   1.00800           0
      7088 MEMB     164      POPE     H14Y     HAL2     0.900000E-01   1.00800           0
      7089 MEMB     164      POPE     C315     CTL2    -0.180000       12.0110           0
      7090 MEMB     164      POPE     H15X     HAL2     0.900000E-01   1.00800           0
      7091 MEMB     164      POPE     H15Y     HAL2     0.900000E-01   1.00800           0
      7092 MEMB     164      POPE     C316     CTL3    -0.270000       12.0110           0
      7093 MEMB     164      POPE     H16X     HAL3     0.900000E-01   1.00800           0
      7094 MEMB     164      POPE     H16Y     HAL3     0.900000E-01   1.00800           0
      7095 MEMB     164      POPE     H16Z     HAL3     0.900000E-01   1.00800           0
      7096 MEMB     173      POPE     N        NH3L    -0.300000       14.0070           0
      7097 MEMB     173      POPE     HN1      HCL      0.330000       1.00800           0
      7098 MEMB     173      POPE     HN2      HCL      0.330000       1.00800           0
      7099 MEMB     173      POPE     HN3      HCL      0.330000       1.00800           0
      7100 MEMB     173      POPE     C12      CTL2     0.130000       12.0110           0
      7101 MEMB     173      POPE     H12A     HAL2     0.900000E-01   1.00800           0
      7102 MEMB     173      POPE     H12B     HAL2     0.900000E-01   1.00800           0
      7103 MEMB     173      POPE     C11      CTL2    -0.800000E-01   12.0110           0
      7104 MEMB     173      POPE     H11A     HAL2     0.900000E-01   1.00800           0
      7105 MEMB     173      POPE     H11B     HAL2     0.900000E-01   1.00800           0
      7106 MEMB     173      POPE     P        PL       1.500000       30.9740           0
      7107 MEMB     173      POPE     O13      O2L     -0.780000       15.9994           0
      7108 MEMB     173      POPE     O14      O2L     -0.780000       15.9994           0
      7109 MEMB     173      POPE     O11      OSLP    -0.570000       15.9994           0
      7110 MEMB     173      POPE     O12      OSLP    -0.570000       15.9994           0
      7111 MEMB     173      POPE     C1       CTL2    -0.800000E-01   12.0110           0
      7112 MEMB     173      POPE     HA       HAL2     0.900000E-01   1.00800           0
      7113 MEMB     173      POPE     HB       HAL2     0.900000E-01   1.00800           0
      7114 MEMB     173      POPE     C2       CTL1     0.170000       12.0110           0
      7115 MEMB     173      POPE     HS       HAL1     0.900000E-01   1.00800           0
      7116 MEMB     173      POPE     O21      OSL     -0.490000       15.9994           0
      7117 MEMB     173      POPE     C21      CL       0.900000       12.0110           0
      7118 MEMB     173      POPE     O22      OBL     -0.630000       15.9994           0
      7119 MEMB     173      POPE     C22      CTL2    -0.220000       12.0110           0
      7120 MEMB     173      POPE     H2R      HAL2     0.900000E-01   1.00800           0
      7121 MEMB     173      POPE     H2S      HAL2     0.900000E-01   1.00800           0
      7122 MEMB     173      POPE     C3       CTL2     0.800000E-01   12.0110           0
      7123 MEMB     173      POPE     HX       HAL2     0.900000E-01   1.00800           0
      7124 MEMB     173      POPE     HY       HAL2     0.900000E-01   1.00800           0
      7125 MEMB     173      POPE     O31      OSL     -0.490000       15.9994           0
      7126 MEMB     173      POPE     C31      CL       0.900000       12.0110           0
      7127 MEMB     173      POPE     O32      OBL     -0.630000       15.9994           0
      7128 MEMB     173      POPE     C32      CTL2    -0.220000       12.0110           0
      7129 MEMB     173      POPE     H2X      HAL2     0.900000E-01   1.00800           0
      7130 MEMB     173      POPE     H2Y      HAL2     0.900000E-01   1.00800           0
      7131 MEMB     173      POPE     C23      CTL2    -0.180000       12.0110           0
      7132 MEMB     173      POPE     H3R      HAL2     0.900000E-01   1.00800           0
      7133 MEMB     173      POPE     H3S      HAL2     0.900000E-01   1.00800           0
      7134 MEMB     173      POPE     C24      CTL2    -0.180000       12.0110           0
      7135 MEMB     173      POPE     H4R      HAL2     0.900000E-01   1.00800           0
      7136 MEMB     173      POPE     H4S      HAL2     0.900000E-01   1.00800           0
      7137 MEMB     173      POPE     C25      CTL2    -0.180000       12.0110           0
      7138 MEMB     173      POPE     H5R      HAL2     0.900000E-01   1.00800           0
      7139 MEMB     173      POPE     H5S      HAL2     0.900000E-01   1.00800           0
      7140 MEMB     173      POPE     C26      CTL2    -0.180000       12.0110           0
      7141 MEMB     173      POPE     H6R      HAL2     0.900000E-01   1.00800           0
      7142 MEMB     173      POPE     H6S      HAL2     0.900000E-01   1.00800           0
      7143 MEMB     173      POPE     C27      CTL2    -0.180000       12.0110           0
      7144 MEMB     173      POPE     H7R      HAL2     0.900000E-01   1.00800           0
      7145 MEMB     173      POPE     H7S      HAL2     0.900000E-01   1.00800           0
      7146 MEMB     173      POPE     C28      CTL2    -0.180000       12.0110           0
      7147 MEMB     173      POPE     H8R      HAL2     0.900000E-01   1.00800           0
      7148 MEMB     173      POPE     H8S      HAL2     0.900000E-01   1.00800           0
      7149 MEMB     173      POPE     C29      CEL1    -0.150000       12.0110           0
      7150 MEMB     173      POPE     H91      HEL1     0.150000       1.00800           0
      7151 MEMB     173      POPE     C210     CEL1    -0.150000       12.0110           0
      7152 MEMB     173      POPE     H101     HEL1     0.150000       1.00800           0
      7153 MEMB     173      POPE     C211     CTL2    -0.180000       12.0110           0
      7154 MEMB     173      POPE     H11R     HAL2     0.900000E-01   1.00800           0
      7155 MEMB     173      POPE     H11S     HAL2     0.900000E-01   1.00800           0
      7156 MEMB     173      POPE     C212     CTL2    -0.180000       12.0110           0
      7157 MEMB     173      POPE     H12R     HAL2     0.900000E-01   1.00800           0
      7158 MEMB     173      POPE     H12S     HAL2     0.900000E-01   1.00800           0
      7159 MEMB     173      POPE     C213     CTL2    -0.180000       12.0110           0
      7160 MEMB     173      POPE     H13R     HAL2     0.900000E-01   1.00800           0
      7161 MEMB     173      POPE     H13S     HAL2     0.900000E-01   1.00800           0
      7162 MEMB     173      POPE     C214     CTL2    -0.180000       12.0110           0
      7163 MEMB     173      POPE     H14R     HAL2     0.900000E-01   1.00800           0
      7164 MEMB     173      POPE     H14S     HAL2     0.900000E-01   1.00800           0
      7165 MEMB     173      POPE     C215     CTL2    -0.180000       12.0110           0
      7166 MEMB     173      POPE     H15R     HAL2     0.900000E-01   1.00800           0
      7167 MEMB     173      POPE     H15S     HAL2     0.900000E-01   1.00800           0
      7168 MEMB     173      POPE     C216     CTL2    -0.180000       12.0110           0
      7169 MEMB     173      POPE     H16R     HAL2     0.900000E-01   1.00800           0
      7170 MEMB     173      POPE     H16S     HAL2     0.900000E-01   1.00800           0
      7171 MEMB     173      POPE     C217     CTL2    -0.180000       12.0110           0
      7172 MEMB     173      POPE     H17R     HAL2     0.900000E-01   1.00800           0
      7173 MEMB     173      POPE     H17S     HAL2     0.900000E-01   1.00800           0
      7174 MEMB     173      POPE     C218     CTL3    -0.270000       12.0110           0
      7175 MEMB     173      POPE     H18R     HAL3     0.900000E-01   1.00800           0
      7176 MEMB     173      POPE     H18S     HAL3     0.900000E-01   1.00800           0
      7177 MEMB     173      POPE     H18T     HAL3     0.900000E-01   1.00800           0
      7178 MEMB     173      POPE     C33      CTL2    -0.180000       12.0110           0
      7179 MEMB     173      POPE     H3X      HAL2     0.900000E-01   1.00800           0
      7180 MEMB     173      POPE     H3Y      HAL2     0.900000E-01   1.00800           0
      7181 MEMB     173      POPE     C34      CTL2    -0.180000       12.0110           0
      7182 MEMB     173      POPE     H4X      HAL2     0.900000E-01   1.00800           0
      7183 MEMB     173      POPE     H4Y      HAL2     0.900000E-01   1.00800           0
      7184 MEMB     173      POPE     C35      CTL2    -0.180000       12.0110           0
      7185 MEMB     173      POPE     H5X      HAL2     0.900000E-01   1.00800           0
      7186 MEMB     173      POPE     H5Y      HAL2     0.900000E-01   1.00800           0
      7187 MEMB     173      POPE     C36      CTL2    -0.180000       12.0110           0
      7188 MEMB     173      POPE     H6X      HAL2     0.900000E-01   1.00800           0
      7189 MEMB     173      POPE     H6Y      HAL2     0.900000E-01   1.00800           0
      7190 MEMB     173      POPE     C37      CTL2    -0.180000       12.0110           0
      7191 MEMB     173      POPE     H7X      HAL2     0.900000E-01   1.00800           0
      7192 MEMB     173      POPE     H7Y      HAL2     0.900000E-01   1.00800           0
      7193 MEMB     173      POPE     C38      CTL2    -0.180000       12.0110           0
      7194 MEMB     173      POPE     H8X      HAL2     0.900000E-01   1.00800           0
      7195 MEMB     173      POPE     H8Y      HAL2     0.900000E-01   1.00800           0
      7196 MEMB     173      POPE     C39      CTL2    -0.180000       12.0110           0
      7197 MEMB     173      POPE     H9X      HAL2     0.900000E-01   1.00800           0
      7198 MEMB     173      POPE     H9Y      HAL2     0.900000E-01   1.00800           0
      7199 MEMB     173      POPE     C310     CTL2    -0.180000       12.0110           0
      7200 MEMB     173      POPE     H10X     HAL2     0.900000E-01   1.00800           0
      7201 MEMB     173      POPE     H10Y     HAL2     0.900000E-01   1.00800           0
      7202 MEMB     173      POPE     C311     CTL2    -0.180000       12.0110           0
      7203 MEMB     173      POPE     H11X     HAL2     0.900000E-01   1.00800           0
      7204 MEMB     173      POPE     H11Y     HAL2     0.900000E-01   1.00800           0
      7205 MEMB     173      POPE     C312     CTL2    -0.180000       12.0110           0
      7206 MEMB     173      POPE     H12X     HAL2     0.900000E-01   1.00800           0
      7207 MEMB     173      POPE     H12Y     HAL2     0.900000E-01   1.00800           0
      7208 MEMB     173      POPE     C313     CTL2    -0.180000       12.0110           0
      7209 MEMB     173      POPE     H13X     HAL2     0.900000E-01   1.00800           0
      7210 MEMB     173      POPE     H13Y     HAL2     0.900000E-01   1.00800           0
      7211 MEMB     173      POPE     C314     CTL2    -0.180000       12.0110           0
      7212 MEMB     173      POPE     H14X     HAL2     0.900000E-01   1.00800           0
      7213 MEMB     173      POPE     H14Y     HAL2     0.900000E-01   1.00800           0
      7214 MEMB     173      POPE     C315     CTL2    -0.180000       12.0110           0
      7215 MEMB     173      POPE     H15X     HAL2     0.900000E-01   1.00800           0
      7216 MEMB     173      POPE     H15Y     HAL2     0.900000E-01   1.00800           0
      7217 MEMB     173      POPE     C316     CTL3    -0.270000       12.0110           0
      7218 MEMB     173      POPE     H16X     HAL3     0.900000E-01   1.00800           0
      7219 MEMB     173      POPE     H16Y     HAL3     0.900000E-01   1.00800           0
      7220 MEMB     173      POPE     H16Z     HAL3     0.900000E-01   1.00800           0
      7221 MEMB     174      POPE     N        NH3L    -0.300000       14.0070           0
      7222 MEMB     174      POPE     HN1      HCL      0.330000       1.00800           0
      7223 MEMB     174      POPE     HN2      HCL      0.330000       1.00800           0
      7224 MEMB     174      POPE     HN3      HCL      0.330000       1.00800           0
      7225 MEMB     174      POPE     C12      CTL2     0.130000       12.0110           0
      7226 MEMB     174      POPE     H12A     HAL2     0.900000E-01   1.00800           0
      7227 MEMB     174      POPE     H12B     HAL2     0.900000E-01   1.00800           0
      7228 MEMB     174      POPE     C11      CTL2    -0.800000E-01   12.0110           0
      7229 MEMB     174      POPE     H11A     HAL2     0.900000E-01   1.00800           0
      7230 MEMB     174      POPE     H11B     HAL2     0.900000E-01   1.00800           0
      7231 MEMB     174      POPE     P        PL       1.500000       30.9740           0
      7232 MEMB     174      POPE     O13      O2L     -0.780000       15.9994           0
      7233 MEMB     174      POPE     O14      O2L     -0.780000       15.9994           0
      7234 MEMB     174      POPE     O11      OSLP    -0.570000       15.9994           0
      7235 MEMB     174      POPE     O12      OSLP    -0.570000       15.9994           0
      7236 MEMB     174      POPE     C1       CTL2    -0.800000E-01   12.0110           0
      7237 MEMB     174      POPE     HA       HAL2     0.900000E-01   1.00800           0
      7238 MEMB     174      POPE     HB       HAL2     0.900000E-01   1.00800           0
      7239 MEMB     174      POPE     C2       CTL1     0.170000       12.0110           0
      7240 MEMB     174      POPE     HS       HAL1     0.900000E-01   1.00800           0
      7241 MEMB     174      POPE     O21      OSL     -0.490000       15.9994           0
      7242 MEMB     174      POPE     C21      CL       0.900000       12.0110           0
      7243 MEMB     174      POPE     O22      OBL     -0.630000       15.9994           0
      7244 MEMB     174      POPE     C22      CTL2    -0.220000       12.0110           0
      7245 MEMB     174      POPE     H2R      HAL2     0.900000E-01   1.00800           0
      7246 MEMB     174      POPE     H2S      HAL2     0.900000E-01   1.00800           0
      7247 MEMB     174      POPE     C3       CTL2     0.800000E-01   12.0110           0
      7248 MEMB     174      POPE     HX       HAL2     0.900000E-01   1.00800           0
      7249 MEMB     174      POPE     HY       HAL2     0.900000E-01   1.00800           0
      7250 MEMB     174      POPE     O31      OSL     -0.490000       15.9994           0
      7251 MEMB     174      POPE     C31      CL       0.900000       12.0110           0
      7252 MEMB     174      POPE     O32      OBL     -0.630000       15.9994           0
      7253 MEMB     174      POPE     C32      CTL2    -0.220000       12.0110           0
      7254 MEMB     174      POPE     H2X      HAL2     0.900000E-01   1.00800           0
      7255 MEMB     174      POPE     H2Y      HAL2     0.900000E-01   1.00800           0
      7256 MEMB     174      POPE     C23      CTL2    -0.180000       12.0110           0
      7257 MEMB     174      POPE     H3R      HAL2     0.900000E-01   1.00800           0
      7258 MEMB     174      POPE     H3S      HAL2     0.900000E-01   1.00800           0
      7259 MEMB     174      POPE     C24      CTL2    -0.180000       12.0110           0
      7260 MEMB     174      POPE     H4R      HAL2     0.900000E-01   1.00800           0
      7261 MEMB     174      POPE     H4S      HAL2     0.900000E-01   1.00800           0
      7262 MEMB     174      POPE     C25      CTL2    -0.180000       12.0110           0
      7263 MEMB     174      POPE     H5R      HAL2     0.900000E-01   1.00800           0
      7264 MEMB     174      POPE     H5S      HAL2     0.900000E-01   1.00800           0
      7265 MEMB     174      POPE     C26      CTL2    -0.180000       12.0110           0
      7266 MEMB     174      POPE     H6R      HAL2     0.900000E-01   1.00800           0
      7267 MEMB     174      POPE     H6S      HAL2     0.900000E-01   1.00800           0
      7268 MEMB     174      POPE     C27      CTL2    -0.180000       12.0110           0
      7269 MEMB     174      POPE     H7R      HAL2     0.900000E-01   1.00800           0
      7270 MEMB     174      POPE     H7S      HAL2     0.900000E-01   1.00800           0
      7271 MEMB     174      POPE     C28      CTL2    -0.180000       12.0110           0
      7272 MEMB     174      POPE     H8R      HAL2     0.900000E-01   1.00800           0
      7273 MEMB     174      POPE     H8S      HAL2     0.900000E-01   1.00800           0
      7274 MEMB     174      POPE     C29      CEL1    -0.150000       12.0110           0
      7275 MEMB     174      POPE     H91      HEL1     0.150000       1.00800           0
      7276 MEMB     174      POPE     C210     CEL1    -0.150000       12.0110           0
      7277 MEMB     174      POPE     H101     HEL1     0.150000       1.00800           0
      7278 MEMB     174      POPE     C211     CTL2    -0.180000       12.0110           0
      7279 MEMB     174      POPE     H11R     HAL2     0.900000E-01   1.00800           0
      7280 MEMB     174      POPE     H11S     HAL2     0.900000E-01   1.00800           0
      7281 MEMB     174      POPE     C212     CTL2    -0.180000       12.0110           0
      7282 MEMB     174      POPE     H12R     HAL2     0.900000E-01   1.00800           0
      7283 MEMB     174      POPE     H12S     HAL2     0.900000E-01   1.00800           0
      7284 MEMB     174      POPE     C213     CTL2    -0.180000       12.0110           0
      7285 MEMB     174      POPE     H13R     HAL2     0.900000E-01   1.00800           0
      7286 MEMB     174      POPE     H13S     HAL2     0.900000E-01   1.00800           0
      7287 MEMB     174      POPE     C214     CTL2    -0.180000       12.0110           0
      7288 MEMB     174      POPE     H14R     HAL2     0.900000E-01   1.00800           0
      7289 MEMB     174      POPE     H14S     HAL2     0.900000E-01   1.00800           0
      7290 MEMB     174      POPE     C215     CTL2    -0.180000       12.0110           0
      7291 MEMB     174      POPE     H15R     HAL2     0.900000E-01   1.00800           0
      7292 MEMB     174      POPE     H15S     HAL2     0.900000E-01   1.00800           0
      7293 MEMB     174      POPE     C216     CTL2    -0.180000       12.0110           0
      7294 MEMB     174      POPE     H16R     HAL2     0.900000E-01   1.00800           0
      7295 MEMB     174      POPE     H16S     HAL2     0.900000E-01   1.00800           0
      7296 MEMB     174      POPE     C217     CTL2    -0.180000       12.0110           0
      7297 MEMB     174      POPE     H17R     HAL2     0.900000E-01   1.00800           0
      7298 MEMB     174      POPE     H17S     HAL2     0.900000E-01   1.00800           0
      7299 MEMB     174      POPE     C218     CTL3    -0.270000       12.0110           0
      7300 MEMB     174      POPE     H18R     HAL3     0.900000E-01   1.00800           0
      7301 MEMB     174      POPE     H18S     HAL3     0.900000E-01   1.00800           0
      7302 MEMB     174      POPE     H18T     HAL3     0.900000E-01   1.00800           0
      7303 MEMB     174      POPE     C33      CTL2    -0.180000       12.0110           0
      7304 MEMB     174      POPE     H3X      HAL2     0.900000E-01   1.00800           0
      7305 MEMB     174      POPE     H3Y      HAL2     0.900000E-01   1.00800           0
      7306 MEMB     174      POPE     C34      CTL2    -0.180000       12.0110           0
      7307 MEMB     174      POPE     H4X      HAL2     0.900000E-01   1.00800           0
      7308 MEMB     174      POPE     H4Y      HAL2     0.900000E-01   1.00800           0
      7309 MEMB     174      POPE     C35      CTL2    -0.180000       12.0110           0
      7310 MEMB     174      POPE     H5X      HAL2     0.900000E-01   1.00800           0
      7311 MEMB     174      POPE     H5Y      HAL2     0.900000E-01   1.00800           0
      7312 MEMB     174      POPE     C36      CTL2    -0.180000       12.0110           0
      7313 MEMB     174      POPE     H6X      HAL2     0.900000E-01   1.00800           0
      7314 MEMB     174      POPE     H6Y      HAL2     0.900000E-01   1.00800           0
      7315 MEMB     174      POPE     C37      CTL2    -0.180000       12.0110           0
      7316 MEMB     174      POPE     H7X      HAL2     0.900000E-01   1.00800           0
      7317 MEMB     174      POPE     H7Y      HAL2     0.900000E-01   1.00800           0
      7318 MEMB     174      POPE     C38      CTL2    -0.180000       12.0110           0
      7319 MEMB     174      POPE     H8X      HAL2     0.900000E-01   1.00800           0
      7320 MEMB     174      POPE     H8Y      HAL2     0.900000E-01   1.00800           0
      7321 MEMB     174      POPE     C39      CTL2    -0.180000       12.0110           0
      7322 MEMB     174      POPE     H9X      HAL2     0.900000E-01   1.00800           0
      7323 MEMB     174      POPE     H9Y      HAL2     0.900000E-01   1.00800           0
      7324 MEMB     174      POPE     C310     CTL2    -0.180000       12.0110           0
      7325 MEMB     174      POPE     H10X     HAL2     0.900000E-01   1.00800           0
      7326 MEMB     174      POPE     H10Y     HAL2     0.900000E-01   1.00800           0
      7327 MEMB     174      POPE     C311     CTL2    -0.180000       12.0110           0
      7328 MEMB     174      POPE     H11X     HAL2     0.900000E-01   1.00800           0
      7329 MEMB     174      POPE     H11Y     HAL2     0.900000E-01   1.00800           0
      7330 MEMB     174      POPE     C312     CTL2    -0.180000       12.0110           0
      7331 MEMB     174      POPE     H12X     HAL2     0.900000E-01   1.00800           0
      7332 MEMB     174      POPE     H12Y     HAL2     0.900000E-01   1.00800           0
      7333 MEMB     174      POPE     C313     CTL2    -0.180000       12.0110           0
      7334 MEMB     174      POPE     H13X     HAL2     0.900000E-01   1.00800           0
      7335 MEMB     174      POPE     H13Y     HAL2     0.900000E-01   1.00800           0
      7336 MEMB     174      POPE     C314     CTL2    -0.180000       12.0110           0
      7337 MEMB     174      POPE     H14X     HAL2     0.900000E-01   1.00800           0
      7338 MEMB     174      POPE     H14Y     HAL2     0.900000E-01   1.00800           0
      7339 MEMB     174      POPE     C315     CTL2    -0.180000       12.0110           0
      7340 MEMB     174      POPE     H15X     HAL2     0.900000E-01   1.00800           0
      7341 MEMB     174      POPE     H15Y     HAL2     0.900000E-01   1.00800           0
      7342 MEMB     174      POPE     C316     CTL3    -0.270000       12.0110           0
      7343 MEMB     174      POPE     H16X     HAL3     0.900000E-01   1.00800           0
      7344 MEMB     174      POPE     H16Y     HAL3     0.900000E-01   1.00800           0
      7345 MEMB     174      POPE     H16Z     HAL3     0.900000E-01   1.00800           0
      7346 MEMB     176      POPE     N        NH3L    -0.300000       14.0070           0
      7347 MEMB     176      POPE     HN1      HCL      0.330000       1.00800           0
      7348 MEMB     176      POPE     HN2      HCL      0.330000       1.00800           0
      7349 MEMB     176      POPE     HN3      HCL      0.330000       1.00800           0
      7350 MEMB     176      POPE     C12      CTL2     0.130000       12.0110           0
      7351 MEMB     176      POPE     H12A     HAL2     0.900000E-01   1.00800           0
      7352 MEMB     176      POPE     H12B     HAL2     0.900000E-01   1.00800           0
      7353 MEMB     176      POPE     C11      CTL2    -0.800000E-01   12.0110           0
      7354 MEMB     176      POPE     H11A     HAL2     0.900000E-01   1.00800           0
      7355 MEMB     176      POPE     H11B     HAL2     0.900000E-01   1.00800           0
      7356 MEMB     176      POPE     P        PL       1.500000       30.9740           0
      7357 MEMB     176      POPE     O13      O2L     -0.780000       15.9994           0
      7358 MEMB     176      POPE     O14      O2L     -0.780000       15.9994           0
      7359 MEMB     176      POPE     O11      OSLP    -0.570000       15.9994           0
      7360 MEMB     176      POPE     O12      OSLP    -0.570000       15.9994           0
      7361 MEMB     176      POPE     C1       CTL2    -0.800000E-01   12.0110           0
      7362 MEMB     176      POPE     HA       HAL2     0.900000E-01   1.00800           0
      7363 MEMB     176      POPE     HB       HAL2     0.900000E-01   1.00800           0
      7364 MEMB     176      POPE     C2       CTL1     0.170000       12.0110           0
      7365 MEMB     176      POPE     HS       HAL1     0.900000E-01   1.00800           0
      7366 MEMB     176      POPE     O21      OSL     -0.490000       15.9994           0
      7367 MEMB     176      POPE     C21      CL       0.900000       12.0110           0
      7368 MEMB     176      POPE     O22      OBL     -0.630000       15.9994           0
      7369 MEMB     176      POPE     C22      CTL2    -0.220000       12.0110           0
      7370 MEMB     176      POPE     H2R      HAL2     0.900000E-01   1.00800           0
      7371 MEMB     176      POPE     H2S      HAL2     0.900000E-01   1.00800           0
      7372 MEMB     176      POPE     C3       CTL2     0.800000E-01   12.0110           0
      7373 MEMB     176      POPE     HX       HAL2     0.900000E-01   1.00800           0
      7374 MEMB     176      POPE     HY       HAL2     0.900000E-01   1.00800           0
      7375 MEMB     176      POPE     O31      OSL     -0.490000       15.9994           0
      7376 MEMB     176      POPE     C31      CL       0.900000       12.0110           0
      7377 MEMB     176      POPE     O32      OBL     -0.630000       15.9994           0
      7378 MEMB     176      POPE     C32      CTL2    -0.220000       12.0110           0
      7379 MEMB     176      POPE     H2X      HAL2     0.900000E-01   1.00800           0
      7380 MEMB     176      POPE     H2Y      HAL2     0.900000E-01   1.00800           0
      7381 MEMB     176      POPE     C23      CTL2    -0.180000       12.0110           0
      7382 MEMB     176      POPE     H3R      HAL2     0.900000E-01   1.00800           0
      7383 MEMB     176      POPE     H3S      HAL2     0.900000E-01   1.00800           0
      7384 MEMB     176      POPE     C24      CTL2    -0.180000       12.0110           0
      7385 MEMB     176      POPE     H4R      HAL2     0.900000E-01   1.00800           0
      7386 MEMB     176      POPE     H4S      HAL2     0.900000E-01   1.00800           0
      7387 MEMB     176      POPE     C25      CTL2    -0.180000       12.0110           0
      7388 MEMB     176      POPE     H5R      HAL2     0.900000E-01   1.00800           0
      7389 MEMB     176      POPE     H5S      HAL2     0.900000E-01   1.00800           0
      7390 MEMB     176      POPE     C26      CTL2    -0.180000       12.0110           0
      7391 MEMB     176      POPE     H6R      HAL2     0.900000E-01   1.00800           0
      7392 MEMB     176      POPE     H6S      HAL2     0.900000E-01   1.00800           0
      7393 MEMB     176      POPE     C27      CTL2    -0.180000       12.0110           0
      7394 MEMB     176      POPE     H7R      HAL2     0.900000E-01   1.00800           0
      7395 MEMB     176      POPE     H7S      HAL2     0.900000E-01   1.00800           0
      7396 MEMB     176      POPE     C28      CTL2    -0.180000       12.0110           0
      7397 MEMB     176      POPE     H8R      HAL2     0.900000E-01   1.00800           0
      7398 MEMB     176      POPE     H8S      HAL2     0.900000E-01   1.00800           0
      7399 MEMB     176      POPE     C29      CEL1    -0.150000       12.0110           0
      7400 MEMB     176      POPE     H91      HEL1     0.150000       1.00800           0
      7401 MEMB     176      POPE     C210     CEL1    -0.150000       12.0110           0
      7402 MEMB     176      POPE     H101     HEL1     0.150000       1.00800           0
      7403 MEMB     176      POPE     C211     CTL2    -0.180000       12.0110           0
      7404 MEMB     176      POPE     H11R     HAL2     0.900000E-01   1.00800           0
      7405 MEMB     176      POPE     H11S     HAL2     0.900000E-01   1.00800           0
      7406 MEMB     176      POPE     C212     CTL2    -0.180000       12.0110           0
      7407 MEMB     176      POPE     H12R     HAL2     0.900000E-01   1.00800           0
      7408 MEMB     176      POPE     H12S     HAL2     0.900000E-01   1.00800           0
      7409 MEMB     176      POPE     C213     CTL2    -0.180000       12.0110           0
      7410 MEMB     176      POPE     H13R     HAL2     0.900000E-01   1.00800           0
      7411 MEMB     176      POPE     H13S     HAL2     0.900000E-01   1.00800           0
      7412 MEMB     176      POPE     C214     CTL2    -0.180000       12.0110           0
      7413 MEMB     176      POPE     H14R     HAL2     0.900000E-01   1.00800           0
      7414 MEMB     176      POPE     H14S     HAL2     0.900000E-01   1.00800           0
      7415 MEMB     176      POPE     C215     CTL2    -0.180000       12.0110           0
      7416 MEMB     176      POPE     H15R     HAL2     0.900000E-01   1.00800           0
      7417 MEMB     176      POPE     H15S     HAL2     0.900000E-01   1.00800           0
      7418 MEMB     176      POPE     C216     CTL2    -0.180000       12.0110           0
      7419 MEMB     176      POPE     H16R     HAL2     0.900000E-01   1.00800           0
      7420 MEMB     176      POPE     H16S     HAL2     0.900000E-01   1.00800           0
      7421 MEMB     176      POPE     C217     CTL2    -0.180000       12.0110           0
      7422 MEMB     176      POPE     H17R     HAL2     0.900000E-01   1.00800           0
      7423 MEMB     176      POPE     H17S     HAL2     0.900000E-01   1.00800           0
      7424 MEMB     176      POPE     C218     CTL3    -0.270000       12.0110           0
      7425 MEMB     176      POPE     H18R     HAL3     0.900000E-01   1.00800           0
      7426 MEMB     176      POPE     H18S     HAL3     0.900000E-01   1.00800           0
      7427 MEMB     176      POPE     H18T     HAL3     0.900000E-01   1.00800           0
      7428 MEMB     176      POPE     C33      CTL2    -0.180000       12.0110           0
      7429 MEMB     176      POPE     H3X      HAL2     0.900000E-01   1.00800           0
      7430 MEMB     176      POPE     H3Y      HAL2     0.900000E-01   1.00800           0
      7431 MEMB     176      POPE     C34      CTL2    -0.180000       12.0110           0
      7432 MEMB     176      POPE     H4X      HAL2     0.900000E-01   1.00800           0
      7433 MEMB     176      POPE     H4Y      HAL2     0.900000E-01   1.00800           0
      7434 MEMB     176      POPE     C35      CTL2    -0.180000       12.0110           0
      7435 MEMB     176      POPE     H5X      HAL2     0.900000E-01   1.00800           0
      7436 MEMB     176      POPE     H5Y      HAL2     0.900000E-01   1.00800           0
      7437 MEMB     176      POPE     C36      CTL2    -0.180000       12.0110           0
      7438 MEMB     176      POPE     H6X      HAL2     0.900000E-01   1.00800           0
      7439 MEMB     176      POPE     H6Y      HAL2     0.900000E-01   1.00800           0
      7440 MEMB     176      POPE     C37      CTL2    -0.180000       12.0110           0
      7441 MEMB     176      POPE     H7X      HAL2     0.900000E-01   1.00800           0
      7442 MEMB     176      POPE     H7Y      HAL2     0.900000E-01   1.00800           0
      7443 MEMB     176      POPE     C38      CTL2    -0.180000       12.0110           0
      7444 MEMB     176      POPE     H8X      HAL2     0.900000E-01   1.00800           0
      7445 MEMB     176      POPE     H8Y      HAL2     0.900000E-01   1.00800           0
      7446 MEMB     176      POPE     C39      CTL2    -0.180000       12.0110           0
      7447 MEMB     176      POPE     H9X      HAL2     0.900000E-01   1.00800           0
      7448 MEMB     176      POPE     H9Y      HAL2     0.900000E-01   1.00800           0
      7449 MEMB     176      POPE     C310     CTL2    -0.180000       12.0110           0
      7450 MEMB     176      POPE     H10X     HAL2     0.900000E-01   1.00800           0
      7451 MEMB     176      POPE     H10Y     HAL2     0.900000E-01   1.00800           0
      7452 MEMB     176      POPE     C311     CTL2    -0.180000       12.0110           0
      7453 MEMB     176      POPE     H11X     HAL2     0.900000E-01   1.00800           0
      7454 MEMB     176      POPE     H11Y     HAL2     0.900000E-01   1.00800           0
      7455 MEMB     176      POPE     C312     CTL2    -0.180000       12.0110           0
      7456 MEMB     176      POPE     H12X     HAL2     0.900000E-01   1.00800           0
      7457 MEMB     176      POPE     H12Y     HAL2     0.900000E-01   1.00800           0
      7458 MEMB     176      POPE     C313     CTL2    -0.180000       12.0110           0
      7459 MEMB     176      POPE     H13X     HAL2     0.900000E-01   1.00800           0
      7460 MEMB     176      POPE     H13Y     HAL2     0.900000E-01   1.00800           0
      7461 MEMB     176      POPE     C314     CTL2    -0.180000       12.0110           0
      7462 MEMB     176      POPE     H14X     HAL2     0.900000E-01   1.00800           0
      7463 MEMB     176      POPE     H14Y     HAL2     0.900000E-01   1.00800           0
      7464 MEMB     176      POPE     C315     CTL2    -0.180000       12.0110           0
      7465 MEMB     176      POPE     H15X     HAL2     0.900000E-01   1.00800           0
      7466 MEMB     176      POPE     H15Y     HAL2     0.900000E-01   1.00800           0
      7467 MEMB     176      POPE     C316     CTL3    -0.270000       12.0110           0
      7468 MEMB     176      POPE     H16X     HAL3     0.900000E-01   1.00800           0
      7469 MEMB     176      POPE     H16Y     HAL3     0.900000E-01   1.00800           0
      7470 MEMB     176      POPE     H16Z     HAL3     0.900000E-01   1.00800           0
      7471 MEMB     178      POPE     N        NH3L    -0.300000       14.0070           0
      7472 MEMB     178      POPE     HN1      HCL      0.330000       1.00800           0
      7473 MEMB     178      POPE     HN2      HCL      0.330000       1.00800           0
      7474 MEMB     178      POPE     HN3      HCL      0.330000       1.00800           0
      7475 MEMB     178      POPE     C12      CTL2     0.130000       12.0110           0
      7476 MEMB     178      POPE     H12A     HAL2     0.900000E-01   1.00800           0
      7477 MEMB     178      POPE     H12B     HAL2     0.900000E-01   1.00800           0
      7478 MEMB     178      POPE     C11      CTL2    -0.800000E-01   12.0110           0
      7479 MEMB     178      POPE     H11A     HAL2     0.900000E-01   1.00800           0
      7480 MEMB     178      POPE     H11B     HAL2     0.900000E-01   1.00800           0
      7481 MEMB     178      POPE     P        PL       1.500000       30.9740           0
      7482 MEMB     178      POPE     O13      O2L     -0.780000       15.9994           0
      7483 MEMB     178      POPE     O14      O2L     -0.780000       15.9994           0
      7484 MEMB     178      POPE     O11      OSLP    -0.570000       15.9994           0
      7485 MEMB     178      POPE     O12      OSLP    -0.570000       15.9994           0
      7486 MEMB     178      POPE     C1       CTL2    -0.800000E-01   12.0110           0
      7487 MEMB     178      POPE     HA       HAL2     0.900000E-01   1.00800           0
      7488 MEMB     178      POPE     HB       HAL2     0.900000E-01   1.00800           0
      7489 MEMB     178      POPE     C2       CTL1     0.170000       12.0110           0
      7490 MEMB     178      POPE     HS       HAL1     0.900000E-01   1.00800           0
      7491 MEMB     178      POPE     O21      OSL     -0.490000       15.9994           0
      7492 MEMB     178      POPE     C21      CL       0.900000       12.0110           0
      7493 MEMB     178      POPE     O22      OBL     -0.630000       15.9994           0
      7494 MEMB     178      POPE     C22      CTL2    -0.220000       12.0110           0
      7495 MEMB     178      POPE     H2R      HAL2     0.900000E-01   1.00800           0
      7496 MEMB     178      POPE     H2S      HAL2     0.900000E-01   1.00800           0
      7497 MEMB     178      POPE     C3       CTL2     0.800000E-01   12.0110           0
      7498 MEMB     178      POPE     HX       HAL2     0.900000E-01   1.00800           0
      7499 MEMB     178      POPE     HY       HAL2     0.900000E-01   1.00800           0
      7500 MEMB     178      POPE     O31      OSL     -0.490000       15.9994           0
      7501 MEMB     178      POPE     C31      CL       0.900000       12.0110           0
      7502 MEMB     178      POPE     O32      OBL     -0.630000       15.9994           0
      7503 MEMB     178      POPE     C32      CTL2    -0.220000       12.0110           0
      7504 MEMB     178      POPE     H2X      HAL2     0.900000E-01   1.00800           0
      7505 MEMB     178      POPE     H2Y      HAL2     0.900000E-01   1.00800           0
      7506 MEMB     178      POPE     C23      CTL2    -0.180000       12.0110           0
      7507 MEMB     178      POPE     H3R      HAL2     0.900000E-01   1.00800           0
      7508 MEMB     178      POPE     H3S      HAL2     0.900000E-01   1.00800           0
      7509 MEMB     178      POPE     C24      CTL2    -0.180000       12.0110           0
      7510 MEMB     178      POPE     H4R      HAL2     0.900000E-01   1.00800           0
      7511 MEMB     178      POPE     H4S      HAL2     0.900000E-01   1.00800           0
      7512 MEMB     178      POPE     C25      CTL2    -0.180000       12.0110           0
      7513 MEMB     178      POPE     H5R      HAL2     0.900000E-01   1.00800           0
      7514 MEMB     178      POPE     H5S      HAL2     0.900000E-01   1.00800           0
      7515 MEMB     178      POPE     C26      CTL2    -0.180000       12.0110           0
      7516 MEMB     178      POPE     H6R      HAL2     0.900000E-01   1.00800           0
      7517 MEMB     178      POPE     H6S      HAL2     0.900000E-01   1.00800           0
      7518 MEMB     178      POPE     C27      CTL2    -0.180000       12.0110           0
      7519 MEMB     178      POPE     H7R      HAL2     0.900000E-01   1.00800           0
      7520 MEMB     178      POPE     H7S      HAL2     0.900000E-01   1.00800           0
      7521 MEMB     178      POPE     C28      CTL2    -0.180000       12.0110           0
      7522 MEMB     178      POPE     H8R      HAL2     0.900000E-01   1.00800           0
      7523 MEMB     178      POPE     H8S      HAL2     0.900000E-01   1.00800           0
      7524 MEMB     178      POPE     C29      CEL1    -0.150000       12.0110           0
      7525 MEMB     178      POPE     H91      HEL1     0.150000       1.00800           0
      7526 MEMB     178      POPE     C210     CEL1    -0.150000       12.0110           0
      7527 MEMB     178      POPE     H101     HEL1     0.150000       1.00800           0
      7528 MEMB     178      POPE     C211     CTL2    -0.180000       12.0110           0
      7529 MEMB     178      POPE     H11R     HAL2     0.900000E-01   1.00800           0
      7530 MEMB     178      POPE     H11S     HAL2     0.900000E-01   1.00800           0
      7531 MEMB     178      POPE     C212     CTL2    -0.180000       12.0110           0
      7532 MEMB     178      POPE     H12R     HAL2     0.900000E-01   1.00800           0
      7533 MEMB     178      POPE     H12S     HAL2     0.900000E-01   1.00800           0
      7534 MEMB     178      POPE     C213     CTL2    -0.180000       12.0110           0
      7535 MEMB     178      POPE     H13R     HAL2     0.900000E-01   1.00800           0
      7536 MEMB     178      POPE     H13S     HAL2     0.900000E-01   1.00800           0
      7537 MEMB     178      POPE     C214     CTL2    -0.180000       12.0110           0
      7538 MEMB     178      POPE     H14R     HAL2     0.900000E-01   1.00800           0
      7539 MEMB     178      POPE     H14S     HAL2     0.900000E-01   1.00800           0
      7540 MEMB     178      POPE     C215     CTL2    -0.180000       12.0110           0
      7541 MEMB     178      POPE     H15R     HAL2     0.900000E-01   1.00800           0
      7542 MEMB     178      POPE     H15S     HAL2     0.900000E-01   1.00800           0
      7543 MEMB     178      POPE     C216     CTL2    -0.180000       12.0110           0
      7544 MEMB     178      POPE     H16R     HAL2     0.900000E-01   1.00800           0
      7545 MEMB     178      POPE     H16S     HAL2     0.900000E-01   1.00800           0
      7546 MEMB     178      POPE     C217     CTL2    -0.180000       12.0110           0
      7547 MEMB     178      POPE     H17R     HAL2     0.900000E-01   1.00800           0
      7548 MEMB     178      POPE     H17S     HAL2     0.900000E-01   1.00800           0
      7549 MEMB     178      POPE     C218     CTL3    -0.270000       12.0110           0
      7550 MEMB     178      POPE     H18R     HAL3     0.900000E-01   1.00800           0
      7551 MEMB     178      POPE     H18S     HAL3     0.900000E-01   1.00800           0
      7552 MEMB     178      POPE     H18T     HAL3     0.900000E-01   1.00800           0
      7553 MEMB     178      POPE     C33      CTL2    -0.180000       12.0110           0
      7554 MEMB     178      POPE     H3X      HAL2     0.900000E-01   1.00800           0
      7555 MEMB     178      POPE     H3Y      HAL2     0.900000E-01   1.00800           0
      7556 MEMB     178      POPE     C34      CTL2    -0.180000       12.0110           0
      7557 MEMB     178      POPE     H4X      HAL2     0.900000E-01   1.00800           0
      7558 MEMB     178      POPE     H4Y      HAL2     0.900000E-01   1.00800           0
      7559 MEMB     178      POPE     C35      CTL2    -0.180000       12.0110           0
      7560 MEMB     178      POPE     H5X      HAL2     0.900000E-01   1.00800           0
      7561 MEMB     178      POPE     H5Y      HAL2     0.900000E-01   1.00800           0
      7562 MEMB     178      POPE     C36      CTL2    -0.180000       12.0110           0
      7563 MEMB     178      POPE     H6X      HAL2     0.900000E-01   1.00800           0
      7564 MEMB     178      POPE     H6Y      HAL2     0.900000E-01   1.00800           0
      7565 MEMB     178      POPE     C37      CTL2    -0.180000       12.0110           0
      7566 MEMB     178      POPE     H7X      HAL2     0.900000E-01   1.00800           0
      7567 MEMB     178      POPE     H7Y      HAL2     0.900000E-01   1.00800           0
      7568 MEMB     178      POPE     C38      CTL2    -0.180000       12.0110           0
      7569 MEMB     178      POPE     H8X      HAL2     0.900000E-01   1.00800           0
      7570 MEMB     178      POPE     H8Y      HAL2     0.900000E-01   1.00800           0
      7571 MEMB     178      POPE     C39      CTL2    -0.180000       12.0110           0
      7572 MEMB     178      POPE     H9X      HAL2     0.900000E-01   1.00800           0
      7573 MEMB     178      POPE     H9Y      HAL2     0.900000E-01   1.00800           0
      7574 MEMB     178      POPE     C310     CTL2    -0.180000       12.0110           0
      7575 MEMB     178      POPE     H10X     HAL2     0.900000E-01   1.00800           0
      7576 MEMB     178      POPE     H10Y     HAL2     0.900000E-01   1.00800           0
      7577 MEMB     178      POPE     C311     CTL2    -0.180000       12.0110           0
      7578 MEMB     178      POPE     H11X     HAL2     0.900000E-01   1.00800           0
      7579 MEMB     178      POPE     H11Y     HAL2     0.900000E-01   1.00800           0
      7580 MEMB     178      POPE     C312     CTL2    -0.180000       12.0110           0
      7581 MEMB     178      POPE     H12X     HAL2     0.900000E-01   1.00800           0
      7582 MEMB     178      POPE     H12Y     HAL2     0.900000E-01   1.00800           0
      7583 MEMB     178      POPE     C313     CTL2    -0.180000       12.0110           0
      7584 MEMB     178      POPE     H13X     HAL2     0.900000E-01   1.00800           0
      7585 MEMB     178      POPE     H13Y     HAL2     0.900000E-01   1.00800           0
      7586 MEMB     178      POPE     C314     CTL2    -0.180000       12.0110           0
      7587 MEMB     178      POPE     H14X     HAL2     0.900000E-01   1.00800           0
      7588 MEMB     178      POPE     H14Y     HAL2     0.900000E-01   1.00800           0
      7589 MEMB     178      POPE     C315     CTL2    -0.180000       12.0110           0
      7590 MEMB     178      POPE     H15X     HAL2     0.900000E-01   1.00800           0
      7591 MEMB     178      POPE     H15Y     HAL2     0.900000E-01   1.00800           0
      7592 MEMB     178      POPE     C316     CTL3    -0.270000       12.0110           0
      7593 MEMB     178      POPE     H16X     HAL3     0.900000E-01   1.00800           0
      7594 MEMB     178      POPE     H16Y     HAL3     0.900000E-01   1.00800           0
      7595 MEMB     178      POPE     H16Z     HAL3     0.900000E-01   1.00800           0
      7596 MEMB     180      POPE     N        NH3L    -0.300000       14.0070           0
      7597 MEMB     180      POPE     HN1      HCL      0.330000       1.00800           0
      7598 MEMB     180      POPE     HN2      HCL      0.330000       1.00800           0
      7599 MEMB     180      POPE     HN3      HCL      0.330000       1.00800           0
      7600 MEMB     180      POPE     C12      CTL2     0.130000       12.0110           0
      7601 MEMB     180      POPE     H12A     HAL2     0.900000E-01   1.00800           0
      7602 MEMB     180      POPE     H12B     HAL2     0.900000E-01   1.00800           0
      7603 MEMB     180      POPE     C11      CTL2    -0.800000E-01   12.0110           0
      7604 MEMB     180      POPE     H11A     HAL2     0.900000E-01   1.00800           0
      7605 MEMB     180      POPE     H11B     HAL2     0.900000E-01   1.00800           0
      7606 MEMB     180      POPE     P        PL       1.500000       30.9740           0
      7607 MEMB     180      POPE     O13      O2L     -0.780000       15.9994           0
      7608 MEMB     180      POPE     O14      O2L     -0.780000       15.9994           0
      7609 MEMB     180      POPE     O11      OSLP    -0.570000       15.9994           0
      7610 MEMB     180      POPE     O12      OSLP    -0.570000       15.9994           0
      7611 MEMB     180      POPE     C1       CTL2    -0.800000E-01   12.0110           0
      7612 MEMB     180      POPE     HA       HAL2     0.900000E-01   1.00800           0
      7613 MEMB     180      POPE     HB       HAL2     0.900000E-01   1.00800           0
      7614 MEMB     180      POPE     C2       CTL1     0.170000       12.0110           0
      7615 MEMB     180      POPE     HS       HAL1     0.900000E-01   1.00800           0
      7616 MEMB     180      POPE     O21      OSL     -0.490000       15.9994           0
      7617 MEMB     180      POPE     C21      CL       0.900000       12.0110           0
      7618 MEMB     180      POPE     O22      OBL     -0.630000       15.9994           0
      7619 MEMB     180      POPE     C22      CTL2    -0.220000       12.0110           0
      7620 MEMB     180      POPE     H2R      HAL2     0.900000E-01   1.00800           0
      7621 MEMB     180      POPE     H2S      HAL2     0.900000E-01   1.00800           0
      7622 MEMB     180      POPE     C3       CTL2     0.800000E-01   12.0110           0
      7623 MEMB     180      POPE     HX       HAL2     0.900000E-01   1.00800           0
      7624 MEMB     180      POPE     HY       HAL2     0.900000E-01   1.00800           0
      7625 MEMB     180      POPE     O31      OSL     -0.490000       15.9994           0
      7626 MEMB     180      POPE     C31      CL       0.900000       12.0110           0
      7627 MEMB     180      POPE     O32      OBL     -0.630000       15.9994           0
      7628 MEMB     180      POPE     C32      CTL2    -0.220000       12.0110           0
      7629 MEMB     180      POPE     H2X      HAL2     0.900000E-01   1.00800           0
      7630 MEMB     180      POPE     H2Y      HAL2     0.900000E-01   1.00800           0
      7631 MEMB     180      POPE     C23      CTL2    -0.180000       12.0110           0
      7632 MEMB     180      POPE     H3R      HAL2     0.900000E-01   1.00800           0
      7633 MEMB     180      POPE     H3S      HAL2     0.900000E-01   1.00800           0
      7634 MEMB     180      POPE     C24      CTL2    -0.180000       12.0110           0
      7635 MEMB     180      POPE     H4R      HAL2     0.900000E-01   1.00800           0
      7636 MEMB     180      POPE     H4S      HAL2     0.900000E-01   1.00800           0
      7637 MEMB     180      POPE     C25      CTL2    -0.180000       12.0110           0
      7638 MEMB     180      POPE     H5R      HAL2     0.900000E-01   1.00800           0
      7639 MEMB     180      POPE     H5S      HAL2     0.900000E-01   1.00800           0
      7640 MEMB     180      POPE     C26      CTL2    -0.180000       12.0110           0
      7641 MEMB     180      POPE     H6R      HAL2     0.900000E-01   1.00800           0
      7642 MEMB     180      POPE     H6S      HAL2     0.900000E-01   1.00800           0
      7643 MEMB     180      POPE     C27      CTL2    -0.180000       12.0110           0
      7644 MEMB     180      POPE     H7R      HAL2     0.900000E-01   1.00800           0
      7645 MEMB     180      POPE     H7S      HAL2     0.900000E-01   1.00800           0
      7646 MEMB     180      POPE     C28      CTL2    -0.180000       12.0110           0
      7647 MEMB     180      POPE     H8R      HAL2     0.900000E-01   1.00800           0
      7648 MEMB     180      POPE     H8S      HAL2     0.900000E-01   1.00800           0
      7649 MEMB     180      POPE     C29      CEL1    -0.150000       12.0110           0
      7650 MEMB     180      POPE     H91      HEL1     0.150000       1.00800           0
      7651 MEMB     180      POPE     C210     CEL1    -0.150000       12.0110           0
      7652 MEMB     180      POPE     H101     HEL1     0.150000       1.00800           0
      7653 MEMB     180      POPE     C211     CTL2    -0.180000       12.0110           0
      7654 MEMB     180      POPE     H11R     HAL2     0.900000E-01   1.00800           0
      7655 MEMB     180      POPE     H11S     HAL2     0.900000E-01   1.00800           0
      7656 MEMB     180      POPE     C212     CTL2    -0.180000       12.0110           0
      7657 MEMB     180      POPE     H12R     HAL2     0.900000E-01   1.00800           0
      7658 MEMB     180      POPE     H12S     HAL2     0.900000E-01   1.00800           0
      7659 MEMB     180      POPE     C213     CTL2    -0.180000       12.0110           0
      7660 MEMB     180      POPE     H13R     HAL2     0.900000E-01   1.00800           0
      7661 MEMB     180      POPE     H13S     HAL2     0.900000E-01   1.00800           0
      7662 MEMB     180      POPE     C214     CTL2    -0.180000       12.0110           0
      7663 MEMB     180      POPE     H14R     HAL2     0.900000E-01   1.00800           0
      7664 MEMB     180      POPE     H14S     HAL2     0.900000E-01   1.00800           0
      7665 MEMB     180      POPE     C215     CTL2    -0.180000       12.0110           0
      7666 MEMB     180      POPE     H15R     HAL2     0.900000E-01   1.00800           0
      7667 MEMB     180      POPE     H15S     HAL2     0.900000E-01   1.00800           0
      7668 MEMB     180      POPE     C216     CTL2    -0.180000       12.0110           0
      7669 MEMB     180      POPE     H16R     HAL2     0.900000E-01   1.00800           0
      7670 MEMB     180      POPE     H16S     HAL2     0.900000E-01   1.00800           0
      7671 MEMB     180      POPE     C217     CTL2    -0.180000       12.0110           0
      7672 MEMB     180      POPE     H17R     HAL2     0.900000E-01   1.00800           0
      7673 MEMB     180      POPE     H17S     HAL2     0.900000E-01   1.00800           0
      7674 MEMB     180      POPE     C218     CTL3    -0.270000       12.0110           0
      7675 MEMB     180      POPE     H18R     HAL3     0.900000E-01   1.00800           0
      7676 MEMB     180      POPE     H18S     HAL3     0.900000E-01   1.00800           0
      7677 MEMB     180      POPE     H18T     HAL3     0.900000E-01   1.00800           0
      7678 MEMB     180      POPE     C33      CTL2    -0.180000       12.0110           0
      7679 MEMB     180      POPE     H3X      HAL2     0.900000E-01   1.00800           0
      7680 MEMB     180      POPE     H3Y      HAL2     0.900000E-01   1.00800           0
      7681 MEMB     180      POPE     C34      CTL2    -0.180000       12.0110           0
      7682 MEMB     180      POPE     H4X      HAL2     0.900000E-01   1.00800           0
      7683 MEMB     180      POPE     H4Y      HAL2     0.900000E-01   1.00800           0
      7684 MEMB     180      POPE     C35      CTL2    -0.180000       12.0110           0
      7685 MEMB     180      POPE     H5X      HAL2     0.900000E-01   1.00800           0
      7686 MEMB     180      POPE     H5Y      HAL2     0.900000E-01   1.00800           0
      7687 MEMB     180      POPE     C36      CTL2    -0.180000       12.0110           0
      7688 MEMB     180      POPE     H6X      HAL2     0.900000E-01   1.00800           0
      7689 MEMB     180      POPE     H6Y      HAL2     0.900000E-01   1.00800           0
      7690 MEMB     180      POPE     C37      CTL2    -0.180000       12.0110           0
      7691 MEMB     180      POPE     H7X      HAL2     0.900000E-01   1.00800           0
      7692 MEMB     180      POPE     H7Y      HAL2     0.900000E-01   1.00800           0
      7693 MEMB     180      POPE     C38      CTL2    -0.180000       12.0110           0
      7694 MEMB     180      POPE     H8X      HAL2     0.900000E-01   1.00800           0
      7695 MEMB     180      POPE     H8Y      HAL2     0.900000E-01   1.00800           0
      7696 MEMB     180      POPE     C39      CTL2    -0.180000       12.0110           0
      7697 MEMB     180      POPE     H9X      HAL2     0.900000E-01   1.00800           0
      7698 MEMB     180      POPE     H9Y      HAL2     0.900000E-01   1.00800           0
      7699 MEMB     180      POPE     C310     CTL2    -0.180000       12.0110           0
      7700 MEMB     180      POPE     H10X     HAL2     0.900000E-01   1.00800           0
      7701 MEMB     180      POPE     H10Y     HAL2     0.900000E-01   1.00800           0
      7702 MEMB     180      POPE     C311     CTL2    -0.180000       12.0110           0
      7703 MEMB     180      POPE     H11X     HAL2     0.900000E-01   1.00800           0
      7704 MEMB     180      POPE     H11Y     HAL2     0.900000E-01   1.00800           0
      7705 MEMB     180      POPE     C312     CTL2    -0.180000       12.0110           0
      7706 MEMB     180      POPE     H12X     HAL2     0.900000E-01   1.00800           0
      7707 MEMB     180      POPE     H12Y     HAL2     0.900000E-01   1.00800           0
      7708 MEMB     180      POPE     C313     CTL2    -0.180000       12.0110           0
      7709 MEMB     180      POPE     H13X     HAL2     0.900000E-01   1.00800           0
      7710 MEMB     180      POPE     H13Y     HAL2     0.900000E-01   1.00800           0
      7711 MEMB     180      POPE     C314     CTL2    -0.180000       12.0110           0
      7712 MEMB     180      POPE     H14X     HAL2     0.900000E-01   1.00800           0
      7713 MEMB     180      POPE     H14Y     HAL2     0.900000E-01   1.00800           0
      7714 MEMB     180      POPE     C315     CTL2    -0.180000       12.0110           0
      7715 MEMB     180      POPE     H15X     HAL2     0.900000E-01   1.00800           0
      7716 MEMB     180      POPE     H15Y     HAL2     0.900000E-01   1.00800           0
      7717 MEMB     180      POPE     C316     CTL3    -0.270000       12.0110           0
      7718 MEMB     180      POPE     H16X     HAL3     0.900000E-01   1.00800           0
      7719 MEMB     180      POPE     H16Y     HAL3     0.900000E-01   1.00800           0
      7720 MEMB     180      POPE     H16Z     HAL3     0.900000E-01   1.00800           0
      7721 MEMB     183      POPE     N        NH3L    -0.300000       14.0070           0
      7722 MEMB     183      POPE     HN1      HCL      0.330000       1.00800           0
      7723 MEMB     183      POPE     HN2      HCL      0.330000       1.00800           0
      7724 MEMB     183      POPE     HN3      HCL      0.330000       1.00800           0
      7725 MEMB     183      POPE     C12      CTL2     0.130000       12.0110           0
      7726 MEMB     183      POPE     H12A     HAL2     0.900000E-01   1.00800           0
      7727 MEMB     183      POPE     H12B     HAL2     0.900000E-01   1.00800           0
      7728 MEMB     183      POPE     C11      CTL2    -0.800000E-01   12.0110           0
      7729 MEMB     183      POPE     H11A     HAL2     0.900000E-01   1.00800           0
      7730 MEMB     183      POPE     H11B     HAL2     0.900000E-01   1.00800           0
      7731 MEMB     183      POPE     P        PL       1.500000       30.9740           0
      7732 MEMB     183      POPE     O13      O2L     -0.780000       15.9994           0
      7733 MEMB     183      POPE     O14      O2L     -0.780000       15.9994           0
      7734 MEMB     183      POPE     O11      OSLP    -0.570000       15.9994           0
      7735 MEMB     183      POPE     O12      OSLP    -0.570000       15.9994           0
      7736 MEMB     183      POPE     C1       CTL2    -0.800000E-01   12.0110           0
      7737 MEMB     183      POPE     HA       HAL2     0.900000E-01   1.00800           0
      7738 MEMB     183      POPE     HB       HAL2     0.900000E-01   1.00800           0
      7739 MEMB     183      POPE     C2       CTL1     0.170000       12.0110           0
      7740 MEMB     183      POPE     HS       HAL1     0.900000E-01   1.00800           0
      7741 MEMB     183      POPE     O21      OSL     -0.490000       15.9994           0
      7742 MEMB     183      POPE     C21      CL       0.900000       12.0110           0
      7743 MEMB     183      POPE     O22      OBL     -0.630000       15.9994           0
      7744 MEMB     183      POPE     C22      CTL2    -0.220000       12.0110           0
      7745 MEMB     183      POPE     H2R      HAL2     0.900000E-01   1.00800           0
      7746 MEMB     183      POPE     H2S      HAL2     0.900000E-01   1.00800           0
      7747 MEMB     183      POPE     C3       CTL2     0.800000E-01   12.0110           0
      7748 MEMB     183      POPE     HX       HAL2     0.900000E-01   1.00800           0
      7749 MEMB     183      POPE     HY       HAL2     0.900000E-01   1.00800           0
      7750 MEMB     183      POPE     O31      OSL     -0.490000       15.9994           0
      7751 MEMB     183      POPE     C31      CL       0.900000       12.0110           0
      7752 MEMB     183      POPE     O32      OBL     -0.630000       15.9994           0
      7753 MEMB     183      POPE     C32      CTL2    -0.220000       12.0110           0
      7754 MEMB     183      POPE     H2X      HAL2     0.900000E-01   1.00800           0
      7755 MEMB     183      POPE     H2Y      HAL2     0.900000E-01   1.00800           0
      7756 MEMB     183      POPE     C23      CTL2    -0.180000       12.0110           0
      7757 MEMB     183      POPE     H3R      HAL2     0.900000E-01   1.00800           0
      7758 MEMB     183      POPE     H3S      HAL2     0.900000E-01   1.00800           0
      7759 MEMB     183      POPE     C24      CTL2    -0.180000       12.0110           0
      7760 MEMB     183      POPE     H4R      HAL2     0.900000E-01   1.00800           0
      7761 MEMB     183      POPE     H4S      HAL2     0.900000E-01   1.00800           0
      7762 MEMB     183      POPE     C25      CTL2    -0.180000       12.0110           0
      7763 MEMB     183      POPE     H5R      HAL2     0.900000E-01   1.00800           0
      7764 MEMB     183      POPE     H5S      HAL2     0.900000E-01   1.00800           0
      7765 MEMB     183      POPE     C26      CTL2    -0.180000       12.0110           0
      7766 MEMB     183      POPE     H6R      HAL2     0.900000E-01   1.00800           0
      7767 MEMB     183      POPE     H6S      HAL2     0.900000E-01   1.00800           0
      7768 MEMB     183      POPE     C27      CTL2    -0.180000       12.0110           0
      7769 MEMB     183      POPE     H7R      HAL2     0.900000E-01   1.00800           0
      7770 MEMB     183      POPE     H7S      HAL2     0.900000E-01   1.00800           0
      7771 MEMB     183      POPE     C28      CTL2    -0.180000       12.0110           0
      7772 MEMB     183      POPE     H8R      HAL2     0.900000E-01   1.00800           0
      7773 MEMB     183      POPE     H8S      HAL2     0.900000E-01   1.00800           0
      7774 MEMB     183      POPE     C29      CEL1    -0.150000       12.0110           0
      7775 MEMB     183      POPE     H91      HEL1     0.150000       1.00800           0
      7776 MEMB     183      POPE     C210     CEL1    -0.150000       12.0110           0
      7777 MEMB     183      POPE     H101     HEL1     0.150000       1.00800           0
      7778 MEMB     183      POPE     C211     CTL2    -0.180000       12.0110           0
      7779 MEMB     183      POPE     H11R     HAL2     0.900000E-01   1.00800           0
      7780 MEMB     183      POPE     H11S     HAL2     0.900000E-01   1.00800           0
      7781 MEMB     183      POPE     C212     CTL2    -0.180000       12.0110           0
      7782 MEMB     183      POPE     H12R     HAL2     0.900000E-01   1.00800           0
      7783 MEMB     183      POPE     H12S     HAL2     0.900000E-01   1.00800           0
      7784 MEMB     183      POPE     C213     CTL2    -0.180000       12.0110           0
      7785 MEMB     183      POPE     H13R     HAL2     0.900000E-01   1.00800           0
      7786 MEMB     183      POPE     H13S     HAL2     0.900000E-01   1.00800           0
      7787 MEMB     183      POPE     C214     CTL2    -0.180000       12.0110           0
      7788 MEMB     183      POPE     H14R     HAL2     0.900000E-01   1.00800           0
      7789 MEMB     183      POPE     H14S     HAL2     0.900000E-01   1.00800           0
      7790 MEMB     183      POPE     C215     CTL2    -0.180000       12.0110           0
      7791 MEMB     183      POPE     H15R     HAL2     0.900000E-01   1.00800           0
      7792 MEMB     183      POPE     H15S     HAL2     0.900000E-01   1.00800           0
      7793 MEMB     183      POPE     C216     CTL2    -0.180000       12.0110           0
      7794 MEMB     183      POPE     H16R     HAL2     0.900000E-01   1.00800           0
      7795 MEMB     183      POPE     H16S     HAL2     0.900000E-01   1.00800           0
      7796 MEMB     183      POPE     C217     CTL2    -0.180000       12.0110           0
      7797 MEMB     183      POPE     H17R     HAL2     0.900000E-01   1.00800           0
      7798 MEMB     183      POPE     H17S     HAL2     0.900000E-01   1.00800           0
      7799 MEMB     183      POPE     C218     CTL3    -0.270000       12.0110           0
      7800 MEMB     183      POPE     H18R     HAL3     0.900000E-01   1.00800           0
      7801 MEMB     183      POPE     H18S     HAL3     0.900000E-01   1.00800           0
      7802 MEMB     183      POPE     H18T     HAL3     0.900000E-01   1.00800           0
      7803 MEMB     183      POPE     C33      CTL2    -0.180000       12.0110           0
      7804 MEMB     183      POPE     H3X      HAL2     0.900000E-01   1.00800           0
      7805 MEMB     183      POPE     H3Y      HAL2     0.900000E-01   1.00800           0
      7806 MEMB     183      POPE     C34      CTL2    -0.180000       12.0110           0
      7807 MEMB     183      POPE     H4X      HAL2     0.900000E-01   1.00800           0
      7808 MEMB     183      POPE     H4Y      HAL2     0.900000E-01   1.00800           0
      7809 MEMB     183      POPE     C35      CTL2    -0.180000       12.0110           0
      7810 MEMB     183      POPE     H5X      HAL2     0.900000E-01   1.00800           0
      7811 MEMB     183      POPE     H5Y      HAL2     0.900000E-01   1.00800           0
      7812 MEMB     183      POPE     C36      CTL2    -0.180000       12.0110           0
      7813 MEMB     183      POPE     H6X      HAL2     0.900000E-01   1.00800           0
      7814 MEMB     183      POPE     H6Y      HAL2     0.900000E-01   1.00800           0
      7815 MEMB     183      POPE     C37      CTL2    -0.180000       12.0110           0
      7816 MEMB     183      POPE     H7X      HAL2     0.900000E-01   1.00800           0
      7817 MEMB     183      POPE     H7Y      HAL2     0.900000E-01   1.00800           0
      7818 MEMB     183      POPE     C38      CTL2    -0.180000       12.0110           0
      7819 MEMB     183      POPE     H8X      HAL2     0.900000E-01   1.00800           0
      7820 MEMB     183      POPE     H8Y      HAL2     0.900000E-01   1.00800           0
      7821 MEMB     183      POPE     C39      CTL2    -0.180000       12.0110           0
      7822 MEMB     183      POPE     H9X      HAL2     0.900000E-01   1.00800           0
      7823 MEMB     183      POPE     H9Y      HAL2     0.900000E-01   1.00800           0
      7824 MEMB     183      POPE     C310     CTL2    -0.180000       12.0110           0
      7825 MEMB     183      POPE     H10X     HAL2     0.900000E-01   1.00800           0
      7826 MEMB     183      POPE     H10Y     HAL2     0.900000E-01   1.00800           0
      7827 MEMB     183      POPE     C311     CTL2    -0.180000       12.0110           0
      7828 MEMB     183      POPE     H11X     HAL2     0.900000E-01   1.00800           0
      7829 MEMB     183      POPE     H11Y     HAL2     0.900000E-01   1.00800           0
      7830 MEMB     183      POPE     C312     CTL2    -0.180000       12.0110           0
      7831 MEMB     183      POPE     H12X     HAL2     0.900000E-01   1.00800           0
      7832 MEMB     183      POPE     H12Y     HAL2     0.900000E-01   1.00800           0
      7833 MEMB     183      POPE     C313     CTL2    -0.180000       12.0110           0
      7834 MEMB     183      POPE     H13X     HAL2     0.900000E-01   1.00800           0
      7835 MEMB     183      POPE     H13Y     HAL2     0.900000E-01   1.00800           0
      7836 MEMB     183      POPE     C314     CTL2    -0.180000       12.0110           0
      7837 MEMB     183      POPE     H14X     HAL2     0.900000E-01   1.00800           0
      7838 MEMB     183      POPE     H14Y     HAL2     0.900000E-01   1.00800           0
      7839 MEMB     183      POPE     C315     CTL2    -0.180000       12.0110           0
      7840 MEMB     183      POPE     H15X     HAL2     0.900000E-01   1.00800           0
      7841 MEMB     183      POPE     H15Y     HAL2     0.900000E-01   1.00800           0
      7842 MEMB     183      POPE     C316     CTL3    -0.270000       12.0110           0
      7843 MEMB     183      POPE     H16X     HAL3     0.900000E-01   1.00800           0
      7844 MEMB     183      POPE     H16Y     HAL3     0.900000E-01   1.00800           0
      7845 MEMB     183      POPE     H16Z     HAL3     0.900000E-01   1.00800           0
      7846 MEMB     187      POPE     N        NH3L    -0.300000       14.0070           0
      7847 MEMB     187      POPE     HN1      HCL      0.330000       1.00800           0
      7848 MEMB     187      POPE     HN2      HCL      0.330000       1.00800           0
      7849 MEMB     187      POPE     HN3      HCL      0.330000       1.00800           0
      7850 MEMB     187      POPE     C12      CTL2     0.130000       12.0110           0
      7851 MEMB     187      POPE     H12A     HAL2     0.900000E-01   1.00800           0
      7852 MEMB     187      POPE     H12B     HAL2     0.900000E-01   1.00800           0
      7853 MEMB     187      POPE     C11      CTL2    -0.800000E-01   12.0110           0
      7854 MEMB     187      POPE     H11A     HAL2     0.900000E-01   1.00800           0
      7855 MEMB     187      POPE     H11B     HAL2     0.900000E-01   1.00800           0
      7856 MEMB     187      POPE     P        PL       1.500000       30.9740           0
      7857 MEMB     187      POPE     O13      O2L     -0.780000       15.9994           0
      7858 MEMB     187      POPE     O14      O2L     -0.780000       15.9994           0
      7859 MEMB     187      POPE     O11      OSLP    -0.570000       15.9994           0
      7860 MEMB     187      POPE     O12      OSLP    -0.570000       15.9994           0
      7861 MEMB     187      POPE     C1       CTL2    -0.800000E-01   12.0110           0
      7862 MEMB     187      POPE     HA       HAL2     0.900000E-01   1.00800           0
      7863 MEMB     187      POPE     HB       HAL2     0.900000E-01   1.00800           0
      7864 MEMB     187      POPE     C2       CTL1     0.170000       12.0110           0
      7865 MEMB     187      POPE     HS       HAL1     0.900000E-01   1.00800           0
      7866 MEMB     187      POPE     O21      OSL     -0.490000       15.9994           0
      7867 MEMB     187      POPE     C21      CL       0.900000       12.0110           0
      7868 MEMB     187      POPE     O22      OBL     -0.630000       15.9994           0
      7869 MEMB     187      POPE     C22      CTL2    -0.220000       12.0110           0
      7870 MEMB     187      POPE     H2R      HAL2     0.900000E-01   1.00800           0
      7871 MEMB     187      POPE     H2S      HAL2     0.900000E-01   1.00800           0
      7872 MEMB     187      POPE     C3       CTL2     0.800000E-01   12.0110           0
      7873 MEMB     187      POPE     HX       HAL2     0.900000E-01   1.00800           0
      7874 MEMB     187      POPE     HY       HAL2     0.900000E-01   1.00800           0
      7875 MEMB     187      POPE     O31      OSL     -0.490000       15.9994           0
      7876 MEMB     187      POPE     C31      CL       0.900000       12.0110           0
      7877 MEMB     187      POPE     O32      OBL     -0.630000       15.9994           0
      7878 MEMB     187      POPE     C32      CTL2    -0.220000       12.0110           0
      7879 MEMB     187      POPE     H2X      HAL2     0.900000E-01   1.00800           0
      7880 MEMB     187      POPE     H2Y      HAL2     0.900000E-01   1.00800           0
      7881 MEMB     187      POPE     C23      CTL2    -0.180000       12.0110           0
      7882 MEMB     187      POPE     H3R      HAL2     0.900000E-01   1.00800           0
      7883 MEMB     187      POPE     H3S      HAL2     0.900000E-01   1.00800           0
      7884 MEMB     187      POPE     C24      CTL2    -0.180000       12.0110           0
      7885 MEMB     187      POPE     H4R      HAL2     0.900000E-01   1.00800           0
      7886 MEMB     187      POPE     H4S      HAL2     0.900000E-01   1.00800           0
      7887 MEMB     187      POPE     C25      CTL2    -0.180000       12.0110           0
      7888 MEMB     187      POPE     H5R      HAL2     0.900000E-01   1.00800           0
      7889 MEMB     187      POPE     H5S      HAL2     0.900000E-01   1.00800           0
      7890 MEMB     187      POPE     C26      CTL2    -0.180000       12.0110           0
      7891 MEMB     187      POPE     H6R      HAL2     0.900000E-01   1.00800           0
      7892 MEMB     187      POPE     H6S      HAL2     0.900000E-01   1.00800           0
      7893 MEMB     187      POPE     C27      CTL2    -0.180000       12.0110           0
      7894 MEMB     187      POPE     H7R      HAL2     0.900000E-01   1.00800           0
      7895 MEMB     187      POPE     H7S      HAL2     0.900000E-01   1.00800           0
      7896 MEMB     187      POPE     C28      CTL2    -0.180000       12.0110           0
      7897 MEMB     187      POPE     H8R      HAL2     0.900000E-01   1.00800           0
      7898 MEMB     187      POPE     H8S      HAL2     0.900000E-01   1.00800           0
      7899 MEMB     187      POPE     C29      CEL1    -0.150000       12.0110           0
      7900 MEMB     187      POPE     H91      HEL1     0.150000       1.00800           0
      7901 MEMB     187      POPE     C210     CEL1    -0.150000       12.0110           0
      7902 MEMB     187      POPE     H101     HEL1     0.150000       1.00800           0
      7903 MEMB     187      POPE     C211     CTL2    -0.180000       12.0110           0
      7904 MEMB     187      POPE     H11R     HAL2     0.900000E-01   1.00800           0
      7905 MEMB     187      POPE     H11S     HAL2     0.900000E-01   1.00800           0
      7906 MEMB     187      POPE     C212     CTL2    -0.180000       12.0110           0
      7907 MEMB     187      POPE     H12R     HAL2     0.900000E-01   1.00800           0
      7908 MEMB     187      POPE     H12S     HAL2     0.900000E-01   1.00800           0
      7909 MEMB     187      POPE     C213     CTL2    -0.180000       12.0110           0
      7910 MEMB     187      POPE     H13R     HAL2     0.900000E-01   1.00800           0
      7911 MEMB     187      POPE     H13S     HAL2     0.900000E-01   1.00800           0
      7912 MEMB     187      POPE     C214     CTL2    -0.180000       12.0110           0
      7913 MEMB     187      POPE     H14R     HAL2     0.900000E-01   1.00800           0
      7914 MEMB     187      POPE     H14S     HAL2     0.900000E-01   1.00800           0
      7915 MEMB     187      POPE     C215     CTL2    -0.180000       12.0110           0
      7916 MEMB     187      POPE     H15R     HAL2     0.900000E-01   1.00800           0
      7917 MEMB     187      POPE     H15S     HAL2     0.900000E-01   1.00800           0
      7918 MEMB     187      POPE     C216     CTL2    -0.180000       12.0110           0
      7919 MEMB     187      POPE     H16R     HAL2     0.900000E-01   1.00800           0
      7920 MEMB     187      POPE     H16S     HAL2     0.900000E-01   1.00800           0
      7921 MEMB     187      POPE     C217     CTL2    -0.180000       12.0110           0
      7922 MEMB     187      POPE     H17R     HAL2     0.900000E-01   1.00800           0
      7923 MEMB     187      POPE     H17S     HAL2     0.900000E-01   1.00800           0
      7924 MEMB     187      POPE     C218     CTL3    -0.270000       12.0110           0
      7925 MEMB     187      POPE     H18R     HAL3     0.900000E-01   1.00800           0
      7926 MEMB     187      POPE     H18S     HAL3     0.900000E-01   1.00800           0
      7927 MEMB     187      POPE     H18T     HAL3     0.900000E-01   1.00800           0
      7928 MEMB     187      POPE     C33      CTL2    -0.180000       12.0110           0
      7929 MEMB     187      POPE     H3X      HAL2     0.900000E-01   1.00800           0
      7930 MEMB     187      POPE     H3Y      HAL2     0.900000E-01   1.00800           0
      7931 MEMB     187      POPE     C34      CTL2    -0.180000       12.0110           0
      7932 MEMB     187      POPE     H4X      HAL2     0.900000E-01   1.00800           0
      7933 MEMB     187      POPE     H4Y      HAL2     0.900000E-01   1.00800           0
      7934 MEMB     187      POPE     C35      CTL2    -0.180000       12.0110           0
      7935 MEMB     187      POPE     H5X      HAL2     0.900000E-01   1.00800           0
      7936 MEMB     187      POPE     H5Y      HAL2     0.900000E-01   1.00800           0
      7937 MEMB     187      POPE     C36      CTL2    -0.180000       12.0110           0
      7938 MEMB     187      POPE     H6X      HAL2     0.900000E-01   1.00800           0
      7939 MEMB     187      POPE     H6Y      HAL2     0.900000E-01   1.00800           0
      7940 MEMB     187      POPE     C37      CTL2    -0.180000       12.0110           0
      7941 MEMB     187      POPE     H7X      HAL2     0.900000E-01   1.00800           0
      7942 MEMB     187      POPE     H7Y      HAL2     0.900000E-01   1.00800           0
      7943 MEMB     187      POPE     C38      CTL2    -0.180000       12.0110           0
      7944 MEMB     187      POPE     H8X      HAL2     0.900000E-01   1.00800           0
      7945 MEMB     187      POPE     H8Y      HAL2     0.900000E-01   1.00800           0
      7946 MEMB     187      POPE     C39      CTL2    -0.180000       12.0110           0
      7947 MEMB     187      POPE     H9X      HAL2     0.900000E-01   1.00800           0
      7948 MEMB     187      POPE     H9Y      HAL2     0.900000E-01   1.00800           0
      7949 MEMB     187      POPE     C310     CTL2    -0.180000       12.0110           0
      7950 MEMB     187      POPE     H10X     HAL2     0.900000E-01   1.00800           0
      7951 MEMB     187      POPE     H10Y     HAL2     0.900000E-01   1.00800           0
      7952 MEMB     187      POPE     C311     CTL2    -0.180000       12.0110           0
      7953 MEMB     187      POPE     H11X     HAL2     0.900000E-01   1.00800           0
      7954 MEMB     187      POPE     H11Y     HAL2     0.900000E-01   1.00800           0
      7955 MEMB     187      POPE     C312     CTL2    -0.180000       12.0110           0
      7956 MEMB     187      POPE     H12X     HAL2     0.900000E-01   1.00800           0
      7957 MEMB     187      POPE     H12Y     HAL2     0.900000E-01   1.00800           0
      7958 MEMB     187      POPE     C313     CTL2    -0.180000       12.0110           0
      7959 MEMB     187      POPE     H13X     HAL2     0.900000E-01   1.00800           0
      7960 MEMB     187      POPE     H13Y     HAL2     0.900000E-01   1.00800           0
      7961 MEMB     187      POPE     C314     CTL2    -0.180000       12.0110           0
      7962 MEMB     187      POPE     H14X     HAL2     0.900000E-01   1.00800           0
      7963 MEMB     187      POPE     H14Y     HAL2     0.900000E-01   1.00800           0
      7964 MEMB     187      POPE     C315     CTL2    -0.180000       12.0110           0
      7965 MEMB     187      POPE     H15X     HAL2     0.900000E-01   1.00800           0
      7966 MEMB     187      POPE     H15Y     HAL2     0.900000E-01   1.00800           0
      7967 MEMB     187      POPE     C316     CTL3    -0.270000       12.0110           0
      7968 MEMB     187      POPE     H16X     HAL3     0.900000E-01   1.00800           0
      7969 MEMB     187      POPE     H16Y     HAL3     0.900000E-01   1.00800           0
      7970 MEMB     187      POPE     H16Z     HAL3     0.900000E-01   1.00800           0
      7971 MEMB     189      POPE     N        NH3L    -0.300000       14.0070           0
      7972 MEMB     189      POPE     HN1      HCL      0.330000       1.00800           0
      7973 MEMB     189      POPE     HN2      HCL      0.330000       1.00800           0
      7974 MEMB     189      POPE     HN3      HCL      0.330000       1.00800           0
      7975 MEMB     189      POPE     C12      CTL2     0.130000       12.0110           0
      7976 MEMB     189      POPE     H12A     HAL2     0.900000E-01   1.00800           0
      7977 MEMB     189      POPE     H12B     HAL2     0.900000E-01   1.00800           0
      7978 MEMB     189      POPE     C11      CTL2    -0.800000E-01   12.0110           0
      7979 MEMB     189      POPE     H11A     HAL2     0.900000E-01   1.00800           0
      7980 MEMB     189      POPE     H11B     HAL2     0.900000E-01   1.00800           0
      7981 MEMB     189      POPE     P        PL       1.500000       30.9740           0
      7982 MEMB     189      POPE     O13      O2L     -0.780000       15.9994           0
      7983 MEMB     189      POPE     O14      O2L     -0.780000       15.9994           0
      7984 MEMB     189      POPE     O11      OSLP    -0.570000       15.9994           0
      7985 MEMB     189      POPE     O12      OSLP    -0.570000       15.9994           0
      7986 MEMB     189      POPE     C1       CTL2    -0.800000E-01   12.0110           0
      7987 MEMB     189      POPE     HA       HAL2     0.900000E-01   1.00800           0
      7988 MEMB     189      POPE     HB       HAL2     0.900000E-01   1.00800           0
      7989 MEMB     189      POPE     C2       CTL1     0.170000       12.0110           0
      7990 MEMB     189      POPE     HS       HAL1     0.900000E-01   1.00800           0
      7991 MEMB     189      POPE     O21      OSL     -0.490000       15.9994           0
      7992 MEMB     189      POPE     C21      CL       0.900000       12.0110           0
      7993 MEMB     189      POPE     O22      OBL     -0.630000       15.9994           0
      7994 MEMB     189      POPE     C22      CTL2    -0.220000       12.0110           0
      7995 MEMB     189      POPE     H2R      HAL2     0.900000E-01   1.00800           0
      7996 MEMB     189      POPE     H2S      HAL2     0.900000E-01   1.00800           0
      7997 MEMB     189      POPE     C3       CTL2     0.800000E-01   12.0110           0
      7998 MEMB     189      POPE     HX       HAL2     0.900000E-01   1.00800           0
      7999 MEMB     189      POPE     HY       HAL2     0.900000E-01   1.00800           0
      8000 MEMB     189      POPE     O31      OSL     -0.490000       15.9994           0
      8001 MEMB     189      POPE     C31      CL       0.900000       12.0110           0
      8002 MEMB     189      POPE     O32      OBL     -0.630000       15.9994           0
      8003 MEMB     189      POPE     C32      CTL2    -0.220000       12.0110           0
      8004 MEMB     189      POPE     H2X      HAL2     0.900000E-01   1.00800           0
      8005 MEMB     189      POPE     H2Y      HAL2     0.900000E-01   1.00800           0
      8006 MEMB     189      POPE     C23      CTL2    -0.180000       12.0110           0
      8007 MEMB     189      POPE     H3R      HAL2     0.900000E-01   1.00800           0
      8008 MEMB     189      POPE     H3S      HAL2     0.900000E-01   1.00800           0
      8009 MEMB     189      POPE     C24      CTL2    -0.180000       12.0110           0
      8010 MEMB     189      POPE     H4R      HAL2     0.900000E-01   1.00800           0
      8011 MEMB     189      POPE     H4S      HAL2     0.900000E-01   1.00800           0
      8012 MEMB     189      POPE     C25      CTL2    -0.180000       12.0110           0
      8013 MEMB     189      POPE     H5R      HAL2     0.900000E-01   1.00800           0
      8014 MEMB     189      POPE     H5S      HAL2     0.900000E-01   1.00800           0
      8015 MEMB     189      POPE     C26      CTL2    -0.180000       12.0110           0
      8016 MEMB     189      POPE     H6R      HAL2     0.900000E-01   1.00800           0
      8017 MEMB     189      POPE     H6S      HAL2     0.900000E-01   1.00800           0
      8018 MEMB     189      POPE     C27      CTL2    -0.180000       12.0110           0
      8019 MEMB     189      POPE     H7R      HAL2     0.900000E-01   1.00800           0
      8020 MEMB     189      POPE     H7S      HAL2     0.900000E-01   1.00800           0
      8021 MEMB     189      POPE     C28      CTL2    -0.180000       12.0110           0
      8022 MEMB     189      POPE     H8R      HAL2     0.900000E-01   1.00800           0
      8023 MEMB     189      POPE     H8S      HAL2     0.900000E-01   1.00800           0
      8024 MEMB     189      POPE     C29      CEL1    -0.150000       12.0110           0
      8025 MEMB     189      POPE     H91      HEL1     0.150000       1.00800           0
      8026 MEMB     189      POPE     C210     CEL1    -0.150000       12.0110           0
      8027 MEMB     189      POPE     H101     HEL1     0.150000       1.00800           0
      8028 MEMB     189      POPE     C211     CTL2    -0.180000       12.0110           0
      8029 MEMB     189      POPE     H11R     HAL2     0.900000E-01   1.00800           0
      8030 MEMB     189      POPE     H11S     HAL2     0.900000E-01   1.00800           0
      8031 MEMB     189      POPE     C212     CTL2    -0.180000       12.0110           0
      8032 MEMB     189      POPE     H12R     HAL2     0.900000E-01   1.00800           0
      8033 MEMB     189      POPE     H12S     HAL2     0.900000E-01   1.00800           0
      8034 MEMB     189      POPE     C213     CTL2    -0.180000       12.0110           0
      8035 MEMB     189      POPE     H13R     HAL2     0.900000E-01   1.00800           0
      8036 MEMB     189      POPE     H13S     HAL2     0.900000E-01   1.00800           0
      8037 MEMB     189      POPE     C214     CTL2    -0.180000       12.0110           0
      8038 MEMB     189      POPE     H14R     HAL2     0.900000E-01   1.00800           0
      8039 MEMB     189      POPE     H14S     HAL2     0.900000E-01   1.00800           0
      8040 MEMB     189      POPE     C215     CTL2    -0.180000       12.0110           0
      8041 MEMB     189      POPE     H15R     HAL2     0.900000E-01   1.00800           0
      8042 MEMB     189      POPE     H15S     HAL2     0.900000E-01   1.00800           0
      8043 MEMB     189      POPE     C216     CTL2    -0.180000       12.0110           0
      8044 MEMB     189      POPE     H16R     HAL2     0.900000E-01   1.00800           0
      8045 MEMB     189      POPE     H16S     HAL2     0.900000E-01   1.00800           0
      8046 MEMB     189      POPE     C217     CTL2    -0.180000       12.0110           0
      8047 MEMB     189      POPE     H17R     HAL2     0.900000E-01   1.00800           0
      8048 MEMB     189      POPE     H17S     HAL2     0.900000E-01   1.00800           0
      8049 MEMB     189      POPE     C218     CTL3    -0.270000       12.0110           0
      8050 MEMB     189      POPE     H18R     HAL3     0.900000E-01   1.00800           0
      8051 MEMB     189      POPE     H18S     HAL3     0.900000E-01   1.00800           0
      8052 MEMB     189      POPE     H18T     HAL3     0.900000E-01   1.00800           0
      8053 MEMB     189      POPE     C33      CTL2    -0.180000       12.0110           0
      8054 MEMB     189      POPE     H3X      HAL2     0.900000E-01   1.00800           0
      8055 MEMB     189      POPE     H3Y      HAL2     0.900000E-01   1.00800           0
      8056 MEMB     189      POPE     C34      CTL2    -0.180000       12.0110           0
      8057 MEMB     189      POPE     H4X      HAL2     0.900000E-01   1.00800           0
      8058 MEMB     189      POPE     H4Y      HAL2     0.900000E-01   1.00800           0
      8059 MEMB     189      POPE     C35      CTL2    -0.180000       12.0110           0
      8060 MEMB     189      POPE     H5X      HAL2     0.900000E-01   1.00800           0
      8061 MEMB     189      POPE     H5Y      HAL2     0.900000E-01   1.00800           0
      8062 MEMB     189      POPE     C36      CTL2    -0.180000       12.0110           0
      8063 MEMB     189      POPE     H6X      HAL2     0.900000E-01   1.00800           0
      8064 MEMB     189      POPE     H6Y      HAL2     0.900000E-01   1.00800           0
      8065 MEMB     189      POPE     C37      CTL2    -0.180000       12.0110           0
      8066 MEMB     189      POPE     H7X      HAL2     0.900000E-01   1.00800           0
      8067 MEMB     189      POPE     H7Y      HAL2     0.900000E-01   1.00800           0
      8068 MEMB     189      POPE     C38      CTL2    -0.180000       12.0110           0
      8069 MEMB     189      POPE     H8X      HAL2     0.900000E-01   1.00800           0
      8070 MEMB     189      POPE     H8Y      HAL2     0.900000E-01   1.00800           0
      8071 MEMB     189      POPE     C39      CTL2    -0.180000       12.0110           0
      8072 MEMB     189      POPE     H9X      HAL2     0.900000E-01   1.00800           0
      8073 MEMB     189      POPE     H9Y      HAL2     0.900000E-01   1.00800           0
      8074 MEMB     189      POPE     C310     CTL2    -0.180000       12.0110           0
      8075 MEMB     189      POPE     H10X     HAL2     0.900000E-01   1.00800           0
      8076 MEMB     189      POPE     H10Y     HAL2     0.900000E-01   1.00800           0
      8077 MEMB     189      POPE     C311     CTL2    -0.180000       12.0110           0
      8078 MEMB     189      POPE     H11X     HAL2     0.900000E-01   1.00800           0
      8079 MEMB     189      POPE     H11Y     HAL2     0.900000E-01   1.00800           0
      8080 MEMB     189      POPE     C312     CTL2    -0.180000       12.0110           0
      8081 MEMB     189      POPE     H12X     HAL2     0.900000E-01   1.00800           0
      8082 MEMB     189      POPE     H12Y     HAL2     0.900000E-01   1.00800           0
      8083 MEMB     189      POPE     C313     CTL2    -0.180000       12.0110           0
      8084 MEMB     189      POPE     H13X     HAL2     0.900000E-01   1.00800           0
      8085 MEMB     189      POPE     H13Y     HAL2     0.900000E-01   1.00800           0
      8086 MEMB     189      POPE     C314     CTL2    -0.180000       12.0110           0
      8087 MEMB     189      POPE     H14X     HAL2     0.900000E-01   1.00800           0
      8088 MEMB     189      POPE     H14Y     HAL2     0.900000E-01   1.00800           0
      8089 MEMB     189      POPE     C315     CTL2    -0.180000       12.0110           0
      8090 MEMB     189      POPE     H15X     HAL2     0.900000E-01   1.00800           0
      8091 MEMB     189      POPE     H15Y     HAL2     0.900000E-01   1.00800           0
      8092 MEMB     189      POPE     C316     CTL3    -0.270000       12.0110           0
      8093 MEMB     189      POPE     H16X     HAL3     0.900000E-01   1.00800           0
      8094 MEMB     189      POPE     H16Y     HAL3     0.900000E-01   1.00800           0
      8095 MEMB     189      POPE     H16Z     HAL3     0.900000E-01   1.00800           0
      8096 MEMB     191      POPE     N        NH3L    -0.300000       14.0070           0
      8097 MEMB     191      POPE     HN1      HCL      0.330000       1.00800           0
      8098 MEMB     191      POPE     HN2      HCL      0.330000       1.00800           0
      8099 MEMB     191      POPE     HN3      HCL      0.330000       1.00800           0
      8100 MEMB     191      POPE     C12      CTL2     0.130000       12.0110           0
      8101 MEMB     191      POPE     H12A     HAL2     0.900000E-01   1.00800           0
      8102 MEMB     191      POPE     H12B     HAL2     0.900000E-01   1.00800           0
      8103 MEMB     191      POPE     C11      CTL2    -0.800000E-01   12.0110           0
      8104 MEMB     191      POPE     H11A     HAL2     0.900000E-01   1.00800           0
      8105 MEMB     191      POPE     H11B     HAL2     0.900000E-01   1.00800           0
      8106 MEMB     191      POPE     P        PL       1.500000       30.9740           0
      8107 MEMB     191      POPE     O13      O2L     -0.780000       15.9994           0
      8108 MEMB     191      POPE     O14      O2L     -0.780000       15.9994           0
      8109 MEMB     191      POPE     O11      OSLP    -0.570000       15.9994           0
      8110 MEMB     191      POPE     O12      OSLP    -0.570000       15.9994           0
      8111 MEMB     191      POPE     C1       CTL2    -0.800000E-01   12.0110           0
      8112 MEMB     191      POPE     HA       HAL2     0.900000E-01   1.00800           0
      8113 MEMB     191      POPE     HB       HAL2     0.900000E-01   1.00800           0
      8114 MEMB     191      POPE     C2       CTL1     0.170000       12.0110           0
      8115 MEMB     191      POPE     HS       HAL1     0.900000E-01   1.00800           0
      8116 MEMB     191      POPE     O21      OSL     -0.490000       15.9994           0
      8117 MEMB     191      POPE     C21      CL       0.900000       12.0110           0
      8118 MEMB     191      POPE     O22      OBL     -0.630000       15.9994           0
      8119 MEMB     191      POPE     C22      CTL2    -0.220000       12.0110           0
      8120 MEMB     191      POPE     H2R      HAL2     0.900000E-01   1.00800           0
      8121 MEMB     191      POPE     H2S      HAL2     0.900000E-01   1.00800           0
      8122 MEMB     191      POPE     C3       CTL2     0.800000E-01   12.0110           0
      8123 MEMB     191      POPE     HX       HAL2     0.900000E-01   1.00800           0
      8124 MEMB     191      POPE     HY       HAL2     0.900000E-01   1.00800           0
      8125 MEMB     191      POPE     O31      OSL     -0.490000       15.9994           0
      8126 MEMB     191      POPE     C31      CL       0.900000       12.0110           0
      8127 MEMB     191      POPE     O32      OBL     -0.630000       15.9994           0
      8128 MEMB     191      POPE     C32      CTL2    -0.220000       12.0110           0
      8129 MEMB     191      POPE     H2X      HAL2     0.900000E-01   1.00800           0
      8130 MEMB     191      POPE     H2Y      HAL2     0.900000E-01   1.00800           0
      8131 MEMB     191      POPE     C23      CTL2    -0.180000       12.0110           0
      8132 MEMB     191      POPE     H3R      HAL2     0.900000E-01   1.00800           0
      8133 MEMB     191      POPE     H3S      HAL2     0.900000E-01   1.00800           0
      8134 MEMB     191      POPE     C24      CTL2    -0.180000       12.0110           0
      8135 MEMB     191      POPE     H4R      HAL2     0.900000E-01   1.00800           0
      8136 MEMB     191      POPE     H4S      HAL2     0.900000E-01   1.00800           0
      8137 MEMB     191      POPE     C25      CTL2    -0.180000       12.0110           0
      8138 MEMB     191      POPE     H5R      HAL2     0.900000E-01   1.00800           0
      8139 MEMB     191      POPE     H5S      HAL2     0.900000E-01   1.00800           0
      8140 MEMB     191      POPE     C26      CTL2    -0.180000       12.0110           0
      8141 MEMB     191      POPE     H6R      HAL2     0.900000E-01   1.00800           0
      8142 MEMB     191      POPE     H6S      HAL2     0.900000E-01   1.00800           0
      8143 MEMB     191      POPE     C27      CTL2    -0.180000       12.0110           0
      8144 MEMB     191      POPE     H7R      HAL2     0.900000E-01   1.00800           0
      8145 MEMB     191      POPE     H7S      HAL2     0.900000E-01   1.00800           0
      8146 MEMB     191      POPE     C28      CTL2    -0.180000       12.0110           0
      8147 MEMB     191      POPE     H8R      HAL2     0.900000E-01   1.00800           0
      8148 MEMB     191      POPE     H8S      HAL2     0.900000E-01   1.00800           0
      8149 MEMB     191      POPE     C29      CEL1    -0.150000       12.0110           0
      8150 MEMB     191      POPE     H91      HEL1     0.150000       1.00800           0
      8151 MEMB     191      POPE     C210     CEL1    -0.150000       12.0110           0
      8152 MEMB     191      POPE     H101     HEL1     0.150000       1.00800           0
      8153 MEMB     191      POPE     C211     CTL2    -0.180000       12.0110           0
      8154 MEMB     191      POPE     H11R     HAL2     0.900000E-01   1.00800           0
      8155 MEMB     191      POPE     H11S     HAL2     0.900000E-01   1.00800           0
      8156 MEMB     191      POPE     C212     CTL2    -0.180000       12.0110           0
      8157 MEMB     191      POPE     H12R     HAL2     0.900000E-01   1.00800           0
      8158 MEMB     191      POPE     H12S     HAL2     0.900000E-01   1.00800           0
      8159 MEMB     191      POPE     C213     CTL2    -0.180000       12.0110           0
      8160 MEMB     191      POPE     H13R     HAL2     0.900000E-01   1.00800           0
      8161 MEMB     191      POPE     H13S     HAL2     0.900000E-01   1.00800           0
      8162 MEMB     191      POPE     C214     CTL2    -0.180000       12.0110           0
      8163 MEMB     191      POPE     H14R     HAL2     0.900000E-01   1.00800           0
      8164 MEMB     191      POPE     H14S     HAL2     0.900000E-01   1.00800           0
      8165 MEMB     191      POPE     C215     CTL2    -0.180000       12.0110           0
      8166 MEMB     191      POPE     H15R     HAL2     0.900000E-01   1.00800           0
      8167 MEMB     191      POPE     H15S     HAL2     0.900000E-01   1.00800           0
      8168 MEMB     191      POPE     C216     CTL2    -0.180000       12.0110           0
      8169 MEMB     191      POPE     H16R     HAL2     0.900000E-01   1.00800           0
      8170 MEMB     191      POPE     H16S     HAL2     0.900000E-01   1.00800           0
      8171 MEMB     191      POPE     C217     CTL2    -0.180000       12.0110           0
      8172 MEMB     191      POPE     H17R     HAL2     0.900000E-01   1.00800           0
      8173 MEMB     191      POPE     H17S     HAL2     0.900000E-01   1.00800           0
      8174 MEMB     191      POPE     C218     CTL3    -0.270000       12.0110           0
      8175 MEMB     191      POPE     H18R     HAL3     0.900000E-01   1.00800           0
      8176 MEMB     191      POPE     H18S     HAL3     0.900000E-01   1.00800           0
      8177 MEMB     191      POPE     H18T     HAL3     0.900000E-01   1.00800           0
      8178 MEMB     191      POPE     C33      CTL2    -0.180000       12.0110           0
      8179 MEMB     191      POPE     H3X      HAL2     0.900000E-01   1.00800           0
      8180 MEMB     191      POPE     H3Y      HAL2     0.900000E-01   1.00800           0
      8181 MEMB     191      POPE     C34      CTL2    -0.180000       12.0110           0
      8182 MEMB     191      POPE     H4X      HAL2     0.900000E-01   1.00800           0
      8183 MEMB     191      POPE     H4Y      HAL2     0.900000E-01   1.00800           0
      8184 MEMB     191      POPE     C35      CTL2    -0.180000       12.0110           0
      8185 MEMB     191      POPE     H5X      HAL2     0.900000E-01   1.00800           0
      8186 MEMB     191      POPE     H5Y      HAL2     0.900000E-01   1.00800           0
      8187 MEMB     191      POPE     C36      CTL2    -0.180000       12.0110           0
      8188 MEMB     191      POPE     H6X      HAL2     0.900000E-01   1.00800           0
      8189 MEMB     191      POPE     H6Y      HAL2     0.900000E-01   1.00800           0
      8190 MEMB     191      POPE     C37      CTL2    -0.180000       12.0110           0
      8191 MEMB     191      POPE     H7X      HAL2     0.900000E-01   1.00800           0
      8192 MEMB     191      POPE     H7Y      HAL2     0.900000E-01   1.00800           0
      8193 MEMB     191      POPE     C38      CTL2    -0.180000       12.0110           0
      8194 MEMB     191      POPE     H8X      HAL2     0.900000E-01   1.00800           0
      8195 MEMB     191      POPE     H8Y      HAL2     0.900000E-01   1.00800           0
      8196 MEMB     191      POPE     C39      CTL2    -0.180000       12.0110           0
      8197 MEMB     191      POPE     H9X      HAL2     0.900000E-01   1.00800           0
      8198 MEMB     191      POPE     H9Y      HAL2     0.900000E-01   1.00800           0
      8199 MEMB     191      POPE     C310     CTL2    -0.180000       12.0110           0
      8200 MEMB     191      POPE     H10X     HAL2     0.900000E-01   1.00800           0
      8201 MEMB     191      POPE     H10Y     HAL2     0.900000E-01   1.00800           0
      8202 MEMB     191      POPE     C311     CTL2    -0.180000       12.0110           0
      8203 MEMB     191      POPE     H11X     HAL2     0.900000E-01   1.00800           0
      8204 MEMB     191      POPE     H11Y     HAL2     0.900000E-01   1.00800           0
      8205 MEMB     191      POPE     C312     CTL2    -0.180000       12.0110           0
      8206 MEMB     191      POPE     H12X     HAL2     0.900000E-01   1.00800           0
      8207 MEMB     191      POPE     H12Y     HAL2     0.900000E-01   1.00800           0
      8208 MEMB     191      POPE     C313     CTL2    -0.180000       12.0110           0
      8209 MEMB     191      POPE     H13X     HAL2     0.900000E-01   1.00800           0
      8210 MEMB     191      POPE     H13Y     HAL2     0.900000E-01   1.00800           0
      8211 MEMB     191      POPE     C314     CTL2    -0.180000       12.0110           0
      8212 MEMB     191      POPE     H14X     HAL2     0.900000E-01   1.00800           0
      8213 MEMB     191      POPE     H14Y     HAL2     0.900000E-01   1.00800           0
      8214 MEMB     191      POPE     C315     CTL2    -0.180000       12.0110           0
      8215 MEMB     191      POPE     H15X     HAL2     0.900000E-01   1.00800           0
      8216 MEMB     191      POPE     H15Y     HAL2     0.900000E-01   1.00800           0
      8217 MEMB     191      POPE     C316     CTL3    -0.270000       12.0110           0
      8218 MEMB     191      POPE     H16X     HAL3     0.900000E-01   1.00800           0
      8219 MEMB     191      POPE     H16Y     HAL3     0.900000E-01   1.00800           0
      8220 MEMB     191      POPE     H16Z     HAL3     0.900000E-01   1.00800           0
      8221 MEMB     193      POPE     N        NH3L    -0.300000       14.0070           0
      8222 MEMB     193      POPE     HN1      HCL      0.330000       1.00800           0
      8223 MEMB     193      POPE     HN2      HCL      0.330000       1.00800           0
      8224 MEMB     193      POPE     HN3      HCL      0.330000       1.00800           0
      8225 MEMB     193      POPE     C12      CTL2     0.130000       12.0110           0
      8226 MEMB     193      POPE     H12A     HAL2     0.900000E-01   1.00800           0
      8227 MEMB     193      POPE     H12B     HAL2     0.900000E-01   1.00800           0
      8228 MEMB     193      POPE     C11      CTL2    -0.800000E-01   12.0110           0
      8229 MEMB     193      POPE     H11A     HAL2     0.900000E-01   1.00800           0
      8230 MEMB     193      POPE     H11B     HAL2     0.900000E-01   1.00800           0
      8231 MEMB     193      POPE     P        PL       1.500000       30.9740           0
      8232 MEMB     193      POPE     O13      O2L     -0.780000       15.9994           0
      8233 MEMB     193      POPE     O14      O2L     -0.780000       15.9994           0
      8234 MEMB     193      POPE     O11      OSLP    -0.570000       15.9994           0
      8235 MEMB     193      POPE     O12      OSLP    -0.570000       15.9994           0
      8236 MEMB     193      POPE     C1       CTL2    -0.800000E-01   12.0110           0
      8237 MEMB     193      POPE     HA       HAL2     0.900000E-01   1.00800           0
      8238 MEMB     193      POPE     HB       HAL2     0.900000E-01   1.00800           0
      8239 MEMB     193      POPE     C2       CTL1     0.170000       12.0110           0
      8240 MEMB     193      POPE     HS       HAL1     0.900000E-01   1.00800           0
      8241 MEMB     193      POPE     O21      OSL     -0.490000       15.9994           0
      8242 MEMB     193      POPE     C21      CL       0.900000       12.0110           0
      8243 MEMB     193      POPE     O22      OBL     -0.630000       15.9994           0
      8244 MEMB     193      POPE     C22      CTL2    -0.220000       12.0110           0
      8245 MEMB     193      POPE     H2R      HAL2     0.900000E-01   1.00800           0
      8246 MEMB     193      POPE     H2S      HAL2     0.900000E-01   1.00800           0
      8247 MEMB     193      POPE     C3       CTL2     0.800000E-01   12.0110           0
      8248 MEMB     193      POPE     HX       HAL2     0.900000E-01   1.00800           0
      8249 MEMB     193      POPE     HY       HAL2     0.900000E-01   1.00800           0
      8250 MEMB     193      POPE     O31      OSL     -0.490000       15.9994           0
      8251 MEMB     193      POPE     C31      CL       0.900000       12.0110           0
      8252 MEMB     193      POPE     O32      OBL     -0.630000       15.9994           0
      8253 MEMB     193      POPE     C32      CTL2    -0.220000       12.0110           0
      8254 MEMB     193      POPE     H2X      HAL2     0.900000E-01   1.00800           0
      8255 MEMB     193      POPE     H2Y      HAL2     0.900000E-01   1.00800           0
      8256 MEMB     193      POPE     C23      CTL2    -0.180000       12.0110           0
      8257 MEMB     193      POPE     H3R      HAL2     0.900000E-01   1.00800           0
      8258 MEMB     193      POPE     H3S      HAL2     0.900000E-01   1.00800           0
      8259 MEMB     193      POPE     C24      CTL2    -0.180000       12.0110           0
      8260 MEMB     193      POPE     H4R      HAL2     0.900000E-01   1.00800           0
      8261 MEMB     193      POPE     H4S      HAL2     0.900000E-01   1.00800           0
      8262 MEMB     193      POPE     C25      CTL2    -0.180000       12.0110           0
      8263 MEMB     193      POPE     H5R      HAL2     0.900000E-01   1.00800           0
      8264 MEMB     193      POPE     H5S      HAL2     0.900000E-01   1.00800           0
      8265 MEMB     193      POPE     C26      CTL2    -0.180000       12.0110           0
      8266 MEMB     193      POPE     H6R      HAL2     0.900000E-01   1.00800           0
      8267 MEMB     193      POPE     H6S      HAL2     0.900000E-01   1.00800           0
      8268 MEMB     193      POPE     C27      CTL2    -0.180000       12.0110           0
      8269 MEMB     193      POPE     H7R      HAL2     0.900000E-01   1.00800           0
      8270 MEMB     193      POPE     H7S      HAL2     0.900000E-01   1.00800           0
      8271 MEMB     193      POPE     C28      CTL2    -0.180000       12.0110           0
      8272 MEMB     193      POPE     H8R      HAL2     0.900000E-01   1.00800           0
      8273 MEMB     193      POPE     H8S      HAL2     0.900000E-01   1.00800           0
      8274 MEMB     193      POPE     C29      CEL1    -0.150000       12.0110           0
      8275 MEMB     193      POPE     H91      HEL1     0.150000       1.00800           0
      8276 MEMB     193      POPE     C210     CEL1    -0.150000       12.0110           0
      8277 MEMB     193      POPE     H101     HEL1     0.150000       1.00800           0
      8278 MEMB     193      POPE     C211     CTL2    -0.180000       12.0110           0
      8279 MEMB     193      POPE     H11R     HAL2     0.900000E-01   1.00800           0
      8280 MEMB     193      POPE     H11S     HAL2     0.900000E-01   1.00800           0
      8281 MEMB     193      POPE     C212     CTL2    -0.180000       12.0110           0
      8282 MEMB     193      POPE     H12R     HAL2     0.900000E-01   1.00800           0
      8283 MEMB     193      POPE     H12S     HAL2     0.900000E-01   1.00800           0
      8284 MEMB     193      POPE     C213     CTL2    -0.180000       12.0110           0
      8285 MEMB     193      POPE     H13R     HAL2     0.900000E-01   1.00800           0
      8286 MEMB     193      POPE     H13S     HAL2     0.900000E-01   1.00800           0
      8287 MEMB     193      POPE     C214     CTL2    -0.180000       12.0110           0
      8288 MEMB     193      POPE     H14R     HAL2     0.900000E-01   1.00800           0
      8289 MEMB     193      POPE     H14S     HAL2     0.900000E-01   1.00800           0
      8290 MEMB     193      POPE     C215     CTL2    -0.180000       12.0110           0
      8291 MEMB     193      POPE     H15R     HAL2     0.900000E-01   1.00800           0
      8292 MEMB     193      POPE     H15S     HAL2     0.900000E-01   1.00800           0
      8293 MEMB     193      POPE     C216     CTL2    -0.180000       12.0110           0
      8294 MEMB     193      POPE     H16R     HAL2     0.900000E-01   1.00800           0
      8295 MEMB     193      POPE     H16S     HAL2     0.900000E-01   1.00800           0
      8296 MEMB     193      POPE     C217     CTL2    -0.180000       12.0110           0
      8297 MEMB     193      POPE     H17R     HAL2     0.900000E-01   1.00800           0
      8298 MEMB     193      POPE     H17S     HAL2     0.900000E-01   1.00800           0
      8299 MEMB     193      POPE     C218     CTL3    -0.270000       12.0110           0
      8300 MEMB     193      POPE     H18R     HAL3     0.900000E-01   1.00800           0
      8301 MEMB     193      POPE     H18S     HAL3     0.900000E-01   1.00800           0
      8302 MEMB     193      POPE     H18T     HAL3     0.900000E-01   1.00800           0
      8303 MEMB     193      POPE     C33      CTL2    -0.180000       12.0110           0
      8304 MEMB     193      POPE     H3X      HAL2     0.900000E-01   1.00800           0
      8305 MEMB     193      POPE     H3Y      HAL2     0.900000E-01   1.00800           0
      8306 MEMB     193      POPE     C34      CTL2    -0.180000       12.0110           0
      8307 MEMB     193      POPE     H4X      HAL2     0.900000E-01   1.00800           0
      8308 MEMB     193      POPE     H4Y      HAL2     0.900000E-01   1.00800           0
      8309 MEMB     193      POPE     C35      CTL2    -0.180000       12.0110           0
      8310 MEMB     193      POPE     H5X      HAL2     0.900000E-01   1.00800           0
      8311 MEMB     193      POPE     H5Y      HAL2     0.900000E-01   1.00800           0
      8312 MEMB     193      POPE     C36      CTL2    -0.180000       12.0110           0
      8313 MEMB     193      POPE     H6X      HAL2     0.900000E-01   1.00800           0
      8314 MEMB     193      POPE     H6Y      HAL2     0.900000E-01   1.00800           0
      8315 MEMB     193      POPE     C37      CTL2    -0.180000       12.0110           0
      8316 MEMB     193      POPE     H7X      HAL2     0.900000E-01   1.00800           0
      8317 MEMB     193      POPE     H7Y      HAL2     0.900000E-01   1.00800           0
      8318 MEMB     193      POPE     C38      CTL2    -0.180000       12.0110           0
      8319 MEMB     193      POPE     H8X      HAL2     0.900000E-01   1.00800           0
      8320 MEMB     193      POPE     H8Y      HAL2     0.900000E-01   1.00800           0
      8321 MEMB     193      POPE     C39      CTL2    -0.180000       12.0110           0
      8322 MEMB     193      POPE     H9X      HAL2     0.900000E-01   1.00800           0
      8323 MEMB     193      POPE     H9Y      HAL2     0.900000E-01   1.00800           0
      8324 MEMB     193      POPE     C310     CTL2    -0.180000       12.0110           0
      8325 MEMB     193      POPE     H10X     HAL2     0.900000E-01   1.00800           0
      8326 MEMB     193      POPE     H10Y     HAL2     0.900000E-01   1.00800           0
      8327 MEMB     193      POPE     C311     CTL2    -0.180000       12.0110           0
      8328 MEMB     193      POPE     H11X     HAL2     0.900000E-01   1.00800           0
      8329 MEMB     193      POPE     H11Y     HAL2     0.900000E-01   1.00800           0
      8330 MEMB     193      POPE     C312     CTL2    -0.180000       12.0110           0
      8331 MEMB     193      POPE     H12X     HAL2     0.900000E-01   1.00800           0
      8332 MEMB     193      POPE     H12Y     HAL2     0.900000E-01   1.00800           0
      8333 MEMB     193      POPE     C313     CTL2    -0.180000       12.0110           0
      8334 MEMB     193      POPE     H13X     HAL2     0.900000E-01   1.00800           0
      8335 MEMB     193      POPE     H13Y     HAL2     0.900000E-01   1.00800           0
      8336 MEMB     193      POPE     C314     CTL2    -0.180000       12.0110           0
      8337 MEMB     193      POPE     H14X     HAL2     0.900000E-01   1.00800           0
      8338 MEMB     193      POPE     H14Y     HAL2     0.900000E-01   1.00800           0
      8339 MEMB     193      POPE     C315     CTL2    -0.180000       12.0110           0
      8340 MEMB     193      POPE     H15X     HAL2     0.900000E-01   1.00800           0
      8341 MEMB     193      POPE     H15Y     HAL2     0.900000E-01   1.00800           0
      8342 MEMB     193      POPE     C316     CTL3    -0.270000       12.0110           0
      8343 MEMB     193      POPE     H16X     HAL3     0.900000E-01   1.00800           0
      8344 MEMB     193      POPE     H16Y     HAL3     0.900000E-01   1.00800           0
      8345 MEMB     193      POPE     H16Z     HAL3     0.900000E-01   1.00800           0
      8346 MEMB     195      POPE     N        NH3L    -0.300000       14.0070           0
      8347 MEMB     195      POPE     HN1      HCL      0.330000       1.00800           0
      8348 MEMB     195      POPE     HN2      HCL      0.330000       1.00800           0
      8349 MEMB     195      POPE     HN3      HCL      0.330000       1.00800           0
      8350 MEMB     195      POPE     C12      CTL2     0.130000       12.0110           0
      8351 MEMB     195      POPE     H12A     HAL2     0.900000E-01   1.00800           0
      8352 MEMB     195      POPE     H12B     HAL2     0.900000E-01   1.00800           0
      8353 MEMB     195      POPE     C11      CTL2    -0.800000E-01   12.0110           0
      8354 MEMB     195      POPE     H11A     HAL2     0.900000E-01   1.00800           0
      8355 MEMB     195      POPE     H11B     HAL2     0.900000E-01   1.00800           0
      8356 MEMB     195      POPE     P        PL       1.500000       30.9740           0
      8357 MEMB     195      POPE     O13      O2L     -0.780000       15.9994           0
      8358 MEMB     195      POPE     O14      O2L     -0.780000       15.9994           0
      8359 MEMB     195      POPE     O11      OSLP    -0.570000       15.9994           0
      8360 MEMB     195      POPE     O12      OSLP    -0.570000       15.9994           0
      8361 MEMB     195      POPE     C1       CTL2    -0.800000E-01   12.0110           0
      8362 MEMB     195      POPE     HA       HAL2     0.900000E-01   1.00800           0
      8363 MEMB     195      POPE     HB       HAL2     0.900000E-01   1.00800           0
      8364 MEMB     195      POPE     C2       CTL1     0.170000       12.0110           0
      8365 MEMB     195      POPE     HS       HAL1     0.900000E-01   1.00800           0
      8366 MEMB     195      POPE     O21      OSL     -0.490000       15.9994           0
      8367 MEMB     195      POPE     C21      CL       0.900000       12.0110           0
      8368 MEMB     195      POPE     O22      OBL     -0.630000       15.9994           0
      8369 MEMB     195      POPE     C22      CTL2    -0.220000       12.0110           0
      8370 MEMB     195      POPE     H2R      HAL2     0.900000E-01   1.00800           0
      8371 MEMB     195      POPE     H2S      HAL2     0.900000E-01   1.00800           0
      8372 MEMB     195      POPE     C3       CTL2     0.800000E-01   12.0110           0
      8373 MEMB     195      POPE     HX       HAL2     0.900000E-01   1.00800           0
      8374 MEMB     195      POPE     HY       HAL2     0.900000E-01   1.00800           0
      8375 MEMB     195      POPE     O31      OSL     -0.490000       15.9994           0
      8376 MEMB     195      POPE     C31      CL       0.900000       12.0110           0
      8377 MEMB     195      POPE     O32      OBL     -0.630000       15.9994           0
      8378 MEMB     195      POPE     C32      CTL2    -0.220000       12.0110           0
      8379 MEMB     195      POPE     H2X      HAL2     0.900000E-01   1.00800           0
      8380 MEMB     195      POPE     H2Y      HAL2     0.900000E-01   1.00800           0
      8381 MEMB     195      POPE     C23      CTL2    -0.180000       12.0110           0
      8382 MEMB     195      POPE     H3R      HAL2     0.900000E-01   1.00800           0
      8383 MEMB     195      POPE     H3S      HAL2     0.900000E-01   1.00800           0
      8384 MEMB     195      POPE     C24      CTL2    -0.180000       12.0110           0
      8385 MEMB     195      POPE     H4R      HAL2     0.900000E-01   1.00800           0
      8386 MEMB     195      POPE     H4S      HAL2     0.900000E-01   1.00800           0
      8387 MEMB     195      POPE     C25      CTL2    -0.180000       12.0110           0
      8388 MEMB     195      POPE     H5R      HAL2     0.900000E-01   1.00800           0
      8389 MEMB     195      POPE     H5S      HAL2     0.900000E-01   1.00800           0
      8390 MEMB     195      POPE     C26      CTL2    -0.180000       12.0110           0
      8391 MEMB     195      POPE     H6R      HAL2     0.900000E-01   1.00800           0
      8392 MEMB     195      POPE     H6S      HAL2     0.900000E-01   1.00800           0
      8393 MEMB     195      POPE     C27      CTL2    -0.180000       12.0110           0
      8394 MEMB     195      POPE     H7R      HAL2     0.900000E-01   1.00800           0
      8395 MEMB     195      POPE     H7S      HAL2     0.900000E-01   1.00800           0
      8396 MEMB     195      POPE     C28      CTL2    -0.180000       12.0110           0
      8397 MEMB     195      POPE     H8R      HAL2     0.900000E-01   1.00800           0
      8398 MEMB     195      POPE     H8S      HAL2     0.900000E-01   1.00800           0
      8399 MEMB     195      POPE     C29      CEL1    -0.150000       12.0110           0
      8400 MEMB     195      POPE     H91      HEL1     0.150000       1.00800           0
      8401 MEMB     195      POPE     C210     CEL1    -0.150000       12.0110           0
      8402 MEMB     195      POPE     H101     HEL1     0.150000       1.00800           0
      8403 MEMB     195      POPE     C211     CTL2    -0.180000       12.0110           0
      8404 MEMB     195      POPE     H11R     HAL2     0.900000E-01   1.00800           0
      8405 MEMB     195      POPE     H11S     HAL2     0.900000E-01   1.00800           0
      8406 MEMB     195      POPE     C212     CTL2    -0.180000       12.0110           0
      8407 MEMB     195      POPE     H12R     HAL2     0.900000E-01   1.00800           0
      8408 MEMB     195      POPE     H12S     HAL2     0.900000E-01   1.00800           0
      8409 MEMB     195      POPE     C213     CTL2    -0.180000       12.0110           0
      8410 MEMB     195      POPE     H13R     HAL2     0.900000E-01   1.00800           0
      8411 MEMB     195      POPE     H13S     HAL2     0.900000E-01   1.00800           0
      8412 MEMB     195      POPE     C214     CTL2    -0.180000       12.0110           0
      8413 MEMB     195      POPE     H14R     HAL2     0.900000E-01   1.00800           0
      8414 MEMB     195      POPE     H14S     HAL2     0.900000E-01   1.00800           0
      8415 MEMB     195      POPE     C215     CTL2    -0.180000       12.0110           0
      8416 MEMB     195      POPE     H15R     HAL2     0.900000E-01   1.00800           0
      8417 MEMB     195      POPE     H15S     HAL2     0.900000E-01   1.00800           0
      8418 MEMB     195      POPE     C216     CTL2    -0.180000       12.0110           0
      8419 MEMB     195      POPE     H16R     HAL2     0.900000E-01   1.00800           0
      8420 MEMB     195      POPE     H16S     HAL2     0.900000E-01   1.00800           0
      8421 MEMB     195      POPE     C217     CTL2    -0.180000       12.0110           0
      8422 MEMB     195      POPE     H17R     HAL2     0.900000E-01   1.00800           0
      8423 MEMB     195      POPE     H17S     HAL2     0.900000E-01   1.00800           0
      8424 MEMB     195      POPE     C218     CTL3    -0.270000       12.0110           0
      8425 MEMB     195      POPE     H18R     HAL3     0.900000E-01   1.00800           0
      8426 MEMB     195      POPE     H18S     HAL3     0.900000E-01   1.00800           0
      8427 MEMB     195      POPE     H18T     HAL3     0.900000E-01   1.00800           0
      8428 MEMB     195      POPE     C33      CTL2    -0.180000       12.0110           0
      8429 MEMB     195      POPE     H3X      HAL2     0.900000E-01   1.00800           0
      8430 MEMB     195      POPE     H3Y      HAL2     0.900000E-01   1.00800           0
      8431 MEMB     195      POPE     C34      CTL2    -0.180000       12.0110           0
      8432 MEMB     195      POPE     H4X      HAL2     0.900000E-01   1.00800           0
      8433 MEMB     195      POPE     H4Y      HAL2     0.900000E-01   1.00800           0
      8434 MEMB     195      POPE     C35      CTL2    -0.180000       12.0110           0
      8435 MEMB     195      POPE     H5X      HAL2     0.900000E-01   1.00800           0
      8436 MEMB     195      POPE     H5Y      HAL2     0.900000E-01   1.00800           0
      8437 MEMB     195      POPE     C36      CTL2    -0.180000       12.0110           0
      8438 MEMB     195      POPE     H6X      HAL2     0.900000E-01   1.00800           0
      8439 MEMB     195      POPE     H6Y      HAL2     0.900000E-01   1.00800           0
      8440 MEMB     195      POPE     C37      CTL2    -0.180000       12.0110           0
      8441 MEMB     195      POPE     H7X      HAL2     0.900000E-01   1.00800           0
      8442 MEMB     195      POPE     H7Y      HAL2     0.900000E-01   1.00800           0
      8443 MEMB     195      POPE     C38      CTL2    -0.180000       12.0110           0
      8444 MEMB     195      POPE     H8X      HAL2     0.900000E-01   1.00800           0
      8445 MEMB     195      POPE     H8Y      HAL2     0.900000E-01   1.00800           0
      8446 MEMB     195      POPE     C39      CTL2    -0.180000       12.0110           0
      8447 MEMB     195      POPE     H9X      HAL2     0.900000E-01   1.00800           0
      8448 MEMB     195      POPE     H9Y      HAL2     0.900000E-01   1.00800           0
      8449 MEMB     195      POPE     C310     CTL2    -0.180000       12.0110           0
      8450 MEMB     195      POPE     H10X     HAL2     0.900000E-01   1.00800           0
      8451 MEMB     195      POPE     H10Y     HAL2     0.900000E-01   1.00800           0
      8452 MEMB     195      POPE     C311     CTL2    -0.180000       12.0110           0
      8453 MEMB     195      POPE     H11X     HAL2     0.900000E-01   1.00800           0
      8454 MEMB     195      POPE     H11Y     HAL2     0.900000E-01   1.00800           0
      8455 MEMB     195      POPE     C312     CTL2    -0.180000       12.0110           0
      8456 MEMB     195      POPE     H12X     HAL2     0.900000E-01   1.00800           0
      8457 MEMB     195      POPE     H12Y     HAL2     0.900000E-01   1.00800           0
      8458 MEMB     195      POPE     C313     CTL2    -0.180000       12.0110           0
      8459 MEMB     195      POPE     H13X     HAL2     0.900000E-01   1.00800           0
      8460 MEMB     195      POPE     H13Y     HAL2     0.900000E-01   1.00800           0
      8461 MEMB     195      POPE     C314     CTL2    -0.180000       12.0110           0
      8462 MEMB     195      POPE     H14X     HAL2     0.900000E-01   1.00800           0
      8463 MEMB     195      POPE     H14Y     HAL2     0.900000E-01   1.00800           0
      8464 MEMB     195      POPE     C315     CTL2    -0.180000       12.0110           0
      8465 MEMB     195      POPE     H15X     HAL2     0.900000E-01   1.00800           0
      8466 MEMB     195      POPE     H15Y     HAL2     0.900000E-01   1.00800           0
      8467 MEMB     195      POPE     C316     CTL3    -0.270000       12.0110           0
      8468 MEMB     195      POPE     H16X     HAL3     0.900000E-01   1.00800           0
      8469 MEMB     195      POPE     H16Y     HAL3     0.900000E-01   1.00800           0
      8470 MEMB     195      POPE     H16Z     HAL3     0.900000E-01   1.00800           0
      8471 MEMB     3        POPS     N        NH3L    -0.300000       14.0070           0
      8472 MEMB     3        POPS     HN1      HCL      0.330000       1.00800           0
      8473 MEMB     3        POPS     HN2      HCL      0.330000       1.00800           0
      8474 MEMB     3        POPS     HN3      HCL      0.330000       1.00800           0
      8475 MEMB     3        POPS     C12      CTL1     0.210000       12.0110           0
      8476 MEMB     3        POPS     H12A     HBL      0.100000       1.00800           0
      8477 MEMB     3        POPS     C13      CCL      0.340000       12.0110           0
      8478 MEMB     3        POPS     O13A     OCL     -0.670000       15.9994           0
      8479 MEMB     3        POPS     O13B     OCL     -0.670000       15.9994           0
      8480 MEMB     3        POPS     C11      CTL2    -0.800000E-01   12.0110           0
      8481 MEMB     3        POPS     H11A     HAL2     0.900000E-01   1.00800           0
      8482 MEMB     3        POPS     H11B     HAL2     0.900000E-01   1.00800           0
      8483 MEMB     3        POPS     P        PL       1.500000       30.9740           0
      8484 MEMB     3        POPS     O13      O2L     -0.780000       15.9994           0
      8485 MEMB     3        POPS     O14      O2L     -0.780000       15.9994           0
      8486 MEMB     3        POPS     O12      OSLP    -0.570000       15.9994           0
      8487 MEMB     3        POPS     O11      OSLP    -0.570000       15.9994           0
      8488 MEMB     3        POPS     C1       CTL2    -0.800000E-01   12.0110           0
      8489 MEMB     3        POPS     HA       HAL2     0.900000E-01   1.00800           0
      8490 MEMB     3        POPS     HB       HAL2     0.900000E-01   1.00800           0
      8491 MEMB     3        POPS     C2       CTL1     0.170000       12.0110           0
      8492 MEMB     3        POPS     HS       HAL1     0.900000E-01   1.00800           0
      8493 MEMB     3        POPS     O21      OSL     -0.490000       15.9994           0
      8494 MEMB     3        POPS     C21      CL       0.900000       12.0110           0
      8495 MEMB     3        POPS     O22      OBL     -0.630000       15.9994           0
      8496 MEMB     3        POPS     C22      CTL2    -0.220000       12.0110           0
      8497 MEMB     3        POPS     H2R      HAL2     0.900000E-01   1.00800           0
      8498 MEMB     3        POPS     H2S      HAL2     0.900000E-01   1.00800           0
      8499 MEMB     3        POPS     C3       CTL2     0.800000E-01   12.0110           0
      8500 MEMB     3        POPS     HX       HAL2     0.900000E-01   1.00800           0
      8501 MEMB     3        POPS     HY       HAL2     0.900000E-01   1.00800           0
      8502 MEMB     3        POPS     O31      OSL     -0.490000       15.9994           0
      8503 MEMB     3        POPS     C31      CL       0.900000       12.0110           0
      8504 MEMB     3        POPS     O32      OBL     -0.630000       15.9994           0
      8505 MEMB     3        POPS     C32      CTL2    -0.220000       12.0110           0
      8506 MEMB     3        POPS     H2X      HAL2     0.900000E-01   1.00800           0
      8507 MEMB     3        POPS     H2Y      HAL2     0.900000E-01   1.00800           0
      8508 MEMB     3        POPS     C23      CTL2    -0.180000       12.0110           0
      8509 MEMB     3        POPS     H3R      HAL2     0.900000E-01   1.00800           0
      8510 MEMB     3        POPS     H3S      HAL2     0.900000E-01   1.00800           0
      8511 MEMB     3        POPS     C24      CTL2    -0.180000       12.0110           0
      8512 MEMB     3        POPS     H4R      HAL2     0.900000E-01   1.00800           0
      8513 MEMB     3        POPS     H4S      HAL2     0.900000E-01   1.00800           0
      8514 MEMB     3        POPS     C25      CTL2    -0.180000       12.0110           0
      8515 MEMB     3        POPS     H5R      HAL2     0.900000E-01   1.00800           0
      8516 MEMB     3        POPS     H5S      HAL2     0.900000E-01   1.00800           0
      8517 MEMB     3        POPS     C26      CTL2    -0.180000       12.0110           0
      8518 MEMB     3        POPS     H6R      HAL2     0.900000E-01   1.00800           0
      8519 MEMB     3        POPS     H6S      HAL2     0.900000E-01   1.00800           0
      8520 MEMB     3        POPS     C27      CTL2    -0.180000       12.0110           0
      8521 MEMB     3        POPS     H7R      HAL2     0.900000E-01   1.00800           0
      8522 MEMB     3        POPS     H7S      HAL2     0.900000E-01   1.00800           0
      8523 MEMB     3        POPS     C28      CTL2    -0.180000       12.0110           0
      8524 MEMB     3        POPS     H8R      HAL2     0.900000E-01   1.00800           0
      8525 MEMB     3        POPS     H8S      HAL2     0.900000E-01   1.00800           0
      8526 MEMB     3        POPS     C29      CEL1    -0.150000       12.0110           0
      8527 MEMB     3        POPS     H91      HEL1     0.150000       1.00800           0
      8528 MEMB     3        POPS     C210     CEL1    -0.150000       12.0110           0
      8529 MEMB     3        POPS     H101     HEL1     0.150000       1.00800           0
      8530 MEMB     3        POPS     C211     CTL2    -0.180000       12.0110           0
      8531 MEMB     3        POPS     H11R     HAL2     0.900000E-01   1.00800           0
      8532 MEMB     3        POPS     H11S     HAL2     0.900000E-01   1.00800           0
      8533 MEMB     3        POPS     C212     CTL2    -0.180000       12.0110           0
      8534 MEMB     3        POPS     H12R     HAL2     0.900000E-01   1.00800           0
      8535 MEMB     3        POPS     H12S     HAL2     0.900000E-01   1.00800           0
      8536 MEMB     3        POPS     C213     CTL2    -0.180000       12.0110           0
      8537 MEMB     3        POPS     H13R     HAL2     0.900000E-01   1.00800           0
      8538 MEMB     3        POPS     H13S     HAL2     0.900000E-01   1.00800           0
      8539 MEMB     3        POPS     C214     CTL2    -0.180000       12.0110           0
      8540 MEMB     3        POPS     H14R     HAL2     0.900000E-01   1.00800           0
      8541 MEMB     3        POPS     H14S     HAL2     0.900000E-01   1.00800           0
      8542 MEMB     3        POPS     C215     CTL2    -0.180000       12.0110           0
      8543 MEMB     3        POPS     H15R     HAL2     0.900000E-01   1.00800           0
      8544 MEMB     3        POPS     H15S     HAL2     0.900000E-01   1.00800           0
      8545 MEMB     3        POPS     C216     CTL2    -0.180000       12.0110           0
      8546 MEMB     3        POPS     H16R     HAL2     0.900000E-01   1.00800           0
      8547 MEMB     3        POPS     H16S     HAL2     0.900000E-01   1.00800           0
      8548 MEMB     3        POPS     C217     CTL2    -0.180000       12.0110           0
      8549 MEMB     3        POPS     H17R     HAL2     0.900000E-01   1.00800           0
      8550 MEMB     3        POPS     H17S     HAL2     0.900000E-01   1.00800           0
      8551 MEMB     3        POPS     C218     CTL3    -0.270000       12.0110           0
      8552 MEMB     3        POPS     H18R     HAL3     0.900000E-01   1.00800           0
      8553 MEMB     3        POPS     H18S     HAL3     0.900000E-01   1.00800           0
      8554 MEMB     3        POPS     H18T     HAL3     0.900000E-01   1.00800           0
      8555 MEMB     3        POPS     C33      CTL2    -0.180000       12.0110           0
      8556 MEMB     3        POPS     H3X      HAL2     0.900000E-01   1.00800           0
      8557 MEMB     3        POPS     H3Y      HAL2     0.900000E-01   1.00800           0
      8558 MEMB     3        POPS     C34      CTL2    -0.180000       12.0110           0
      8559 MEMB     3        POPS     H4X      HAL2     0.900000E-01   1.00800           0
      8560 MEMB     3        POPS     H4Y      HAL2     0.900000E-01   1.00800           0
      8561 MEMB     3        POPS     C35      CTL2    -0.180000       12.0110           0
      8562 MEMB     3        POPS     H5X      HAL2     0.900000E-01   1.00800           0
      8563 MEMB     3        POPS     H5Y      HAL2     0.900000E-01   1.00800           0
      8564 MEMB     3        POPS     C36      CTL2    -0.180000       12.0110           0
      8565 MEMB     3        POPS     H6X      HAL2     0.900000E-01   1.00800           0
      8566 MEMB     3        POPS     H6Y      HAL2     0.900000E-01   1.00800           0
      8567 MEMB     3        POPS     C37      CTL2    -0.180000       12.0110           0
      8568 MEMB     3        POPS     H7X      HAL2     0.900000E-01   1.00800           0
      8569 MEMB     3        POPS     H7Y      HAL2     0.900000E-01   1.00800           0
      8570 MEMB     3        POPS     C38      CTL2    -0.180000       12.0110           0
      8571 MEMB     3        POPS     H8X      HAL2     0.900000E-01   1.00800           0
      8572 MEMB     3        POPS     H8Y      HAL2     0.900000E-01   1.00800           0
      8573 MEMB     3        POPS     C39      CTL2    -0.180000       12.0110           0
      8574 MEMB     3        POPS     H9X      HAL2     0.900000E-01   1.00800           0
      8575 MEMB     3        POPS     H9Y      HAL2     0.900000E-01   1.00800           0
      8576 MEMB     3        POPS     C310     CTL2    -0.180000       12.0110           0
      8577 MEMB     3        POPS     H10X     HAL2     0.900000E-01   1.00800           0
      8578 MEMB     3        POPS     H10Y     HAL2     0.900000E-01   1.00800           0
      8579 MEMB     3        POPS     C311     CTL2    -0.180000       12.0110           0
      8580 MEMB     3        POPS     H11X     HAL2     0.900000E-01   1.00800           0
      8581 MEMB     3        POPS     H11Y     HAL2     0.900000E-01   1.00800           0
      8582 MEMB     3        POPS     C312     CTL2    -0.180000       12.0110           0
      8583 MEMB     3        POPS     H12X     HAL2     0.900000E-01   1.00800           0
      8584 MEMB     3        POPS     H12Y     HAL2     0.900000E-01   1.00800           0
      8585 MEMB     3        POPS     C313     CTL2    -0.180000       12.0110           0
      8586 MEMB     3        POPS     H13X     HAL2     0.900000E-01   1.00800           0
      8587 MEMB     3        POPS     H13Y     HAL2     0.900000E-01   1.00800           0
      8588 MEMB     3        POPS     C314     CTL2    -0.180000       12.0110           0
      8589 MEMB     3        POPS     H14X     HAL2     0.900000E-01   1.00800           0
      8590 MEMB     3        POPS     H14Y     HAL2     0.900000E-01   1.00800           0
      8591 MEMB     3        POPS     C315     CTL2    -0.180000       12.0110           0
      8592 MEMB     3        POPS     H15X     HAL2     0.900000E-01   1.00800           0
      8593 MEMB     3        POPS     H15Y     HAL2     0.900000E-01   1.00800           0
      8594 MEMB     3        POPS     C316     CTL3    -0.270000       12.0110           0
      8595 MEMB     3        POPS     H16X     HAL3     0.900000E-01   1.00800           0
      8596 MEMB     3        POPS     H16Y     HAL3     0.900000E-01   1.00800           0
      8597 MEMB     3        POPS     H16Z     HAL3     0.900000E-01   1.00800           0
      8598 MEMB     16       POPS     N        NH3L    -0.300000       14.0070           0
      8599 MEMB     16       POPS     HN1      HCL      0.330000       1.00800           0
      8600 MEMB     16       POPS     HN2      HCL      0.330000       1.00800           0
      8601 MEMB     16       POPS     HN3      HCL      0.330000       1.00800           0
      8602 MEMB     16       POPS     C12      CTL1     0.210000       12.0110           0
      8603 MEMB     16       POPS     H12A     HBL      0.100000       1.00800           0
      8604 MEMB     16       POPS     C13      CCL      0.340000       12.0110           0
      8605 MEMB     16       POPS     O13A     OCL     -0.670000       15.9994           0
      8606 MEMB     16       POPS     O13B     OCL     -0.670000       15.9994           0
      8607 MEMB     16       POPS     C11      CTL2    -0.800000E-01   12.0110           0
      8608 MEMB     16       POPS     H11A     HAL2     0.900000E-01   1.00800           0
      8609 MEMB     16       POPS     H11B     HAL2     0.900000E-01   1.00800           0
      8610 MEMB     16       POPS     P        PL       1.500000       30.9740           0
      8611 MEMB     16       POPS     O13      O2L     -0.780000       15.9994           0
      8612 MEMB     16       POPS     O14      O2L     -0.780000       15.9994           0
      8613 MEMB     16       POPS     O12      OSLP    -0.570000       15.9994           0
      8614 MEMB     16       POPS     O11      OSLP    -0.570000       15.9994           0
      8615 MEMB     16       POPS     C1       CTL2    -0.800000E-01   12.0110           0
      8616 MEMB     16       POPS     HA       HAL2     0.900000E-01   1.00800           0
      8617 MEMB     16       POPS     HB       HAL2     0.900000E-01   1.00800           0
      8618 MEMB     16       POPS     C2       CTL1     0.170000       12.0110           0
      8619 MEMB     16       POPS     HS       HAL1     0.900000E-01   1.00800           0
      8620 MEMB     16       POPS     O21      OSL     -0.490000       15.9994           0
      8621 MEMB     16       POPS     C21      CL       0.900000       12.0110           0
      8622 MEMB     16       POPS     O22      OBL     -0.630000       15.9994           0
      8623 MEMB     16       POPS     C22      CTL2    -0.220000       12.0110           0
      8624 MEMB     16       POPS     H2R      HAL2     0.900000E-01   1.00800           0
      8625 MEMB     16       POPS     H2S      HAL2     0.900000E-01   1.00800           0
      8626 MEMB     16       POPS     C3       CTL2     0.800000E-01   12.0110           0
      8627 MEMB     16       POPS     HX       HAL2     0.900000E-01   1.00800           0
      8628 MEMB     16       POPS     HY       HAL2     0.900000E-01   1.00800           0
      8629 MEMB     16       POPS     O31      OSL     -0.490000       15.9994           0
      8630 MEMB     16       POPS     C31      CL       0.900000       12.0110           0
      8631 MEMB     16       POPS     O32      OBL     -0.630000       15.9994           0
      8632 MEMB     16       POPS     C32      CTL2    -0.220000       12.0110           0
      8633 MEMB     16       POPS     H2X      HAL2     0.900000E-01   1.00800           0
      8634 MEMB     16       POPS     H2Y      HAL2     0.900000E-01   1.00800           0
      8635 MEMB     16       POPS     C23      CTL2    -0.180000       12.0110           0
      8636 MEMB     16       POPS     H3R      HAL2     0.900000E-01   1.00800           0
      8637 MEMB     16       POPS     H3S      HAL2     0.900000E-01   1.00800           0
      8638 MEMB     16       POPS     C24      CTL2    -0.180000       12.0110           0
      8639 MEMB     16       POPS     H4R      HAL2     0.900000E-01   1.00800           0
      8640 MEMB     16       POPS     H4S      HAL2     0.900000E-01   1.00800           0
      8641 MEMB     16       POPS     C25      CTL2    -0.180000       12.0110           0
      8642 MEMB     16       POPS     H5R      HAL2     0.900000E-01   1.00800           0
      8643 MEMB     16       POPS     H5S      HAL2     0.900000E-01   1.00800           0
      8644 MEMB     16       POPS     C26      CTL2    -0.180000       12.0110           0
      8645 MEMB     16       POPS     H6R      HAL2     0.900000E-01   1.00800           0
      8646 MEMB     16       POPS     H6S      HAL2     0.900000E-01   1.00800           0
      8647 MEMB     16       POPS     C27      CTL2    -0.180000       12.0110           0
      8648 MEMB     16       POPS     H7R      HAL2     0.900000E-01   1.00800           0
      8649 MEMB     16       POPS     H7S      HAL2     0.900000E-01   1.00800           0
      8650 MEMB     16       POPS     C28      CTL2    -0.180000       12.0110           0
      8651 MEMB     16       POPS     H8R      HAL2     0.900000E-01   1.00800           0
      8652 MEMB     16       POPS     H8S      HAL2     0.900000E-01   1.00800           0
      8653 MEMB     16       POPS     C29      CEL1    -0.150000       12.0110           0
      8654 MEMB     16       POPS     H91      HEL1     0.150000       1.00800           0
      8655 MEMB     16       POPS     C210     CEL1    -0.150000       12.0110           0
      8656 MEMB     16       POPS     H101     HEL1     0.150000       1.00800           0
      8657 MEMB     16       POPS     C211     CTL2    -0.180000       12.0110           0
      8658 MEMB     16       POPS     H11R     HAL2     0.900000E-01   1.00800           0
      8659 MEMB     16       POPS     H11S     HAL2     0.900000E-01   1.00800           0
      8660 MEMB     16       POPS     C212     CTL2    -0.180000       12.0110           0
      8661 MEMB     16       POPS     H12R     HAL2     0.900000E-01   1.00800           0
      8662 MEMB     16       POPS     H12S     HAL2     0.900000E-01   1.00800           0
      8663 MEMB     16       POPS     C213     CTL2    -0.180000       12.0110           0
      8664 MEMB     16       POPS     H13R     HAL2     0.900000E-01   1.00800           0
      8665 MEMB     16       POPS     H13S     HAL2     0.900000E-01   1.00800           0
      8666 MEMB     16       POPS     C214     CTL2    -0.180000       12.0110           0
      8667 MEMB     16       POPS     H14R     HAL2     0.900000E-01   1.00800           0
      8668 MEMB     16       POPS     H14S     HAL2     0.900000E-01   1.00800           0
      8669 MEMB     16       POPS     C215     CTL2    -0.180000       12.0110           0
      8670 MEMB     16       POPS     H15R     HAL2     0.900000E-01   1.00800           0
      8671 MEMB     16       POPS     H15S     HAL2     0.900000E-01   1.00800           0
      8672 MEMB     16       POPS     C216     CTL2    -0.180000       12.0110           0
      8673 MEMB     16       POPS     H16R     HAL2     0.900000E-01   1.00800           0
      8674 MEMB     16       POPS     H16S     HAL2     0.900000E-01   1.00800           0
      8675 MEMB     16       POPS     C217     CTL2    -0.180000       12.0110           0
      8676 MEMB     16       POPS     H17R     HAL2     0.900000E-01   1.00800           0
      8677 MEMB     16       POPS     H17S     HAL2     0.900000E-01   1.00800           0
      8678 MEMB     16       POPS     C218     CTL3    -0.270000       12.0110           0
      8679 MEMB     16       POPS     H18R     HAL3     0.900000E-01   1.00800           0
      8680 MEMB     16       POPS     H18S     HAL3     0.900000E-01   1.00800           0
      8681 MEMB     16       POPS     H18T     HAL3     0.900000E-01   1.00800           0
      8682 MEMB     16       POPS     C33      CTL2    -0.180000       12.0110           0
      8683 MEMB     16       POPS     H3X      HAL2     0.900000E-01   1.00800           0
      8684 MEMB     16       POPS     H3Y      HAL2     0.900000E-01   1.00800           0
      8685 MEMB     16       POPS     C34      CTL2    -0.180000       12.0110           0
      8686 MEMB     16       POPS     H4X      HAL2     0.900000E-01   1.00800           0
      8687 MEMB     16       POPS     H4Y      HAL2     0.900000E-01   1.00800           0
      8688 MEMB     16       POPS     C35      CTL2    -0.180000       12.0110           0
      8689 MEMB     16       POPS     H5X      HAL2     0.900000E-01   1.00800           0
      8690 MEMB     16       POPS     H5Y      HAL2     0.900000E-01   1.00800           0
      8691 MEMB     16       POPS     C36      CTL2    -0.180000       12.0110           0
      8692 MEMB     16       POPS     H6X      HAL2     0.900000E-01   1.00800           0
      8693 MEMB     16       POPS     H6Y      HAL2     0.900000E-01   1.00800           0
      8694 MEMB     16       POPS     C37      CTL2    -0.180000       12.0110           0
      8695 MEMB     16       POPS     H7X      HAL2     0.900000E-01   1.00800           0
      8696 MEMB     16       POPS     H7Y      HAL2     0.900000E-01   1.00800           0
      8697 MEMB     16       POPS     C38      CTL2    -0.180000       12.0110           0
      8698 MEMB     16       POPS     H8X      HAL2     0.900000E-01   1.00800           0
      8699 MEMB     16       POPS     H8Y      HAL2     0.900000E-01   1.00800           0
      8700 MEMB     16       POPS     C39      CTL2    -0.180000       12.0110           0
      8701 MEMB     16       POPS     H9X      HAL2     0.900000E-01   1.00800           0
      8702 MEMB     16       POPS     H9Y      HAL2     0.900000E-01   1.00800           0
      8703 MEMB     16       POPS     C310     CTL2    -0.180000       12.0110           0
      8704 MEMB     16       POPS     H10X     HAL2     0.900000E-01   1.00800           0
      8705 MEMB     16       POPS     H10Y     HAL2     0.900000E-01   1.00800           0
      8706 MEMB     16       POPS     C311     CTL2    -0.180000       12.0110           0
      8707 MEMB     16       POPS     H11X     HAL2     0.900000E-01   1.00800           0
      8708 MEMB     16       POPS     H11Y     HAL2     0.900000E-01   1.00800           0
      8709 MEMB     16       POPS     C312     CTL2    -0.180000       12.0110           0
      8710 MEMB     16       POPS     H12X     HAL2     0.900000E-01   1.00800           0
      8711 MEMB     16       POPS     H12Y     HAL2     0.900000E-01   1.00800           0
      8712 MEMB     16       POPS     C313     CTL2    -0.180000       12.0110           0
      8713 MEMB     16       POPS     H13X     HAL2     0.900000E-01   1.00800           0
      8714 MEMB     16       POPS     H13Y     HAL2     0.900000E-01   1.00800           0
      8715 MEMB     16       POPS     C314     CTL2    -0.180000       12.0110           0
      8716 MEMB     16       POPS     H14X     HAL2     0.900000E-01   1.00800           0
      8717 MEMB     16       POPS     H14Y     HAL2     0.900000E-01   1.00800           0
      8718 MEMB     16       POPS     C315     CTL2    -0.180000       12.0110           0
      8719 MEMB     16       POPS     H15X     HAL2     0.900000E-01   1.00800           0
      8720 MEMB     16       POPS     H15Y     HAL2     0.900000E-01   1.00800           0
      8721 MEMB     16       POPS     C316     CTL3    -0.270000       12.0110           0
      8722 MEMB     16       POPS     H16X     HAL3     0.900000E-01   1.00800           0
      8723 MEMB     16       POPS     H16Y     HAL3     0.900000E-01   1.00800           0
      8724 MEMB     16       POPS     H16Z     HAL3     0.900000E-01   1.00800           0
      8725 MEMB     24       POPS     N        NH3L    -0.300000       14.0070           0
      8726 MEMB     24       POPS     HN1      HCL      0.330000       1.00800           0
      8727 MEMB     24       POPS     HN2      HCL      0.330000       1.00800           0
      8728 MEMB     24       POPS     HN3      HCL      0.330000       1.00800           0
      8729 MEMB     24       POPS     C12      CTL1     0.210000       12.0110           0
      8730 MEMB     24       POPS     H12A     HBL      0.100000       1.00800           0
      8731 MEMB     24       POPS     C13      CCL      0.340000       12.0110           0
      8732 MEMB     24       POPS     O13A     OCL     -0.670000       15.9994           0
      8733 MEMB     24       POPS     O13B     OCL     -0.670000       15.9994           0
      8734 MEMB     24       POPS     C11      CTL2    -0.800000E-01   12.0110           0
      8735 MEMB     24       POPS     H11A     HAL2     0.900000E-01   1.00800           0
      8736 MEMB     24       POPS     H11B     HAL2     0.900000E-01   1.00800           0
      8737 MEMB     24       POPS     P        PL       1.500000       30.9740           0
      8738 MEMB     24       POPS     O13      O2L     -0.780000       15.9994           0
      8739 MEMB     24       POPS     O14      O2L     -0.780000       15.9994           0
      8740 MEMB     24       POPS     O12      OSLP    -0.570000       15.9994           0
      8741 MEMB     24       POPS     O11      OSLP    -0.570000       15.9994           0
      8742 MEMB     24       POPS     C1       CTL2    -0.800000E-01   12.0110           0
      8743 MEMB     24       POPS     HA       HAL2     0.900000E-01   1.00800           0
      8744 MEMB     24       POPS     HB       HAL2     0.900000E-01   1.00800           0
      8745 MEMB     24       POPS     C2       CTL1     0.170000       12.0110           0
      8746 MEMB     24       POPS     HS       HAL1     0.900000E-01   1.00800           0
      8747 MEMB     24       POPS     O21      OSL     -0.490000       15.9994           0
      8748 MEMB     24       POPS     C21      CL       0.900000       12.0110           0
      8749 MEMB     24       POPS     O22      OBL     -0.630000       15.9994           0
      8750 MEMB     24       POPS     C22      CTL2    -0.220000       12.0110           0
      8751 MEMB     24       POPS     H2R      HAL2     0.900000E-01   1.00800           0
      8752 MEMB     24       POPS     H2S      HAL2     0.900000E-01   1.00800           0
      8753 MEMB     24       POPS     C3       CTL2     0.800000E-01   12.0110           0
      8754 MEMB     24       POPS     HX       HAL2     0.900000E-01   1.00800           0
      8755 MEMB     24       POPS     HY       HAL2     0.900000E-01   1.00800           0
      8756 MEMB     24       POPS     O31      OSL     -0.490000       15.9994           0
      8757 MEMB     24       POPS     C31      CL       0.900000       12.0110           0
      8758 MEMB     24       POPS     O32      OBL     -0.630000       15.9994           0
      8759 MEMB     24       POPS     C32      CTL2    -0.220000       12.0110           0
      8760 MEMB     24       POPS     H2X      HAL2     0.900000E-01   1.00800           0
      8761 MEMB     24       POPS     H2Y      HAL2     0.900000E-01   1.00800           0
      8762 MEMB     24       POPS     C23      CTL2    -0.180000       12.0110           0
      8763 MEMB     24       POPS     H3R      HAL2     0.900000E-01   1.00800           0
      8764 MEMB     24       POPS     H3S      HAL2     0.900000E-01   1.00800           0
      8765 MEMB     24       POPS     C24      CTL2    -0.180000       12.0110           0
      8766 MEMB     24       POPS     H4R      HAL2     0.900000E-01   1.00800           0
      8767 MEMB     24       POPS     H4S      HAL2     0.900000E-01   1.00800           0
      8768 MEMB     24       POPS     C25      CTL2    -0.180000       12.0110           0
      8769 MEMB     24       POPS     H5R      HAL2     0.900000E-01   1.00800           0
      8770 MEMB     24       POPS     H5S      HAL2     0.900000E-01   1.00800           0
      8771 MEMB     24       POPS     C26      CTL2    -0.180000       12.0110           0
      8772 MEMB     24       POPS     H6R      HAL2     0.900000E-01   1.00800           0
      8773 MEMB     24       POPS     H6S      HAL2     0.900000E-01   1.00800           0
      8774 MEMB     24       POPS     C27      CTL2    -0.180000       12.0110           0
      8775 MEMB     24       POPS     H7R      HAL2     0.900000E-01   1.00800           0
      8776 MEMB     24       POPS     H7S      HAL2     0.900000E-01   1.00800           0
      8777 MEMB     24       POPS     C28      CTL2    -0.180000       12.0110           0
      8778 MEMB     24       POPS     H8R      HAL2     0.900000E-01   1.00800           0
      8779 MEMB     24       POPS     H8S      HAL2     0.900000E-01   1.00800           0
      8780 MEMB     24       POPS     C29      CEL1    -0.150000       12.0110           0
      8781 MEMB     24       POPS     H91      HEL1     0.150000       1.00800           0
      8782 MEMB     24       POPS     C210     CEL1    -0.150000       12.0110           0
      8783 MEMB     24       POPS     H101     HEL1     0.150000       1.00800           0
      8784 MEMB     24       POPS     C211     CTL2    -0.180000       12.0110           0
      8785 MEMB     24       POPS     H11R     HAL2     0.900000E-01   1.00800           0
      8786 MEMB     24       POPS     H11S     HAL2     0.900000E-01   1.00800           0
      8787 MEMB     24       POPS     C212     CTL2    -0.180000       12.0110           0
      8788 MEMB     24       POPS     H12R     HAL2     0.900000E-01   1.00800           0
      8789 MEMB     24       POPS     H12S     HAL2     0.900000E-01   1.00800           0
      8790 MEMB     24       POPS     C213     CTL2    -0.180000       12.0110           0
      8791 MEMB     24       POPS     H13R     HAL2     0.900000E-01   1.00800           0
      8792 MEMB     24       POPS     H13S     HAL2     0.900000E-01   1.00800           0
      8793 MEMB     24       POPS     C214     CTL2    -0.180000       12.0110           0
      8794 MEMB     24       POPS     H14R     HAL2     0.900000E-01   1.00800           0
      8795 MEMB     24       POPS     H14S     HAL2     0.900000E-01   1.00800           0
      8796 MEMB     24       POPS     C215     CTL2    -0.180000       12.0110           0
      8797 MEMB     24       POPS     H15R     HAL2     0.900000E-01   1.00800           0
      8798 MEMB     24       POPS     H15S     HAL2     0.900000E-01   1.00800           0
      8799 MEMB     24       POPS     C216     CTL2    -0.180000       12.0110           0
      8800 MEMB     24       POPS     H16R     HAL2     0.900000E-01   1.00800           0
      8801 MEMB     24       POPS     H16S     HAL2     0.900000E-01   1.00800           0
      8802 MEMB     24       POPS     C217     CTL2    -0.180000       12.0110           0
      8803 MEMB     24       POPS     H17R     HAL2     0.900000E-01   1.00800           0
      8804 MEMB     24       POPS     H17S     HAL2     0.900000E-01   1.00800           0
      8805 MEMB     24       POPS     C218     CTL3    -0.270000       12.0110           0
      8806 MEMB     24       POPS     H18R     HAL3     0.900000E-01   1.00800           0
      8807 MEMB     24       POPS     H18S     HAL3     0.900000E-01   1.00800           0
      8808 MEMB     24       POPS     H18T     HAL3     0.900000E-01   1.00800           0
      8809 MEMB     24       POPS     C33      CTL2    -0.180000       12.0110           0
      8810 MEMB     24       POPS     H3X      HAL2     0.900000E-01   1.00800           0
      8811 MEMB     24       POPS     H3Y      HAL2     0.900000E-01   1.00800           0
      8812 MEMB     24       POPS     C34      CTL2    -0.180000       12.0110           0
      8813 MEMB     24       POPS     H4X      HAL2     0.900000E-01   1.00800           0
      8814 MEMB     24       POPS     H4Y      HAL2     0.900000E-01   1.00800           0
      8815 MEMB     24       POPS     C35      CTL2    -0.180000       12.0110           0
      8816 MEMB     24       POPS     H5X      HAL2     0.900000E-01   1.00800           0
      8817 MEMB     24       POPS     H5Y      HAL2     0.900000E-01   1.00800           0
      8818 MEMB     24       POPS     C36      CTL2    -0.180000       12.0110           0
      8819 MEMB     24       POPS     H6X      HAL2     0.900000E-01   1.00800           0
      8820 MEMB     24       POPS     H6Y      HAL2     0.900000E-01   1.00800           0
      8821 MEMB     24       POPS     C37      CTL2    -0.180000       12.0110           0
      8822 MEMB     24       POPS     H7X      HAL2     0.900000E-01   1.00800           0
      8823 MEMB     24       POPS     H7Y      HAL2     0.900000E-01   1.00800           0
      8824 MEMB     24       POPS     C38      CTL2    -0.180000       12.0110           0
      8825 MEMB     24       POPS     H8X      HAL2     0.900000E-01   1.00800           0
      8826 MEMB     24       POPS     H8Y      HAL2     0.900000E-01   1.00800           0
      8827 MEMB     24       POPS     C39      CTL2    -0.180000       12.0110           0
      8828 MEMB     24       POPS     H9X      HAL2     0.900000E-01   1.00800           0
      8829 MEMB     24       POPS     H9Y      HAL2     0.900000E-01   1.00800           0
      8830 MEMB     24       POPS     C310     CTL2    -0.180000       12.0110           0
      8831 MEMB     24       POPS     H10X     HAL2     0.900000E-01   1.00800           0
      8832 MEMB     24       POPS     H10Y     HAL2     0.900000E-01   1.00800           0
      8833 MEMB     24       POPS     C311     CTL2    -0.180000       12.0110           0
      8834 MEMB     24       POPS     H11X     HAL2     0.900000E-01   1.00800           0
      8835 MEMB     24       POPS     H11Y     HAL2     0.900000E-01   1.00800           0
      8836 MEMB     24       POPS     C312     CTL2    -0.180000       12.0110           0
      8837 MEMB     24       POPS     H12X     HAL2     0.900000E-01   1.00800           0
      8838 MEMB     24       POPS     H12Y     HAL2     0.900000E-01   1.00800           0
      8839 MEMB     24       POPS     C313     CTL2    -0.180000       12.0110           0
      8840 MEMB     24       POPS     H13X     HAL2     0.900000E-01   1.00800           0
      8841 MEMB     24       POPS     H13Y     HAL2     0.900000E-01   1.00800           0
      8842 MEMB     24       POPS     C314     CTL2    -0.180000       12.0110           0
      8843 MEMB     24       POPS     H14X     HAL2     0.900000E-01   1.00800           0
      8844 MEMB     24       POPS     H14Y     HAL2     0.900000E-01   1.00800           0
      8845 MEMB     24       POPS     C315     CTL2    -0.180000       12.0110           0
      8846 MEMB     24       POPS     H15X     HAL2     0.900000E-01   1.00800           0
      8847 MEMB     24       POPS     H15Y     HAL2     0.900000E-01   1.00800           0
      8848 MEMB     24       POPS     C316     CTL3    -0.270000       12.0110           0
      8849 MEMB     24       POPS     H16X     HAL3     0.900000E-01   1.00800           0
      8850 MEMB     24       POPS     H16Y     HAL3     0.900000E-01   1.00800           0
      8851 MEMB     24       POPS     H16Z     HAL3     0.900000E-01   1.00800           0
      8852 MEMB     25       POPS     N        NH3L    -0.300000       14.0070           0
      8853 MEMB     25       POPS     HN1      HCL      0.330000       1.00800           0
      8854 MEMB     25       POPS     HN2      HCL      0.330000       1.00800           0
      8855 MEMB     25       POPS     HN3      HCL      0.330000       1.00800           0
      8856 MEMB     25       POPS     C12      CTL1     0.210000       12.0110           0
      8857 MEMB     25       POPS     H12A     HBL      0.100000       1.00800           0
      8858 MEMB     25       POPS     C13      CCL      0.340000       12.0110           0
      8859 MEMB     25       POPS     O13A     OCL     -0.670000       15.9994           0
      8860 MEMB     25       POPS     O13B     OCL     -0.670000       15.9994           0
      8861 MEMB     25       POPS     C11      CTL2    -0.800000E-01   12.0110           0
      8862 MEMB     25       POPS     H11A     HAL2     0.900000E-01   1.00800           0
      8863 MEMB     25       POPS     H11B     HAL2     0.900000E-01   1.00800           0
      8864 MEMB     25       POPS     P        PL       1.500000       30.9740           0
      8865 MEMB     25       POPS     O13      O2L     -0.780000       15.9994           0
      8866 MEMB     25       POPS     O14      O2L     -0.780000       15.9994           0
      8867 MEMB     25       POPS     O12      OSLP    -0.570000       15.9994           0
      8868 MEMB     25       POPS     O11      OSLP    -0.570000       15.9994           0
      8869 MEMB     25       POPS     C1       CTL2    -0.800000E-01   12.0110           0
      8870 MEMB     25       POPS     HA       HAL2     0.900000E-01   1.00800           0
      8871 MEMB     25       POPS     HB       HAL2     0.900000E-01   1.00800           0
      8872 MEMB     25       POPS     C2       CTL1     0.170000       12.0110           0
      8873 MEMB     25       POPS     HS       HAL1     0.900000E-01   1.00800           0
      8874 MEMB     25       POPS     O21      OSL     -0.490000       15.9994           0
      8875 MEMB     25       POPS     C21      CL       0.900000       12.0110           0
      8876 MEMB     25       POPS     O22      OBL     -0.630000       15.9994           0
      8877 MEMB     25       POPS     C22      CTL2    -0.220000       12.0110           0
      8878 MEMB     25       POPS     H2R      HAL2     0.900000E-01   1.00800           0
      8879 MEMB     25       POPS     H2S      HAL2     0.900000E-01   1.00800           0
      8880 MEMB     25       POPS     C3       CTL2     0.800000E-01   12.0110           0
      8881 MEMB     25       POPS     HX       HAL2     0.900000E-01   1.00800           0
      8882 MEMB     25       POPS     HY       HAL2     0.900000E-01   1.00800           0
      8883 MEMB     25       POPS     O31      OSL     -0.490000       15.9994           0
      8884 MEMB     25       POPS     C31      CL       0.900000       12.0110           0
      8885 MEMB     25       POPS     O32      OBL     -0.630000       15.9994           0
      8886 MEMB     25       POPS     C32      CTL2    -0.220000       12.0110           0
      8887 MEMB     25       POPS     H2X      HAL2     0.900000E-01   1.00800           0
      8888 MEMB     25       POPS     H2Y      HAL2     0.900000E-01   1.00800           0
      8889 MEMB     25       POPS     C23      CTL2    -0.180000       12.0110           0
      8890 MEMB     25       POPS     H3R      HAL2     0.900000E-01   1.00800           0
      8891 MEMB     25       POPS     H3S      HAL2     0.900000E-01   1.00800           0
      8892 MEMB     25       POPS     C24      CTL2    -0.180000       12.0110           0
      8893 MEMB     25       POPS     H4R      HAL2     0.900000E-01   1.00800           0
      8894 MEMB     25       POPS     H4S      HAL2     0.900000E-01   1.00800           0
      8895 MEMB     25       POPS     C25      CTL2    -0.180000       12.0110           0
      8896 MEMB     25       POPS     H5R      HAL2     0.900000E-01   1.00800           0
      8897 MEMB     25       POPS     H5S      HAL2     0.900000E-01   1.00800           0
      8898 MEMB     25       POPS     C26      CTL2    -0.180000       12.0110           0
      8899 MEMB     25       POPS     H6R      HAL2     0.900000E-01   1.00800           0
      8900 MEMB     25       POPS     H6S      HAL2     0.900000E-01   1.00800           0
      8901 MEMB     25       POPS     C27      CTL2    -0.180000       12.0110           0
      8902 MEMB     25       POPS     H7R      HAL2     0.900000E-01   1.00800           0
      8903 MEMB     25       POPS     H7S      HAL2     0.900000E-01   1.00800           0
      8904 MEMB     25       POPS     C28      CTL2    -0.180000       12.0110           0
      8905 MEMB     25       POPS     H8R      HAL2     0.900000E-01   1.00800           0
      8906 MEMB     25       POPS     H8S      HAL2     0.900000E-01   1.00800           0
      8907 MEMB     25       POPS     C29      CEL1    -0.150000       12.0110           0
      8908 MEMB     25       POPS     H91      HEL1     0.150000       1.00800           0
      8909 MEMB     25       POPS     C210     CEL1    -0.150000       12.0110           0
      8910 MEMB     25       POPS     H101     HEL1     0.150000       1.00800           0
      8911 MEMB     25       POPS     C211     CTL2    -0.180000       12.0110           0
      8912 MEMB     25       POPS     H11R     HAL2     0.900000E-01   1.00800           0
      8913 MEMB     25       POPS     H11S     HAL2     0.900000E-01   1.00800           0
      8914 MEMB     25       POPS     C212     CTL2    -0.180000       12.0110           0
      8915 MEMB     25       POPS     H12R     HAL2     0.900000E-01   1.00800           0
      8916 MEMB     25       POPS     H12S     HAL2     0.900000E-01   1.00800           0
      8917 MEMB     25       POPS     C213     CTL2    -0.180000       12.0110           0
      8918 MEMB     25       POPS     H13R     HAL2     0.900000E-01   1.00800           0
      8919 MEMB     25       POPS     H13S     HAL2     0.900000E-01   1.00800           0
      8920 MEMB     25       POPS     C214     CTL2    -0.180000       12.0110           0
      8921 MEMB     25       POPS     H14R     HAL2     0.900000E-01   1.00800           0
      8922 MEMB     25       POPS     H14S     HAL2     0.900000E-01   1.00800           0
      8923 MEMB     25       POPS     C215     CTL2    -0.180000       12.0110           0
      8924 MEMB     25       POPS     H15R     HAL2     0.900000E-01   1.00800           0
      8925 MEMB     25       POPS     H15S     HAL2     0.900000E-01   1.00800           0
      8926 MEMB     25       POPS     C216     CTL2    -0.180000       12.0110           0
      8927 MEMB     25       POPS     H16R     HAL2     0.900000E-01   1.00800           0
      8928 MEMB     25       POPS     H16S     HAL2     0.900000E-01   1.00800           0
      8929 MEMB     25       POPS     C217     CTL2    -0.180000       12.0110           0
      8930 MEMB     25       POPS     H17R     HAL2     0.900000E-01   1.00800           0
      8931 MEMB     25       POPS     H17S     HAL2     0.900000E-01   1.00800           0
      8932 MEMB     25       POPS     C218     CTL3    -0.270000       12.0110           0
      8933 MEMB     25       POPS     H18R     HAL3     0.900000E-01   1.00800           0
      8934 MEMB     25       POPS     H18S     HAL3     0.900000E-01   1.00800           0
      8935 MEMB     25       POPS     H18T     HAL3     0.900000E-01   1.00800           0
      8936 MEMB     25       POPS     C33      CTL2    -0.180000       12.0110           0
      8937 MEMB     25       POPS     H3X      HAL2     0.900000E-01   1.00800           0
      8938 MEMB     25       POPS     H3Y      HAL2     0.900000E-01   1.00800           0
      8939 MEMB     25       POPS     C34      CTL2    -0.180000       12.0110           0
      8940 MEMB     25       POPS     H4X      HAL2     0.900000E-01   1.00800           0
      8941 MEMB     25       POPS     H4Y      HAL2     0.900000E-01   1.00800           0
      8942 MEMB     25       POPS     C35      CTL2    -0.180000       12.0110           0
      8943 MEMB     25       POPS     H5X      HAL2     0.900000E-01   1.00800           0
      8944 MEMB     25       POPS     H5Y      HAL2     0.900000E-01   1.00800           0
      8945 MEMB     25       POPS     C36      CTL2    -0.180000       12.0110           0
      8946 MEMB     25       POPS     H6X      HAL2     0.900000E-01   1.00800           0
      8947 MEMB     25       POPS     H6Y      HAL2     0.900000E-01   1.00800           0
      8948 MEMB     25       POPS     C37      CTL2    -0.180000       12.0110           0
      8949 MEMB     25       POPS     H7X      HAL2     0.900000E-01   1.00800           0
      8950 MEMB     25       POPS     H7Y      HAL2     0.900000E-01   1.00800           0
      8951 MEMB     25       POPS     C38      CTL2    -0.180000       12.0110           0
      8952 MEMB     25       POPS     H8X      HAL2     0.900000E-01   1.00800           0
      8953 MEMB     25       POPS     H8Y      HAL2     0.900000E-01   1.00800           0
      8954 MEMB     25       POPS     C39      CTL2    -0.180000       12.0110           0
      8955 MEMB     25       POPS     H9X      HAL2     0.900000E-01   1.00800           0
      8956 MEMB     25       POPS     H9Y      HAL2     0.900000E-01   1.00800           0
      8957 MEMB     25       POPS     C310     CTL2    -0.180000       12.0110           0
      8958 MEMB     25       POPS     H10X     HAL2     0.900000E-01   1.00800           0
      8959 MEMB     25       POPS     H10Y     HAL2     0.900000E-01   1.00800           0
      8960 MEMB     25       POPS     C311     CTL2    -0.180000       12.0110           0
      8961 MEMB     25       POPS     H11X     HAL2     0.900000E-01   1.00800           0
      8962 MEMB     25       POPS     H11Y     HAL2     0.900000E-01   1.00800           0
      8963 MEMB     25       POPS     C312     CTL2    -0.180000       12.0110           0
      8964 MEMB     25       POPS     H12X     HAL2     0.900000E-01   1.00800           0
      8965 MEMB     25       POPS     H12Y     HAL2     0.900000E-01   1.00800           0
      8966 MEMB     25       POPS     C313     CTL2    -0.180000       12.0110           0
      8967 MEMB     25       POPS     H13X     HAL2     0.900000E-01   1.00800           0
      8968 MEMB     25       POPS     H13Y     HAL2     0.900000E-01   1.00800           0
      8969 MEMB     25       POPS     C314     CTL2    -0.180000       12.0110           0
      8970 MEMB     25       POPS     H14X     HAL2     0.900000E-01   1.00800           0
      8971 MEMB     25       POPS     H14Y     HAL2     0.900000E-01   1.00800           0
      8972 MEMB     25       POPS     C315     CTL2    -0.180000       12.0110           0
      8973 MEMB     25       POPS     H15X     HAL2     0.900000E-01   1.00800           0
      8974 MEMB     25       POPS     H15Y     HAL2     0.900000E-01   1.00800           0
      8975 MEMB     25       POPS     C316     CTL3    -0.270000       12.0110           0
      8976 MEMB     25       POPS     H16X     HAL3     0.900000E-01   1.00800           0
      8977 MEMB     25       POPS     H16Y     HAL3     0.900000E-01   1.00800           0
      8978 MEMB     25       POPS     H16Z     HAL3     0.900000E-01   1.00800           0
      8979 MEMB     27       POPS     N        NH3L    -0.300000       14.0070           0
      8980 MEMB     27       POPS     HN1      HCL      0.330000       1.00800           0
      8981 MEMB     27       POPS     HN2      HCL      0.330000       1.00800           0
      8982 MEMB     27       POPS     HN3      HCL      0.330000       1.00800           0
      8983 MEMB     27       POPS     C12      CTL1     0.210000       12.0110           0
      8984 MEMB     27       POPS     H12A     HBL      0.100000       1.00800           0
      8985 MEMB     27       POPS     C13      CCL      0.340000       12.0110           0
      8986 MEMB     27       POPS     O13A     OCL     -0.670000       15.9994           0
      8987 MEMB     27       POPS     O13B     OCL     -0.670000       15.9994           0
      8988 MEMB     27       POPS     C11      CTL2    -0.800000E-01   12.0110           0
      8989 MEMB     27       POPS     H11A     HAL2     0.900000E-01   1.00800           0
      8990 MEMB     27       POPS     H11B     HAL2     0.900000E-01   1.00800           0
      8991 MEMB     27       POPS     P        PL       1.500000       30.9740           0
      8992 MEMB     27       POPS     O13      O2L     -0.780000       15.9994           0
      8993 MEMB     27       POPS     O14      O2L     -0.780000       15.9994           0
      8994 MEMB     27       POPS     O12      OSLP    -0.570000       15.9994           0
      8995 MEMB     27       POPS     O11      OSLP    -0.570000       15.9994           0
      8996 MEMB     27       POPS     C1       CTL2    -0.800000E-01   12.0110           0
      8997 MEMB     27       POPS     HA       HAL2     0.900000E-01   1.00800           0
      8998 MEMB     27       POPS     HB       HAL2     0.900000E-01   1.00800           0
      8999 MEMB     27       POPS     C2       CTL1     0.170000       12.0110           0
      9000 MEMB     27       POPS     HS       HAL1     0.900000E-01   1.00800           0
      9001 MEMB     27       POPS     O21      OSL     -0.490000       15.9994           0
      9002 MEMB     27       POPS     C21      CL       0.900000       12.0110           0
      9003 MEMB     27       POPS     O22      OBL     -0.630000       15.9994           0
      9004 MEMB     27       POPS     C22      CTL2    -0.220000       12.0110           0
      9005 MEMB     27       POPS     H2R      HAL2     0.900000E-01   1.00800           0
      9006 MEMB     27       POPS     H2S      HAL2     0.900000E-01   1.00800           0
      9007 MEMB     27       POPS     C3       CTL2     0.800000E-01   12.0110           0
      9008 MEMB     27       POPS     HX       HAL2     0.900000E-01   1.00800           0
      9009 MEMB     27       POPS     HY       HAL2     0.900000E-01   1.00800           0
      9010 MEMB     27       POPS     O31      OSL     -0.490000       15.9994           0
      9011 MEMB     27       POPS     C31      CL       0.900000       12.0110           0
      9012 MEMB     27       POPS     O32      OBL     -0.630000       15.9994           0
      9013 MEMB     27       POPS     C32      CTL2    -0.220000       12.0110           0
      9014 MEMB     27       POPS     H2X      HAL2     0.900000E-01   1.00800           0
      9015 MEMB     27       POPS     H2Y      HAL2     0.900000E-01   1.00800           0
      9016 MEMB     27       POPS     C23      CTL2    -0.180000       12.0110           0
      9017 MEMB     27       POPS     H3R      HAL2     0.900000E-01   1.00800           0
      9018 MEMB     27       POPS     H3S      HAL2     0.900000E-01   1.00800           0
      9019 MEMB     27       POPS     C24      CTL2    -0.180000       12.0110           0
      9020 MEMB     27       POPS     H4R      HAL2     0.900000E-01   1.00800           0
      9021 MEMB     27       POPS     H4S      HAL2     0.900000E-01   1.00800           0
      9022 MEMB     27       POPS     C25      CTL2    -0.180000       12.0110           0
      9023 MEMB     27       POPS     H5R      HAL2     0.900000E-01   1.00800           0
      9024 MEMB     27       POPS     H5S      HAL2     0.900000E-01   1.00800           0
      9025 MEMB     27       POPS     C26      CTL2    -0.180000       12.0110           0
      9026 MEMB     27       POPS     H6R      HAL2     0.900000E-01   1.00800           0
      9027 MEMB     27       POPS     H6S      HAL2     0.900000E-01   1.00800           0
      9028 MEMB     27       POPS     C27      CTL2    -0.180000       12.0110           0
      9029 MEMB     27       POPS     H7R      HAL2     0.900000E-01   1.00800           0
      9030 MEMB     27       POPS     H7S      HAL2     0.900000E-01   1.00800           0
      9031 MEMB     27       POPS     C28      CTL2    -0.180000       12.0110           0
      9032 MEMB     27       POPS     H8R      HAL2     0.900000E-01   1.00800           0
      9033 MEMB     27       POPS     H8S      HAL2     0.900000E-01   1.00800           0
      9034 MEMB     27       POPS     C29      CEL1    -0.150000       12.0110           0
      9035 MEMB     27       POPS     H91      HEL1     0.150000       1.00800           0
      9036 MEMB     27       POPS     C210     CEL1    -0.150000       12.0110           0
      9037 MEMB     27       POPS     H101     HEL1     0.150000       1.00800           0
      9038 MEMB     27       POPS     C211     CTL2    -0.180000       12.0110           0
      9039 MEMB     27       POPS     H11R     HAL2     0.900000E-01   1.00800           0
      9040 MEMB     27       POPS     H11S     HAL2     0.900000E-01   1.00800           0
      9041 MEMB     27       POPS     C212     CTL2    -0.180000       12.0110           0
      9042 MEMB     27       POPS     H12R     HAL2     0.900000E-01   1.00800           0
      9043 MEMB     27       POPS     H12S     HAL2     0.900000E-01   1.00800           0
      9044 MEMB     27       POPS     C213     CTL2    -0.180000       12.0110           0
      9045 MEMB     27       POPS     H13R     HAL2     0.900000E-01   1.00800           0
      9046 MEMB     27       POPS     H13S     HAL2     0.900000E-01   1.00800           0
      9047 MEMB     27       POPS     C214     CTL2    -0.180000       12.0110           0
      9048 MEMB     27       POPS     H14R     HAL2     0.900000E-01   1.00800           0
      9049 MEMB     27       POPS     H14S     HAL2     0.900000E-01   1.00800           0
      9050 MEMB     27       POPS     C215     CTL2    -0.180000       12.0110           0
      9051 MEMB     27       POPS     H15R     HAL2     0.900000E-01   1.00800           0
      9052 MEMB     27       POPS     H15S     HAL2     0.900000E-01   1.00800           0
      9053 MEMB     27       POPS     C216     CTL2    -0.180000       12.0110           0
      9054 MEMB     27       POPS     H16R     HAL2     0.900000E-01   1.00800           0
      9055 MEMB     27       POPS     H16S     HAL2     0.900000E-01   1.00800           0
      9056 MEMB     27       POPS     C217     CTL2    -0.180000       12.0110           0
      9057 MEMB     27       POPS     H17R     HAL2     0.900000E-01   1.00800           0
      9058 MEMB     27       POPS     H17S     HAL2     0.900000E-01   1.00800           0
      9059 MEMB     27       POPS     C218     CTL3    -0.270000       12.0110           0
      9060 MEMB     27       POPS     H18R     HAL3     0.900000E-01   1.00800           0
      9061 MEMB     27       POPS     H18S     HAL3     0.900000E-01   1.00800           0
      9062 MEMB     27       POPS     H18T     HAL3     0.900000E-01   1.00800           0
      9063 MEMB     27       POPS     C33      CTL2    -0.180000       12.0110           0
      9064 MEMB     27       POPS     H3X      HAL2     0.900000E-01   1.00800           0
      9065 MEMB     27       POPS     H3Y      HAL2     0.900000E-01   1.00800           0
      9066 MEMB     27       POPS     C34      CTL2    -0.180000       12.0110           0
      9067 MEMB     27       POPS     H4X      HAL2     0.900000E-01   1.00800           0
      9068 MEMB     27       POPS     H4Y      HAL2     0.900000E-01   1.00800           0
      9069 MEMB     27       POPS     C35      CTL2    -0.180000       12.0110           0
      9070 MEMB     27       POPS     H5X      HAL2     0.900000E-01   1.00800           0
      9071 MEMB     27       POPS     H5Y      HAL2     0.900000E-01   1.00800           0
      9072 MEMB     27       POPS     C36      CTL2    -0.180000       12.0110           0
      9073 MEMB     27       POPS     H6X      HAL2     0.900000E-01   1.00800           0
      9074 MEMB     27       POPS     H6Y      HAL2     0.900000E-01   1.00800           0
      9075 MEMB     27       POPS     C37      CTL2    -0.180000       12.0110           0
      9076 MEMB     27       POPS     H7X      HAL2     0.900000E-01   1.00800           0
      9077 MEMB     27       POPS     H7Y      HAL2     0.900000E-01   1.00800           0
      9078 MEMB     27       POPS     C38      CTL2    -0.180000       12.0110           0
      9079 MEMB     27       POPS     H8X      HAL2     0.900000E-01   1.00800           0
      9080 MEMB     27       POPS     H8Y      HAL2     0.900000E-01   1.00800           0
      9081 MEMB     27       POPS     C39      CTL2    -0.180000       12.0110           0
      9082 MEMB     27       POPS     H9X      HAL2     0.900000E-01   1.00800           0
      9083 MEMB     27       POPS     H9Y      HAL2     0.900000E-01   1.00800           0
      9084 MEMB     27       POPS     C310     CTL2    -0.180000       12.0110           0
      9085 MEMB     27       POPS     H10X     HAL2     0.900000E-01   1.00800           0
      9086 MEMB     27       POPS     H10Y     HAL2     0.900000E-01   1.00800           0
      9087 MEMB     27       POPS     C311     CTL2    -0.180000       12.0110           0
      9088 MEMB     27       POPS     H11X     HAL2     0.900000E-01   1.00800           0
      9089 MEMB     27       POPS     H11Y     HAL2     0.900000E-01   1.00800           0
      9090 MEMB     27       POPS     C312     CTL2    -0.180000       12.0110           0
      9091 MEMB     27       POPS     H12X     HAL2     0.900000E-01   1.00800           0
      9092 MEMB     27       POPS     H12Y     HAL2     0.900000E-01   1.00800           0
      9093 MEMB     27       POPS     C313     CTL2    -0.180000       12.0110           0
      9094 MEMB     27       POPS     H13X     HAL2     0.900000E-01   1.00800           0
      9095 MEMB     27       POPS     H13Y     HAL2     0.900000E-01   1.00800           0
      9096 MEMB     27       POPS     C314     CTL2    -0.180000       12.0110           0
      9097 MEMB     27       POPS     H14X     HAL2     0.900000E-01   1.00800           0
      9098 MEMB     27       POPS     H14Y     HAL2     0.900000E-01   1.00800           0
      9099 MEMB     27       POPS     C315     CTL2    -0.180000       12.0110           0
      9100 MEMB     27       POPS     H15X     HAL2     0.900000E-01   1.00800           0
      9101 MEMB     27       POPS     H15Y     HAL2     0.900000E-01   1.00800           0
      9102 MEMB     27       POPS     C316     CTL3    -0.270000       12.0110           0
      9103 MEMB     27       POPS     H16X     HAL3     0.900000E-01   1.00800           0
      9104 MEMB     27       POPS     H16Y     HAL3     0.900000E-01   1.00800           0
      9105 MEMB     27       POPS     H16Z     HAL3     0.900000E-01   1.00800           0
      9106 MEMB     28       POPS     N        NH3L    -0.300000       14.0070           0
      9107 MEMB     28       POPS     HN1      HCL      0.330000       1.00800           0
      9108 MEMB     28       POPS     HN2      HCL      0.330000       1.00800           0
      9109 MEMB     28       POPS     HN3      HCL      0.330000       1.00800           0
      9110 MEMB     28       POPS     C12      CTL1     0.210000       12.0110           0
      9111 MEMB     28       POPS     H12A     HBL      0.100000       1.00800           0
      9112 MEMB     28       POPS     C13      CCL      0.340000       12.0110           0
      9113 MEMB     28       POPS     O13A     OCL     -0.670000       15.9994           0
      9114 MEMB     28       POPS     O13B     OCL     -0.670000       15.9994           0
      9115 MEMB     28       POPS     C11      CTL2    -0.800000E-01   12.0110           0
      9116 MEMB     28       POPS     H11A     HAL2     0.900000E-01   1.00800           0
      9117 MEMB     28       POPS     H11B     HAL2     0.900000E-01   1.00800           0
      9118 MEMB     28       POPS     P        PL       1.500000       30.9740           0
      9119 MEMB     28       POPS     O13      O2L     -0.780000       15.9994           0
      9120 MEMB     28       POPS     O14      O2L     -0.780000       15.9994           0
      9121 MEMB     28       POPS     O12      OSLP    -0.570000       15.9994           0
      9122 MEMB     28       POPS     O11      OSLP    -0.570000       15.9994           0
      9123 MEMB     28       POPS     C1       CTL2    -0.800000E-01   12.0110           0
      9124 MEMB     28       POPS     HA       HAL2     0.900000E-01   1.00800           0
      9125 MEMB     28       POPS     HB       HAL2     0.900000E-01   1.00800           0
      9126 MEMB     28       POPS     C2       CTL1     0.170000       12.0110           0
      9127 MEMB     28       POPS     HS       HAL1     0.900000E-01   1.00800           0
      9128 MEMB     28       POPS     O21      OSL     -0.490000       15.9994           0
      9129 MEMB     28       POPS     C21      CL       0.900000       12.0110           0
      9130 MEMB     28       POPS     O22      OBL     -0.630000       15.9994           0
      9131 MEMB     28       POPS     C22      CTL2    -0.220000       12.0110           0
      9132 MEMB     28       POPS     H2R      HAL2     0.900000E-01   1.00800           0
      9133 MEMB     28       POPS     H2S      HAL2     0.900000E-01   1.00800           0
      9134 MEMB     28       POPS     C3       CTL2     0.800000E-01   12.0110           0
      9135 MEMB     28       POPS     HX       HAL2     0.900000E-01   1.00800           0
      9136 MEMB     28       POPS     HY       HAL2     0.900000E-01   1.00800           0
      9137 MEMB     28       POPS     O31      OSL     -0.490000       15.9994           0
      9138 MEMB     28       POPS     C31      CL       0.900000       12.0110           0
      9139 MEMB     28       POPS     O32      OBL     -0.630000       15.9994           0
      9140 MEMB     28       POPS     C32      CTL2    -0.220000       12.0110           0
      9141 MEMB     28       POPS     H2X      HAL2     0.900000E-01   1.00800           0
      9142 MEMB     28       POPS     H2Y      HAL2     0.900000E-01   1.00800           0
      9143 MEMB     28       POPS     C23      CTL2    -0.180000       12.0110           0
      9144 MEMB     28       POPS     H3R      HAL2     0.900000E-01   1.00800           0
      9145 MEMB     28       POPS     H3S      HAL2     0.900000E-01   1.00800           0
      9146 MEMB     28       POPS     C24      CTL2    -0.180000       12.0110           0
      9147 MEMB     28       POPS     H4R      HAL2     0.900000E-01   1.00800           0
      9148 MEMB     28       POPS     H4S      HAL2     0.900000E-01   1.00800           0
      9149 MEMB     28       POPS     C25      CTL2    -0.180000       12.0110           0
      9150 MEMB     28       POPS     H5R      HAL2     0.900000E-01   1.00800           0
      9151 MEMB     28       POPS     H5S      HAL2     0.900000E-01   1.00800           0
      9152 MEMB     28       POPS     C26      CTL2    -0.180000       12.0110           0
      9153 MEMB     28       POPS     H6R      HAL2     0.900000E-01   1.00800           0
      9154 MEMB     28       POPS     H6S      HAL2     0.900000E-01   1.00800           0
      9155 MEMB     28       POPS     C27      CTL2    -0.180000       12.0110           0
      9156 MEMB     28       POPS     H7R      HAL2     0.900000E-01   1.00800           0
      9157 MEMB     28       POPS     H7S      HAL2     0.900000E-01   1.00800           0
      9158 MEMB     28       POPS     C28      CTL2    -0.180000       12.0110           0
      9159 MEMB     28       POPS     H8R      HAL2     0.900000E-01   1.00800           0
      9160 MEMB     28       POPS     H8S      HAL2     0.900000E-01   1.00800           0
      9161 MEMB     28       POPS     C29      CEL1    -0.150000       12.0110           0
      9162 MEMB     28       POPS     H91      HEL1     0.150000       1.00800           0
      9163 MEMB     28       POPS     C210     CEL1    -0.150000       12.0110           0
      9164 MEMB     28       POPS     H101     HEL1     0.150000       1.00800           0
      9165 MEMB     28       POPS     C211     CTL2    -0.180000       12.0110           0
      9166 MEMB     28       POPS     H11R     HAL2     0.900000E-01   1.00800           0
      9167 MEMB     28       POPS     H11S     HAL2     0.900000E-01   1.00800           0
      9168 MEMB     28       POPS     C212     CTL2    -0.180000       12.0110           0
      9169 MEMB     28       POPS     H12R     HAL2     0.900000E-01   1.00800           0
      9170 MEMB     28       POPS     H12S     HAL2     0.900000E-01   1.00800           0
      9171 MEMB     28       POPS     C213     CTL2    -0.180000       12.0110           0
      9172 MEMB     28       POPS     H13R     HAL2     0.900000E-01   1.00800           0
      9173 MEMB     28       POPS     H13S     HAL2     0.900000E-01   1.00800           0
      9174 MEMB     28       POPS     C214     CTL2    -0.180000       12.0110           0
      9175 MEMB     28       POPS     H14R     HAL2     0.900000E-01   1.00800           0
      9176 MEMB     28       POPS     H14S     HAL2     0.900000E-01   1.00800           0
      9177 MEMB     28       POPS     C215     CTL2    -0.180000       12.0110           0
      9178 MEMB     28       POPS     H15R     HAL2     0.900000E-01   1.00800           0
      9179 MEMB     28       POPS     H15S     HAL2     0.900000E-01   1.00800           0
      9180 MEMB     28       POPS     C216     CTL2    -0.180000       12.0110           0
      9181 MEMB     28       POPS     H16R     HAL2     0.900000E-01   1.00800           0
      9182 MEMB     28       POPS     H16S     HAL2     0.900000E-01   1.00800           0
      9183 MEMB     28       POPS     C217     CTL2    -0.180000       12.0110           0
      9184 MEMB     28       POPS     H17R     HAL2     0.900000E-01   1.00800           0
      9185 MEMB     28       POPS     H17S     HAL2     0.900000E-01   1.00800           0
      9186 MEMB     28       POPS     C218     CTL3    -0.270000       12.0110           0
      9187 MEMB     28       POPS     H18R     HAL3     0.900000E-01   1.00800           0
      9188 MEMB     28       POPS     H18S     HAL3     0.900000E-01   1.00800           0
      9189 MEMB     28       POPS     H18T     HAL3     0.900000E-01   1.00800           0
      9190 MEMB     28       POPS     C33      CTL2    -0.180000       12.0110           0
      9191 MEMB     28       POPS     H3X      HAL2     0.900000E-01   1.00800           0
      9192 MEMB     28       POPS     H3Y      HAL2     0.900000E-01   1.00800           0
      9193 MEMB     28       POPS     C34      CTL2    -0.180000       12.0110           0
      9194 MEMB     28       POPS     H4X      HAL2     0.900000E-01   1.00800           0
      9195 MEMB     28       POPS     H4Y      HAL2     0.900000E-01   1.00800           0
      9196 MEMB     28       POPS     C35      CTL2    -0.180000       12.0110           0
      9197 MEMB     28       POPS     H5X      HAL2     0.900000E-01   1.00800           0
      9198 MEMB     28       POPS     H5Y      HAL2     0.900000E-01   1.00800           0
      9199 MEMB     28       POPS     C36      CTL2    -0.180000       12.0110           0
      9200 MEMB     28       POPS     H6X      HAL2     0.900000E-01   1.00800           0
      9201 MEMB     28       POPS     H6Y      HAL2     0.900000E-01   1.00800           0
      9202 MEMB     28       POPS     C37      CTL2    -0.180000       12.0110           0
      9203 MEMB     28       POPS     H7X      HAL2     0.900000E-01   1.00800           0
      9204 MEMB     28       POPS     H7Y      HAL2     0.900000E-01   1.00800           0
      9205 MEMB     28       POPS     C38      CTL2    -0.180000       12.0110           0
      9206 MEMB     28       POPS     H8X      HAL2     0.900000E-01   1.00800           0
      9207 MEMB     28       POPS     H8Y      HAL2     0.900000E-01   1.00800           0
      9208 MEMB     28       POPS     C39      CTL2    -0.180000       12.0110           0
      9209 MEMB     28       POPS     H9X      HAL2     0.900000E-01   1.00800           0
      9210 MEMB     28       POPS     H9Y      HAL2     0.900000E-01   1.00800           0
      9211 MEMB     28       POPS     C310     CTL2    -0.180000       12.0110           0
      9212 MEMB     28       POPS     H10X     HAL2     0.900000E-01   1.00800           0
      9213 MEMB     28       POPS     H10Y     HAL2     0.900000E-01   1.00800           0
      9214 MEMB     28       POPS     C311     CTL2    -0.180000       12.0110           0
      9215 MEMB     28       POPS     H11X     HAL2     0.900000E-01   1.00800           0
      9216 MEMB     28       POPS     H11Y     HAL2     0.900000E-01   1.00800           0
      9217 MEMB     28       POPS     C312     CTL2    -0.180000       12.0110           0
      9218 MEMB     28       POPS     H12X     HAL2     0.900000E-01   1.00800           0
      9219 MEMB     28       POPS     H12Y     HAL2     0.900000E-01   1.00800           0
      9220 MEMB     28       POPS     C313     CTL2    -0.180000       12.0110           0
      9221 MEMB     28       POPS     H13X     HAL2     0.900000E-01   1.00800           0
      9222 MEMB     28       POPS     H13Y     HAL2     0.900000E-01   1.00800           0
      9223 MEMB     28       POPS     C314     CTL2    -0.180000       12.0110           0
      9224 MEMB     28       POPS     H14X     HAL2     0.900000E-01   1.00800           0
      9225 MEMB     28       POPS     H14Y     HAL2     0.900000E-01   1.00800           0
      9226 MEMB     28       POPS     C315     CTL2    -0.180000       12.0110           0
      9227 MEMB     28       POPS     H15X     HAL2     0.900000E-01   1.00800           0
      9228 MEMB     28       POPS     H15Y     HAL2     0.900000E-01   1.00800           0
      9229 MEMB     28       POPS     C316     CTL3    -0.270000       12.0110           0
      9230 MEMB     28       POPS     H16X     HAL3     0.900000E-01   1.00800           0
      9231 MEMB     28       POPS     H16Y     HAL3     0.900000E-01   1.00800           0
      9232 MEMB     28       POPS     H16Z     HAL3     0.900000E-01   1.00800           0
      9233 MEMB     34       POPS     N        NH3L    -0.300000       14.0070           0
      9234 MEMB     34       POPS     HN1      HCL      0.330000       1.00800           0
      9235 MEMB     34       POPS     HN2      HCL      0.330000       1.00800           0
      9236 MEMB     34       POPS     HN3      HCL      0.330000       1.00800           0
      9237 MEMB     34       POPS     C12      CTL1     0.210000       12.0110           0
      9238 MEMB     34       POPS     H12A     HBL      0.100000       1.00800           0
      9239 MEMB     34       POPS     C13      CCL      0.340000       12.0110           0
      9240 MEMB     34       POPS     O13A     OCL     -0.670000       15.9994           0
      9241 MEMB     34       POPS     O13B     OCL     -0.670000       15.9994           0
      9242 MEMB     34       POPS     C11      CTL2    -0.800000E-01   12.0110           0
      9243 MEMB     34       POPS     H11A     HAL2     0.900000E-01   1.00800           0
      9244 MEMB     34       POPS     H11B     HAL2     0.900000E-01   1.00800           0
      9245 MEMB     34       POPS     P        PL       1.500000       30.9740           0
      9246 MEMB     34       POPS     O13      O2L     -0.780000       15.9994           0
      9247 MEMB     34       POPS     O14      O2L     -0.780000       15.9994           0
      9248 MEMB     34       POPS     O12      OSLP    -0.570000       15.9994           0
      9249 MEMB     34       POPS     O11      OSLP    -0.570000       15.9994           0
      9250 MEMB     34       POPS     C1       CTL2    -0.800000E-01   12.0110           0
      9251 MEMB     34       POPS     HA       HAL2     0.900000E-01   1.00800           0
      9252 MEMB     34       POPS     HB       HAL2     0.900000E-01   1.00800           0
      9253 MEMB     34       POPS     C2       CTL1     0.170000       12.0110           0
      9254 MEMB     34       POPS     HS       HAL1     0.900000E-01   1.00800           0
      9255 MEMB     34       POPS     O21      OSL     -0.490000       15.9994           0
      9256 MEMB     34       POPS     C21      CL       0.900000       12.0110           0
      9257 MEMB     34       POPS     O22      OBL     -0.630000       15.9994           0
      9258 MEMB     34       POPS     C22      CTL2    -0.220000       12.0110           0
      9259 MEMB     34       POPS     H2R      HAL2     0.900000E-01   1.00800           0
      9260 MEMB     34       POPS     H2S      HAL2     0.900000E-01   1.00800           0
      9261 MEMB     34       POPS     C3       CTL2     0.800000E-01   12.0110           0
      9262 MEMB     34       POPS     HX       HAL2     0.900000E-01   1.00800           0
      9263 MEMB     34       POPS     HY       HAL2     0.900000E-01   1.00800           0
      9264 MEMB     34       POPS     O31      OSL     -0.490000       15.9994           0
      9265 MEMB     34       POPS     C31      CL       0.900000       12.0110           0
      9266 MEMB     34       POPS     O32      OBL     -0.630000       15.9994           0
      9267 MEMB     34       POPS     C32      CTL2    -0.220000       12.0110           0
      9268 MEMB     34       POPS     H2X      HAL2     0.900000E-01   1.00800           0
      9269 MEMB     34       POPS     H2Y      HAL2     0.900000E-01   1.00800           0
      9270 MEMB     34       POPS     C23      CTL2    -0.180000       12.0110           0
      9271 MEMB     34       POPS     H3R      HAL2     0.900000E-01   1.00800           0
      9272 MEMB     34       POPS     H3S      HAL2     0.900000E-01   1.00800           0
      9273 MEMB     34       POPS     C24      CTL2    -0.180000       12.0110           0
      9274 MEMB     34       POPS     H4R      HAL2     0.900000E-01   1.00800           0
      9275 MEMB     34       POPS     H4S      HAL2     0.900000E-01   1.00800           0
      9276 MEMB     34       POPS     C25      CTL2    -0.180000       12.0110           0
      9277 MEMB     34       POPS     H5R      HAL2     0.900000E-01   1.00800           0
      9278 MEMB     34       POPS     H5S      HAL2     0.900000E-01   1.00800           0
      9279 MEMB     34       POPS     C26      CTL2    -0.180000       12.0110           0
      9280 MEMB     34       POPS     H6R      HAL2     0.900000E-01   1.00800           0
      9281 MEMB     34       POPS     H6S      HAL2     0.900000E-01   1.00800           0
      9282 MEMB     34       POPS     C27      CTL2    -0.180000       12.0110           0
      9283 MEMB     34       POPS     H7R      HAL2     0.900000E-01   1.00800           0
      9284 MEMB     34       POPS     H7S      HAL2     0.900000E-01   1.00800           0
      9285 MEMB     34       POPS     C28      CTL2    -0.180000       12.0110           0
      9286 MEMB     34       POPS     H8R      HAL2     0.900000E-01   1.00800           0
      9287 MEMB     34       POPS     H8S      HAL2     0.900000E-01   1.00800           0
      9288 MEMB     34       POPS     C29      CEL1    -0.150000       12.0110           0
      9289 MEMB     34       POPS     H91      HEL1     0.150000       1.00800           0
      9290 MEMB     34       POPS     C210     CEL1    -0.150000       12.0110           0
      9291 MEMB     34       POPS     H101     HEL1     0.150000       1.00800           0
      9292 MEMB     34       POPS     C211     CTL2    -0.180000       12.0110           0
      9293 MEMB     34       POPS     H11R     HAL2     0.900000E-01   1.00800           0
      9294 MEMB     34       POPS     H11S     HAL2     0.900000E-01   1.00800           0
      9295 MEMB     34       POPS     C212     CTL2    -0.180000       12.0110           0
      9296 MEMB     34       POPS     H12R     HAL2     0.900000E-01   1.00800           0
      9297 MEMB     34       POPS     H12S     HAL2     0.900000E-01   1.00800           0
      9298 MEMB     34       POPS     C213     CTL2    -0.180000       12.0110           0
      9299 MEMB     34       POPS     H13R     HAL2     0.900000E-01   1.00800           0
      9300 MEMB     34       POPS     H13S     HAL2     0.900000E-01   1.00800           0
      9301 MEMB     34       POPS     C214     CTL2    -0.180000       12.0110           0
      9302 MEMB     34       POPS     H14R     HAL2     0.900000E-01   1.00800           0
      9303 MEMB     34       POPS     H14S     HAL2     0.900000E-01   1.00800           0
      9304 MEMB     34       POPS     C215     CTL2    -0.180000       12.0110           0
      9305 MEMB     34       POPS     H15R     HAL2     0.900000E-01   1.00800           0
      9306 MEMB     34       POPS     H15S     HAL2     0.900000E-01   1.00800           0
      9307 MEMB     34       POPS     C216     CTL2    -0.180000       12.0110           0
      9308 MEMB     34       POPS     H16R     HAL2     0.900000E-01   1.00800           0
      9309 MEMB     34       POPS     H16S     HAL2     0.900000E-01   1.00800           0
      9310 MEMB     34       POPS     C217     CTL2    -0.180000       12.0110           0
      9311 MEMB     34       POPS     H17R     HAL2     0.900000E-01   1.00800           0
      9312 MEMB     34       POPS     H17S     HAL2     0.900000E-01   1.00800           0
      9313 MEMB     34       POPS     C218     CTL3    -0.270000       12.0110           0
      9314 MEMB     34       POPS     H18R     HAL3     0.900000E-01   1.00800           0
      9315 MEMB     34       POPS     H18S     HAL3     0.900000E-01   1.00800           0
      9316 MEMB     34       POPS     H18T     HAL3     0.900000E-01   1.00800           0
      9317 MEMB     34       POPS     C33      CTL2    -0.180000       12.0110           0
      9318 MEMB     34       POPS     H3X      HAL2     0.900000E-01   1.00800           0
      9319 MEMB     34       POPS     H3Y      HAL2     0.900000E-01   1.00800           0
      9320 MEMB     34       POPS     C34      CTL2    -0.180000       12.0110           0
      9321 MEMB     34       POPS     H4X      HAL2     0.900000E-01   1.00800           0
      9322 MEMB     34       POPS     H4Y      HAL2     0.900000E-01   1.00800           0
      9323 MEMB     34       POPS     C35      CTL2    -0.180000       12.0110           0
      9324 MEMB     34       POPS     H5X      HAL2     0.900000E-01   1.00800           0
      9325 MEMB     34       POPS     H5Y      HAL2     0.900000E-01   1.00800           0
      9326 MEMB     34       POPS     C36      CTL2    -0.180000       12.0110           0
      9327 MEMB     34       POPS     H6X      HAL2     0.900000E-01   1.00800           0
      9328 MEMB     34       POPS     H6Y      HAL2     0.900000E-01   1.00800           0
      9329 MEMB     34       POPS     C37      CTL2    -0.180000       12.0110           0
      9330 MEMB     34       POPS     H7X      HAL2     0.900000E-01   1.00800           0
      9331 MEMB     34       POPS     H7Y      HAL2     0.900000E-01   1.00800           0
      9332 MEMB     34       POPS     C38      CTL2    -0.180000       12.0110           0
      9333 MEMB     34       POPS     H8X      HAL2     0.900000E-01   1.00800           0
      9334 MEMB     34       POPS     H8Y      HAL2     0.900000E-01   1.00800           0
      9335 MEMB     34       POPS     C39      CTL2    -0.180000       12.0110           0
      9336 MEMB     34       POPS     H9X      HAL2     0.900000E-01   1.00800           0
      9337 MEMB     34       POPS     H9Y      HAL2     0.900000E-01   1.00800           0
      9338 MEMB     34       POPS     C310     CTL2    -0.180000       12.0110           0
      9339 MEMB     34       POPS     H10X     HAL2     0.900000E-01   1.00800           0
      9340 MEMB     34       POPS     H10Y     HAL2     0.900000E-01   1.00800           0
      9341 MEMB     34       POPS     C311     CTL2    -0.180000       12.0110           0
      9342 MEMB     34       POPS     H11X     HAL2     0.900000E-01   1.00800           0
      9343 MEMB     34       POPS     H11Y     HAL2     0.900000E-01   1.00800           0
      9344 MEMB     34       POPS     C312     CTL2    -0.180000       12.0110           0
      9345 MEMB     34       POPS     H12X     HAL2     0.900000E-01   1.00800           0
      9346 MEMB     34       POPS     H12Y     HAL2     0.900000E-01   1.00800           0
      9347 MEMB     34       POPS     C313     CTL2    -0.180000       12.0110           0
      9348 MEMB     34       POPS     H13X     HAL2     0.900000E-01   1.00800           0
      9349 MEMB     34       POPS     H13Y     HAL2     0.900000E-01   1.00800           0
      9350 MEMB     34       POPS     C314     CTL2    -0.180000       12.0110           0
      9351 MEMB     34       POPS     H14X     HAL2     0.900000E-01   1.00800           0
      9352 MEMB     34       POPS     H14Y     HAL2     0.900000E-01   1.00800           0
      9353 MEMB     34       POPS     C315     CTL2    -0.180000       12.0110           0
      9354 MEMB     34       POPS     H15X     HAL2     0.900000E-01   1.00800           0
      9355 MEMB     34       POPS     H15Y     HAL2     0.900000E-01   1.00800           0
      9356 MEMB     34       POPS     C316     CTL3    -0.270000       12.0110           0
      9357 MEMB     34       POPS     H16X     HAL3     0.900000E-01   1.00800           0
      9358 MEMB     34       POPS     H16Y     HAL3     0.900000E-01   1.00800           0
      9359 MEMB     34       POPS     H16Z     HAL3     0.900000E-01   1.00800           0
      9360 MEMB     41       POPS     N        NH3L    -0.300000       14.0070           0
      9361 MEMB     41       POPS     HN1      HCL      0.330000       1.00800           0
      9362 MEMB     41       POPS     HN2      HCL      0.330000       1.00800           0
      9363 MEMB     41       POPS     HN3      HCL      0.330000       1.00800           0
      9364 MEMB     41       POPS     C12      CTL1     0.210000       12.0110           0
      9365 MEMB     41       POPS     H12A     HBL      0.100000       1.00800           0
      9366 MEMB     41       POPS     C13      CCL      0.340000       12.0110           0
      9367 MEMB     41       POPS     O13A     OCL     -0.670000       15.9994           0
      9368 MEMB     41       POPS     O13B     OCL     -0.670000       15.9994           0
      9369 MEMB     41       POPS     C11      CTL2    -0.800000E-01   12.0110           0
      9370 MEMB     41       POPS     H11A     HAL2     0.900000E-01   1.00800           0
      9371 MEMB     41       POPS     H11B     HAL2     0.900000E-01   1.00800           0
      9372 MEMB     41       POPS     P        PL       1.500000       30.9740           0
      9373 MEMB     41       POPS     O13      O2L     -0.780000       15.9994           0
      9374 MEMB     41       POPS     O14      O2L     -0.780000       15.9994           0
      9375 MEMB     41       POPS     O12      OSLP    -0.570000       15.9994           0
      9376 MEMB     41       POPS     O11      OSLP    -0.570000       15.9994           0
      9377 MEMB     41       POPS     C1       CTL2    -0.800000E-01   12.0110           0
      9378 MEMB     41       POPS     HA       HAL2     0.900000E-01   1.00800           0
      9379 MEMB     41       POPS     HB       HAL2     0.900000E-01   1.00800           0
      9380 MEMB     41       POPS     C2       CTL1     0.170000       12.0110           0
      9381 MEMB     41       POPS     HS       HAL1     0.900000E-01   1.00800           0
      9382 MEMB     41       POPS     O21      OSL     -0.490000       15.9994           0
      9383 MEMB     41       POPS     C21      CL       0.900000       12.0110           0
      9384 MEMB     41       POPS     O22      OBL     -0.630000       15.9994           0
      9385 MEMB     41       POPS     C22      CTL2    -0.220000       12.0110           0
      9386 MEMB     41       POPS     H2R      HAL2     0.900000E-01   1.00800           0
      9387 MEMB     41       POPS     H2S      HAL2     0.900000E-01   1.00800           0
      9388 MEMB     41       POPS     C3       CTL2     0.800000E-01   12.0110           0
      9389 MEMB     41       POPS     HX       HAL2     0.900000E-01   1.00800           0
      9390 MEMB     41       POPS     HY       HAL2     0.900000E-01   1.00800           0
      9391 MEMB     41       POPS     O31      OSL     -0.490000       15.9994           0
      9392 MEMB     41       POPS     C31      CL       0.900000       12.0110           0
      9393 MEMB     41       POPS     O32      OBL     -0.630000       15.9994           0
      9394 MEMB     41       POPS     C32      CTL2    -0.220000       12.0110           0
      9395 MEMB     41       POPS     H2X      HAL2     0.900000E-01   1.00800           0
      9396 MEMB     41       POPS     H2Y      HAL2     0.900000E-01   1.00800           0
      9397 MEMB     41       POPS     C23      CTL2    -0.180000       12.0110           0
      9398 MEMB     41       POPS     H3R      HAL2     0.900000E-01   1.00800           0
      9399 MEMB     41       POPS     H3S      HAL2     0.900000E-01   1.00800           0
      9400 MEMB     41       POPS     C24      CTL2    -0.180000       12.0110           0
      9401 MEMB     41       POPS     H4R      HAL2     0.900000E-01   1.00800           0
      9402 MEMB     41       POPS     H4S      HAL2     0.900000E-01   1.00800           0
      9403 MEMB     41       POPS     C25      CTL2    -0.180000       12.0110           0
      9404 MEMB     41       POPS     H5R      HAL2     0.900000E-01   1.00800           0
      9405 MEMB     41       POPS     H5S      HAL2     0.900000E-01   1.00800           0
      9406 MEMB     41       POPS     C26      CTL2    -0.180000       12.0110           0
      9407 MEMB     41       POPS     H6R      HAL2     0.900000E-01   1.00800           0
      9408 MEMB     41       POPS     H6S      HAL2     0.900000E-01   1.00800           0
      9409 MEMB     41       POPS     C27      CTL2    -0.180000       12.0110           0
      9410 MEMB     41       POPS     H7R      HAL2     0.900000E-01   1.00800           0
      9411 MEMB     41       POPS     H7S      HAL2     0.900000E-01   1.00800           0
      9412 MEMB     41       POPS     C28      CTL2    -0.180000       12.0110           0
      9413 MEMB     41       POPS     H8R      HAL2     0.900000E-01   1.00800           0
      9414 MEMB     41       POPS     H8S      HAL2     0.900000E-01   1.00800           0
      9415 MEMB     41       POPS     C29      CEL1    -0.150000       12.0110           0
      9416 MEMB     41       POPS     H91      HEL1     0.150000       1.00800           0
      9417 MEMB     41       POPS     C210     CEL1    -0.150000       12.0110           0
      9418 MEMB     41       POPS     H101     HEL1     0.150000       1.00800           0
      9419 MEMB     41       POPS     C211     CTL2    -0.180000       12.0110           0
      9420 MEMB     41       POPS     H11R     HAL2     0.900000E-01   1.00800           0
      9421 MEMB     41       POPS     H11S     HAL2     0.900000E-01   1.00800           0
      9422 MEMB     41       POPS     C212     CTL2    -0.180000       12.0110           0
      9423 MEMB     41       POPS     H12R     HAL2     0.900000E-01   1.00800           0
      9424 MEMB     41       POPS     H12S     HAL2     0.900000E-01   1.00800           0
      9425 MEMB     41       POPS     C213     CTL2    -0.180000       12.0110           0
      9426 MEMB     41       POPS     H13R     HAL2     0.900000E-01   1.00800           0
      9427 MEMB     41       POPS     H13S     HAL2     0.900000E-01   1.00800           0
      9428 MEMB     41       POPS     C214     CTL2    -0.180000       12.0110           0
      9429 MEMB     41       POPS     H14R     HAL2     0.900000E-01   1.00800           0
      9430 MEMB     41       POPS     H14S     HAL2     0.900000E-01   1.00800           0
      9431 MEMB     41       POPS     C215     CTL2    -0.180000       12.0110           0
      9432 MEMB     41       POPS     H15R     HAL2     0.900000E-01   1.00800           0
      9433 MEMB     41       POPS     H15S     HAL2     0.900000E-01   1.00800           0
      9434 MEMB     41       POPS     C216     CTL2    -0.180000       12.0110           0
      9435 MEMB     41       POPS     H16R     HAL2     0.900000E-01   1.00800           0
      9436 MEMB     41       POPS     H16S     HAL2     0.900000E-01   1.00800           0
      9437 MEMB     41       POPS     C217     CTL2    -0.180000       12.0110           0
      9438 MEMB     41       POPS     H17R     HAL2     0.900000E-01   1.00800           0
      9439 MEMB     41       POPS     H17S     HAL2     0.900000E-01   1.00800           0
      9440 MEMB     41       POPS     C218     CTL3    -0.270000       12.0110           0
      9441 MEMB     41       POPS     H18R     HAL3     0.900000E-01   1.00800           0
      9442 MEMB     41       POPS     H18S     HAL3     0.900000E-01   1.00800           0
      9443 MEMB     41       POPS     H18T     HAL3     0.900000E-01   1.00800           0
      9444 MEMB     41       POPS     C33      CTL2    -0.180000       12.0110           0
      9445 MEMB     41       POPS     H3X      HAL2     0.900000E-01   1.00800           0
      9446 MEMB     41       POPS     H3Y      HAL2     0.900000E-01   1.00800           0
      9447 MEMB     41       POPS     C34      CTL2    -0.180000       12.0110           0
      9448 MEMB     41       POPS     H4X      HAL2     0.900000E-01   1.00800           0
      9449 MEMB     41       POPS     H4Y      HAL2     0.900000E-01   1.00800           0
      9450 MEMB     41       POPS     C35      CTL2    -0.180000       12.0110           0
      9451 MEMB     41       POPS     H5X      HAL2     0.900000E-01   1.00800           0
      9452 MEMB     41       POPS     H5Y      HAL2     0.900000E-01   1.00800           0
      9453 MEMB     41       POPS     C36      CTL2    -0.180000       12.0110           0
      9454 MEMB     41       POPS     H6X      HAL2     0.900000E-01   1.00800           0
      9455 MEMB     41       POPS     H6Y      HAL2     0.900000E-01   1.00800           0
      9456 MEMB     41       POPS     C37      CTL2    -0.180000       12.0110           0
      9457 MEMB     41       POPS     H7X      HAL2     0.900000E-01   1.00800           0
      9458 MEMB     41       POPS     H7Y      HAL2     0.900000E-01   1.00800           0
      9459 MEMB     41       POPS     C38      CTL2    -0.180000       12.0110           0
      9460 MEMB     41       POPS     H8X      HAL2     0.900000E-01   1.00800           0
      9461 MEMB     41       POPS     H8Y      HAL2     0.900000E-01   1.00800           0
      9462 MEMB     41       POPS     C39      CTL2    -0.180000       12.0110           0
      9463 MEMB     41       POPS     H9X      HAL2     0.900000E-01   1.00800           0
      9464 MEMB     41       POPS     H9Y      HAL2     0.900000E-01   1.00800           0
      9465 MEMB     41       POPS     C310     CTL2    -0.180000       12.0110           0
      9466 MEMB     41       POPS     H10X     HAL2     0.900000E-01   1.00800           0
      9467 MEMB     41       POPS     H10Y     HAL2     0.900000E-01   1.00800           0
      9468 MEMB     41       POPS     C311     CTL2    -0.180000       12.0110           0
      9469 MEMB     41       POPS     H11X     HAL2     0.900000E-01   1.00800           0
      9470 MEMB     41       POPS     H11Y     HAL2     0.900000E-01   1.00800           0
      9471 MEMB     41       POPS     C312     CTL2    -0.180000       12.0110           0
      9472 MEMB     41       POPS     H12X     HAL2     0.900000E-01   1.00800           0
      9473 MEMB     41       POPS     H12Y     HAL2     0.900000E-01   1.00800           0
      9474 MEMB     41       POPS     C313     CTL2    -0.180000       12.0110           0
      9475 MEMB     41       POPS     H13X     HAL2     0.900000E-01   1.00800           0
      9476 MEMB     41       POPS     H13Y     HAL2     0.900000E-01   1.00800           0
      9477 MEMB     41       POPS     C314     CTL2    -0.180000       12.0110           0
      9478 MEMB     41       POPS     H14X     HAL2     0.900000E-01   1.00800           0
      9479 MEMB     41       POPS     H14Y     HAL2     0.900000E-01   1.00800           0
      9480 MEMB     41       POPS     C315     CTL2    -0.180000       12.0110           0
      9481 MEMB     41       POPS     H15X     HAL2     0.900000E-01   1.00800           0
      9482 MEMB     41       POPS     H15Y     HAL2     0.900000E-01   1.00800           0
      9483 MEMB     41       POPS     C316     CTL3    -0.270000       12.0110           0
      9484 MEMB     41       POPS     H16X     HAL3     0.900000E-01   1.00800           0
      9485 MEMB     41       POPS     H16Y     HAL3     0.900000E-01   1.00800           0
      9486 MEMB     41       POPS     H16Z     HAL3     0.900000E-01   1.00800           0
      9487 MEMB     44       POPS     N        NH3L    -0.300000       14.0070           0
      9488 MEMB     44       POPS     HN1      HCL      0.330000       1.00800           0
      9489 MEMB     44       POPS     HN2      HCL      0.330000       1.00800           0
      9490 MEMB     44       POPS     HN3      HCL      0.330000       1.00800           0
      9491 MEMB     44       POPS     C12      CTL1     0.210000       12.0110           0
      9492 MEMB     44       POPS     H12A     HBL      0.100000       1.00800           0
      9493 MEMB     44       POPS     C13      CCL      0.340000       12.0110           0
      9494 MEMB     44       POPS     O13A     OCL     -0.670000       15.9994           0
      9495 MEMB     44       POPS     O13B     OCL     -0.670000       15.9994           0
      9496 MEMB     44       POPS     C11      CTL2    -0.800000E-01   12.0110           0
      9497 MEMB     44       POPS     H11A     HAL2     0.900000E-01   1.00800           0
      9498 MEMB     44       POPS     H11B     HAL2     0.900000E-01   1.00800           0
      9499 MEMB     44       POPS     P        PL       1.500000       30.9740           0
      9500 MEMB     44       POPS     O13      O2L     -0.780000       15.9994           0
      9501 MEMB     44       POPS     O14      O2L     -0.780000       15.9994           0
      9502 MEMB     44       POPS     O12      OSLP    -0.570000       15.9994           0
      9503 MEMB     44       POPS     O11      OSLP    -0.570000       15.9994           0
      9504 MEMB     44       POPS     C1       CTL2    -0.800000E-01   12.0110           0
      9505 MEMB     44       POPS     HA       HAL2     0.900000E-01   1.00800           0
      9506 MEMB     44       POPS     HB       HAL2     0.900000E-01   1.00800           0
      9507 MEMB     44       POPS     C2       CTL1     0.170000       12.0110           0
      9508 MEMB     44       POPS     HS       HAL1     0.900000E-01   1.00800           0
      9509 MEMB     44       POPS     O21      OSL     -0.490000       15.9994           0
      9510 MEMB     44       POPS     C21      CL       0.900000       12.0110           0
      9511 MEMB     44       POPS     O22      OBL     -0.630000       15.9994           0
      9512 MEMB     44       POPS     C22      CTL2    -0.220000       12.0110           0
      9513 MEMB     44       POPS     H2R      HAL2     0.900000E-01   1.00800           0
      9514 MEMB     44       POPS     H2S      HAL2     0.900000E-01   1.00800           0
      9515 MEMB     44       POPS     C3       CTL2     0.800000E-01   12.0110           0
      9516 MEMB     44       POPS     HX       HAL2     0.900000E-01   1.00800           0
      9517 MEMB     44       POPS     HY       HAL2     0.900000E-01   1.00800           0
      9518 MEMB     44       POPS     O31      OSL     -0.490000       15.9994           0
      9519 MEMB     44       POPS     C31      CL       0.900000       12.0110           0
      9520 MEMB     44       POPS     O32      OBL     -0.630000       15.9994           0
      9521 MEMB     44       POPS     C32      CTL2    -0.220000       12.0110           0
      9522 MEMB     44       POPS     H2X      HAL2     0.900000E-01   1.00800           0
      9523 MEMB     44       POPS     H2Y      HAL2     0.900000E-01   1.00800           0
      9524 MEMB     44       POPS     C23      CTL2    -0.180000       12.0110           0
      9525 MEMB     44       POPS     H3R      HAL2     0.900000E-01   1.00800           0
      9526 MEMB     44       POPS     H3S      HAL2     0.900000E-01   1.00800           0
      9527 MEMB     44       POPS     C24      CTL2    -0.180000       12.0110           0
      9528 MEMB     44       POPS     H4R      HAL2     0.900000E-01   1.00800           0
      9529 MEMB     44       POPS     H4S      HAL2     0.900000E-01   1.00800           0
      9530 MEMB     44       POPS     C25      CTL2    -0.180000       12.0110           0
      9531 MEMB     44       POPS     H5R      HAL2     0.900000E-01   1.00800           0
      9532 MEMB     44       POPS     H5S      HAL2     0.900000E-01   1.00800           0
      9533 MEMB     44       POPS     C26      CTL2    -0.180000       12.0110           0
      9534 MEMB     44       POPS     H6R      HAL2     0.900000E-01   1.00800           0
      9535 MEMB     44       POPS     H6S      HAL2     0.900000E-01   1.00800           0
      9536 MEMB     44       POPS     C27      CTL2    -0.180000       12.0110           0
      9537 MEMB     44       POPS     H7R      HAL2     0.900000E-01   1.00800           0
      9538 MEMB     44       POPS     H7S      HAL2     0.900000E-01   1.00800           0
      9539 MEMB     44       POPS     C28      CTL2    -0.180000       12.0110           0
      9540 MEMB     44       POPS     H8R      HAL2     0.900000E-01   1.00800           0
      9541 MEMB     44       POPS     H8S      HAL2     0.900000E-01   1.00800           0
      9542 MEMB     44       POPS     C29      CEL1    -0.150000       12.0110           0
      9543 MEMB     44       POPS     H91      HEL1     0.150000       1.00800           0
      9544 MEMB     44       POPS     C210     CEL1    -0.150000       12.0110           0
      9545 MEMB     44       POPS     H101     HEL1     0.150000       1.00800           0
      9546 MEMB     44       POPS     C211     CTL2    -0.180000       12.0110           0
      9547 MEMB     44       POPS     H11R     HAL2     0.900000E-01   1.00800           0
      9548 MEMB     44       POPS     H11S     HAL2     0.900000E-01   1.00800           0
      9549 MEMB     44       POPS     C212     CTL2    -0.180000       12.0110           0
      9550 MEMB     44       POPS     H12R     HAL2     0.900000E-01   1.00800           0
      9551 MEMB     44       POPS     H12S     HAL2     0.900000E-01   1.00800           0
      9552 MEMB     44       POPS     C213     CTL2    -0.180000       12.0110           0
      9553 MEMB     44       POPS     H13R     HAL2     0.900000E-01   1.00800           0
      9554 MEMB     44       POPS     H13S     HAL2     0.900000E-01   1.00800           0
      9555 MEMB     44       POPS     C214     CTL2    -0.180000       12.0110           0
      9556 MEMB     44       POPS     H14R     HAL2     0.900000E-01   1.00800           0
      9557 MEMB     44       POPS     H14S     HAL2     0.900000E-01   1.00800           0
      9558 MEMB     44       POPS     C215     CTL2    -0.180000       12.0110           0
      9559 MEMB     44       POPS     H15R     HAL2     0.900000E-01   1.00800           0
      9560 MEMB     44       POPS     H15S     HAL2     0.900000E-01   1.00800           0
      9561 MEMB     44       POPS     C216     CTL2    -0.180000       12.0110           0
      9562 MEMB     44       POPS     H16R     HAL2     0.900000E-01   1.00800           0
      9563 MEMB     44       POPS     H16S     HAL2     0.900000E-01   1.00800           0
      9564 MEMB     44       POPS     C217     CTL2    -0.180000       12.0110           0
      9565 MEMB     44       POPS     H17R     HAL2     0.900000E-01   1.00800           0
      9566 MEMB     44       POPS     H17S     HAL2     0.900000E-01   1.00800           0
      9567 MEMB     44       POPS     C218     CTL3    -0.270000       12.0110           0
      9568 MEMB     44       POPS     H18R     HAL3     0.900000E-01   1.00800           0
      9569 MEMB     44       POPS     H18S     HAL3     0.900000E-01   1.00800           0
      9570 MEMB     44       POPS     H18T     HAL3     0.900000E-01   1.00800           0
      9571 MEMB     44       POPS     C33      CTL2    -0.180000       12.0110           0
      9572 MEMB     44       POPS     H3X      HAL2     0.900000E-01   1.00800           0
      9573 MEMB     44       POPS     H3Y      HAL2     0.900000E-01   1.00800           0
      9574 MEMB     44       POPS     C34      CTL2    -0.180000       12.0110           0
      9575 MEMB     44       POPS     H4X      HAL2     0.900000E-01   1.00800           0
      9576 MEMB     44       POPS     H4Y      HAL2     0.900000E-01   1.00800           0
      9577 MEMB     44       POPS     C35      CTL2    -0.180000       12.0110           0
      9578 MEMB     44       POPS     H5X      HAL2     0.900000E-01   1.00800           0
      9579 MEMB     44       POPS     H5Y      HAL2     0.900000E-01   1.00800           0
      9580 MEMB     44       POPS     C36      CTL2    -0.180000       12.0110           0
      9581 MEMB     44       POPS     H6X      HAL2     0.900000E-01   1.00800           0
      9582 MEMB     44       POPS     H6Y      HAL2     0.900000E-01   1.00800           0
      9583 MEMB     44       POPS     C37      CTL2    -0.180000       12.0110           0
      9584 MEMB     44       POPS     H7X      HAL2     0.900000E-01   1.00800           0
      9585 MEMB     44       POPS     H7Y      HAL2     0.900000E-01   1.00800           0
      9586 MEMB     44       POPS     C38      CTL2    -0.180000       12.0110           0
      9587 MEMB     44       POPS     H8X      HAL2     0.900000E-01   1.00800           0
      9588 MEMB     44       POPS     H8Y      HAL2     0.900000E-01   1.00800           0
      9589 MEMB     44       POPS     C39      CTL2    -0.180000       12.0110           0
      9590 MEMB     44       POPS     H9X      HAL2     0.900000E-01   1.00800           0
      9591 MEMB     44       POPS     H9Y      HAL2     0.900000E-01   1.00800           0
      9592 MEMB     44       POPS     C310     CTL2    -0.180000       12.0110           0
      9593 MEMB     44       POPS     H10X     HAL2     0.900000E-01   1.00800           0
      9594 MEMB     44       POPS     H10Y     HAL2     0.900000E-01   1.00800           0
      9595 MEMB     44       POPS     C311     CTL2    -0.180000       12.0110           0
      9596 MEMB     44       POPS     H11X     HAL2     0.900000E-01   1.00800           0
      9597 MEMB     44       POPS     H11Y     HAL2     0.900000E-01   1.00800           0
      9598 MEMB     44       POPS     C312     CTL2    -0.180000       12.0110           0
      9599 MEMB     44       POPS     H12X     HAL2     0.900000E-01   1.00800           0
      9600 MEMB     44       POPS     H12Y     HAL2     0.900000E-01   1.00800           0
      9601 MEMB     44       POPS     C313     CTL2    -0.180000       12.0110           0
      9602 MEMB     44       POPS     H13X     HAL2     0.900000E-01   1.00800           0
      9603 MEMB     44       POPS     H13Y     HAL2     0.900000E-01   1.00800           0
      9604 MEMB     44       POPS     C314     CTL2    -0.180000       12.0110           0
      9605 MEMB     44       POPS     H14X     HAL2     0.900000E-01   1.00800           0
      9606 MEMB     44       POPS     H14Y     HAL2     0.900000E-01   1.00800           0
      9607 MEMB     44       POPS     C315     CTL2    -0.180000       12.0110           0
      9608 MEMB     44       POPS     H15X     HAL2     0.900000E-01   1.00800           0
      9609 MEMB     44       POPS     H15Y     HAL2     0.900000E-01   1.00800           0
      9610 MEMB     44       POPS     C316     CTL3    -0.270000       12.0110           0
      9611 MEMB     44       POPS     H16X     HAL3     0.900000E-01   1.00800           0
      9612 MEMB     44       POPS     H16Y     HAL3     0.900000E-01   1.00800           0
      9613 MEMB     44       POPS     H16Z     HAL3     0.900000E-01   1.00800           0
      9614 MEMB     60       POPS     N        NH3L    -0.300000       14.0070           0
      9615 MEMB     60       POPS     HN1      HCL      0.330000       1.00800           0
      9616 MEMB     60       POPS     HN2      HCL      0.330000       1.00800           0
      9617 MEMB     60       POPS     HN3      HCL      0.330000       1.00800           0
      9618 MEMB     60       POPS     C12      CTL1     0.210000       12.0110           0
      9619 MEMB     60       POPS     H12A     HBL      0.100000       1.00800           0
      9620 MEMB     60       POPS     C13      CCL      0.340000       12.0110           0
      9621 MEMB     60       POPS     O13A     OCL     -0.670000       15.9994           0
      9622 MEMB     60       POPS     O13B     OCL     -0.670000       15.9994           0
      9623 MEMB     60       POPS     C11      CTL2    -0.800000E-01   12.0110           0
      9624 MEMB     60       POPS     H11A     HAL2     0.900000E-01   1.00800           0
      9625 MEMB     60       POPS     H11B     HAL2     0.900000E-01   1.00800           0
      9626 MEMB     60       POPS     P        PL       1.500000       30.9740           0
      9627 MEMB     60       POPS     O13      O2L     -0.780000       15.9994           0
      9628 MEMB     60       POPS     O14      O2L     -0.780000       15.9994           0
      9629 MEMB     60       POPS     O12      OSLP    -0.570000       15.9994           0
      9630 MEMB     60       POPS     O11      OSLP    -0.570000       15.9994           0
      9631 MEMB     60       POPS     C1       CTL2    -0.800000E-01   12.0110           0
      9632 MEMB     60       POPS     HA       HAL2     0.900000E-01   1.00800           0
      9633 MEMB     60       POPS     HB       HAL2     0.900000E-01   1.00800           0
      9634 MEMB     60       POPS     C2       CTL1     0.170000       12.0110           0
      9635 MEMB     60       POPS     HS       HAL1     0.900000E-01   1.00800           0
      9636 MEMB     60       POPS     O21      OSL     -0.490000       15.9994           0
      9637 MEMB     60       POPS     C21      CL       0.900000       12.0110           0
      9638 MEMB     60       POPS     O22      OBL     -0.630000       15.9994           0
      9639 MEMB     60       POPS     C22      CTL2    -0.220000       12.0110           0
      9640 MEMB     60       POPS     H2R      HAL2     0.900000E-01   1.00800           0
      9641 MEMB     60       POPS     H2S      HAL2     0.900000E-01   1.00800           0
      9642 MEMB     60       POPS     C3       CTL2     0.800000E-01   12.0110           0
      9643 MEMB     60       POPS     HX       HAL2     0.900000E-01   1.00800           0
      9644 MEMB     60       POPS     HY       HAL2     0.900000E-01   1.00800           0
      9645 MEMB     60       POPS     O31      OSL     -0.490000       15.9994           0
      9646 MEMB     60       POPS     C31      CL       0.900000       12.0110           0
      9647 MEMB     60       POPS     O32      OBL     -0.630000       15.9994           0
      9648 MEMB     60       POPS     C32      CTL2    -0.220000       12.0110           0
      9649 MEMB     60       POPS     H2X      HAL2     0.900000E-01   1.00800           0
      9650 MEMB     60       POPS     H2Y      HAL2     0.900000E-01   1.00800           0
      9651 MEMB     60       POPS     C23      CTL2    -0.180000       12.0110           0
      9652 MEMB     60       POPS     H3R      HAL2     0.900000E-01   1.00800           0
      9653 MEMB     60       POPS     H3S      HAL2     0.900000E-01   1.00800           0
      9654 MEMB     60       POPS     C24      CTL2    -0.180000       12.0110           0
      9655 MEMB     60       POPS     H4R      HAL2     0.900000E-01   1.00800           0
      9656 MEMB     60       POPS     H4S      HAL2     0.900000E-01   1.00800           0
      9657 MEMB     60       POPS     C25      CTL2    -0.180000       12.0110           0
      9658 MEMB     60       POPS     H5R      HAL2     0.900000E-01   1.00800           0
      9659 MEMB     60       POPS     H5S      HAL2     0.900000E-01   1.00800           0
      9660 MEMB     60       POPS     C26      CTL2    -0.180000       12.0110           0
      9661 MEMB     60       POPS     H6R      HAL2     0.900000E-01   1.00800           0
      9662 MEMB     60       POPS     H6S      HAL2     0.900000E-01   1.00800           0
      9663 MEMB     60       POPS     C27      CTL2    -0.180000       12.0110           0
      9664 MEMB     60       POPS     H7R      HAL2     0.900000E-01   1.00800           0
      9665 MEMB     60       POPS     H7S      HAL2     0.900000E-01   1.00800           0
      9666 MEMB     60       POPS     C28      CTL2    -0.180000       12.0110           0
      9667 MEMB     60       POPS     H8R      HAL2     0.900000E-01   1.00800           0
      9668 MEMB     60       POPS     H8S      HAL2     0.900000E-01   1.00800           0
      9669 MEMB     60       POPS     C29      CEL1    -0.150000       12.0110           0
      9670 MEMB     60       POPS     H91      HEL1     0.150000       1.00800           0
      9671 MEMB     60       POPS     C210     CEL1    -0.150000       12.0110           0
      9672 MEMB     60       POPS     H101     HEL1     0.150000       1.00800           0
      9673 MEMB     60       POPS     C211     CTL2    -0.180000       12.0110           0
      9674 MEMB     60       POPS     H11R     HAL2     0.900000E-01   1.00800           0
      9675 MEMB     60       POPS     H11S     HAL2     0.900000E-01   1.00800           0
      9676 MEMB     60       POPS     C212     CTL2    -0.180000       12.0110           0
      9677 MEMB     60       POPS     H12R     HAL2     0.900000E-01   1.00800           0
      9678 MEMB     60       POPS     H12S     HAL2     0.900000E-01   1.00800           0
      9679 MEMB     60       POPS     C213     CTL2    -0.180000       12.0110           0
      9680 MEMB     60       POPS     H13R     HAL2     0.900000E-01   1.00800           0
      9681 MEMB     60       POPS     H13S     HAL2     0.900000E-01   1.00800           0
      9682 MEMB     60       POPS     C214     CTL2    -0.180000       12.0110           0
      9683 MEMB     60       POPS     H14R     HAL2     0.900000E-01   1.00800           0
      9684 MEMB     60       POPS     H14S     HAL2     0.900000E-01   1.00800           0
      9685 MEMB     60       POPS     C215     CTL2    -0.180000       12.0110           0
      9686 MEMB     60       POPS     H15R     HAL2     0.900000E-01   1.00800           0
      9687 MEMB     60       POPS     H15S     HAL2     0.900000E-01   1.00800           0
      9688 MEMB     60       POPS     C216     CTL2    -0.180000       12.0110           0
      9689 MEMB     60       POPS     H16R     HAL2     0.900000E-01   1.00800           0
      9690 MEMB     60       POPS     H16S     HAL2     0.900000E-01   1.00800           0
      9691 MEMB     60       POPS     C217     CTL2    -0.180000       12.0110           0
      9692 MEMB     60       POPS     H17R     HAL2     0.900000E-01   1.00800           0
      9693 MEMB     60       POPS     H17S     HAL2     0.900000E-01   1.00800           0
      9694 MEMB     60       POPS     C218     CTL3    -0.270000       12.0110           0
      9695 MEMB     60       POPS     H18R     HAL3     0.900000E-01   1.00800           0
      9696 MEMB     60       POPS     H18S     HAL3     0.900000E-01   1.00800           0
      9697 MEMB     60       POPS     H18T     HAL3     0.900000E-01   1.00800           0
      9698 MEMB     60       POPS     C33      CTL2    -0.180000       12.0110           0
      9699 MEMB     60       POPS     H3X      HAL2     0.900000E-01   1.00800           0
      9700 MEMB     60       POPS     H3Y      HAL2     0.900000E-01   1.00800           0
      9701 MEMB     60       POPS     C34      CTL2    -0.180000       12.0110           0
      9702 MEMB     60       POPS     H4X      HAL2     0.900000E-01   1.00800           0
      9703 MEMB     60       POPS     H4Y      HAL2     0.900000E-01   1.00800           0
      9704 MEMB     60       POPS     C35      CTL2    -0.180000       12.0110           0
      9705 MEMB     60       POPS     H5X      HAL2     0.900000E-01   1.00800           0
      9706 MEMB     60       POPS     H5Y      HAL2     0.900000E-01   1.00800           0
      9707 MEMB     60       POPS     C36      CTL2    -0.180000       12.0110           0
      9708 MEMB     60       POPS     H6X      HAL2     0.900000E-01   1.00800           0
      9709 MEMB     60       POPS     H6Y      HAL2     0.900000E-01   1.00800           0
      9710 MEMB     60       POPS     C37      CTL2    -0.180000       12.0110           0
      9711 MEMB     60       POPS     H7X      HAL2     0.900000E-01   1.00800           0
      9712 MEMB     60       POPS     H7Y      HAL2     0.900000E-01   1.00800           0
      9713 MEMB     60       POPS     C38      CTL2    -0.180000       12.0110           0
      9714 MEMB     60       POPS     H8X      HAL2     0.900000E-01   1.00800           0
      9715 MEMB     60       POPS     H8Y      HAL2     0.900000E-01   1.00800           0
      9716 MEMB     60       POPS     C39      CTL2    -0.180000       12.0110           0
      9717 MEMB     60       POPS     H9X      HAL2     0.900000E-01   1.00800           0
      9718 MEMB     60       POPS     H9Y      HAL2     0.900000E-01   1.00800           0
      9719 MEMB     60       POPS     C310     CTL2    -0.180000       12.0110           0
      9720 MEMB     60       POPS     H10X     HAL2     0.900000E-01   1.00800           0
      9721 MEMB     60       POPS     H10Y     HAL2     0.900000E-01   1.00800           0
      9722 MEMB     60       POPS     C311     CTL2    -0.180000       12.0110           0
      9723 MEMB     60       POPS     H11X     HAL2     0.900000E-01   1.00800           0
      9724 MEMB     60       POPS     H11Y     HAL2     0.900000E-01   1.00800           0
      9725 MEMB     60       POPS     C312     CTL2    -0.180000       12.0110           0
      9726 MEMB     60       POPS     H12X     HAL2     0.900000E-01   1.00800           0
      9727 MEMB     60       POPS     H12Y     HAL2     0.900000E-01   1.00800           0
      9728 MEMB     60       POPS     C313     CTL2    -0.180000       12.0110           0
      9729 MEMB     60       POPS     H13X     HAL2     0.900000E-01   1.00800           0
      9730 MEMB     60       POPS     H13Y     HAL2     0.900000E-01   1.00800           0
      9731 MEMB     60       POPS     C314     CTL2    -0.180000       12.0110           0
      9732 MEMB     60       POPS     H14X     HAL2     0.900000E-01   1.00800           0
      9733 MEMB     60       POPS     H14Y     HAL2     0.900000E-01   1.00800           0
      9734 MEMB     60       POPS     C315     CTL2    -0.180000       12.0110           0
      9735 MEMB     60       POPS     H15X     HAL2     0.900000E-01   1.00800           0
      9736 MEMB     60       POPS     H15Y     HAL2     0.900000E-01   1.00800           0
      9737 MEMB     60       POPS     C316     CTL3    -0.270000       12.0110           0
      9738 MEMB     60       POPS     H16X     HAL3     0.900000E-01   1.00800           0
      9739 MEMB     60       POPS     H16Y     HAL3     0.900000E-01   1.00800           0
      9740 MEMB     60       POPS     H16Z     HAL3     0.900000E-01   1.00800           0
      9741 MEMB     65       POPS     N        NH3L    -0.300000       14.0070           0
      9742 MEMB     65       POPS     HN1      HCL      0.330000       1.00800           0
      9743 MEMB     65       POPS     HN2      HCL      0.330000       1.00800           0
      9744 MEMB     65       POPS     HN3      HCL      0.330000       1.00800           0
      9745 MEMB     65       POPS     C12      CTL1     0.210000       12.0110           0
      9746 MEMB     65       POPS     H12A     HBL      0.100000       1.00800           0
      9747 MEMB     65       POPS     C13      CCL      0.340000       12.0110           0
      9748 MEMB     65       POPS     O13A     OCL     -0.670000       15.9994           0
      9749 MEMB     65       POPS     O13B     OCL     -0.670000       15.9994           0
      9750 MEMB     65       POPS     C11      CTL2    -0.800000E-01   12.0110           0
      9751 MEMB     65       POPS     H11A     HAL2     0.900000E-01   1.00800           0
      9752 MEMB     65       POPS     H11B     HAL2     0.900000E-01   1.00800           0
      9753 MEMB     65       POPS     P        PL       1.500000       30.9740           0
      9754 MEMB     65       POPS     O13      O2L     -0.780000       15.9994           0
      9755 MEMB     65       POPS     O14      O2L     -0.780000       15.9994           0
      9756 MEMB     65       POPS     O12      OSLP    -0.570000       15.9994           0
      9757 MEMB     65       POPS     O11      OSLP    -0.570000       15.9994           0
      9758 MEMB     65       POPS     C1       CTL2    -0.800000E-01   12.0110           0
      9759 MEMB     65       POPS     HA       HAL2     0.900000E-01   1.00800           0
      9760 MEMB     65       POPS     HB       HAL2     0.900000E-01   1.00800           0
      9761 MEMB     65       POPS     C2       CTL1     0.170000       12.0110           0
      9762 MEMB     65       POPS     HS       HAL1     0.900000E-01   1.00800           0
      9763 MEMB     65       POPS     O21      OSL     -0.490000       15.9994           0
      9764 MEMB     65       POPS     C21      CL       0.900000       12.0110           0
      9765 MEMB     65       POPS     O22      OBL     -0.630000       15.9994           0
      9766 MEMB     65       POPS     C22      CTL2    -0.220000       12.0110           0
      9767 MEMB     65       POPS     H2R      HAL2     0.900000E-01   1.00800           0
      9768 MEMB     65       POPS     H2S      HAL2     0.900000E-01   1.00800           0
      9769 MEMB     65       POPS     C3       CTL2     0.800000E-01   12.0110           0
      9770 MEMB     65       POPS     HX       HAL2     0.900000E-01   1.00800           0
      9771 MEMB     65       POPS     HY       HAL2     0.900000E-01   1.00800           0
      9772 MEMB     65       POPS     O31      OSL     -0.490000       15.9994           0
      9773 MEMB     65       POPS     C31      CL       0.900000       12.0110           0
      9774 MEMB     65       POPS     O32      OBL     -0.630000       15.9994           0
      9775 MEMB     65       POPS     C32      CTL2    -0.220000       12.0110           0
      9776 MEMB     65       POPS     H2X      HAL2     0.900000E-01   1.00800           0
      9777 MEMB     65       POPS     H2Y      HAL2     0.900000E-01   1.00800           0
      9778 MEMB     65       POPS     C23      CTL2    -0.180000       12.0110           0
      9779 MEMB     65       POPS     H3R      HAL2     0.900000E-01   1.00800           0
      9780 MEMB     65       POPS     H3S      HAL2     0.900000E-01   1.00800           0
      9781 MEMB     65       POPS     C24      CTL2    -0.180000       12.0110           0
      9782 MEMB     65       POPS     H4R      HAL2     0.900000E-01   1.00800           0
      9783 MEMB     65       POPS     H4S      HAL2     0.900000E-01   1.00800           0
      9784 MEMB     65       POPS     C25      CTL2    -0.180000       12.0110           0
      9785 MEMB     65       POPS     H5R      HAL2     0.900000E-01   1.00800           0
      9786 MEMB     65       POPS     H5S      HAL2     0.900000E-01   1.00800           0
      9787 MEMB     65       POPS     C26      CTL2    -0.180000       12.0110           0
      9788 MEMB     65       POPS     H6R      HAL2     0.900000E-01   1.00800           0
      9789 MEMB     65       POPS     H6S      HAL2     0.900000E-01   1.00800           0
      9790 MEMB     65       POPS     C27      CTL2    -0.180000       12.0110           0
      9791 MEMB     65       POPS     H7R      HAL2     0.900000E-01   1.00800           0
      9792 MEMB     65       POPS     H7S      HAL2     0.900000E-01   1.00800           0
      9793 MEMB     65       POPS     C28      CTL2    -0.180000       12.0110           0
      9794 MEMB     65       POPS     H8R      HAL2     0.900000E-01   1.00800           0
      9795 MEMB     65       POPS     H8S      HAL2     0.900000E-01   1.00800           0
      9796 MEMB     65       POPS     C29      CEL1    -0.150000       12.0110           0
      9797 MEMB     65       POPS     H91      HEL1     0.150000       1.00800           0
      9798 MEMB     65       POPS     C210     CEL1    -0.150000       12.0110           0
      9799 MEMB     65       POPS     H101     HEL1     0.150000       1.00800           0
      9800 MEMB     65       POPS     C211     CTL2    -0.180000       12.0110           0
      9801 MEMB     65       POPS     H11R     HAL2     0.900000E-01   1.00800           0
      9802 MEMB     65       POPS     H11S     HAL2     0.900000E-01   1.00800           0
      9803 MEMB     65       POPS     C212     CTL2    -0.180000       12.0110           0
      9804 MEMB     65       POPS     H12R     HAL2     0.900000E-01   1.00800           0
      9805 MEMB     65       POPS     H12S     HAL2     0.900000E-01   1.00800           0
      9806 MEMB     65       POPS     C213     CTL2    -0.180000       12.0110           0
      9807 MEMB     65       POPS     H13R     HAL2     0.900000E-01   1.00800           0
      9808 MEMB     65       POPS     H13S     HAL2     0.900000E-01   1.00800           0
      9809 MEMB     65       POPS     C214     CTL2    -0.180000       12.0110           0
      9810 MEMB     65       POPS     H14R     HAL2     0.900000E-01   1.00800           0
      9811 MEMB     65       POPS     H14S     HAL2     0.900000E-01   1.00800           0
      9812 MEMB     65       POPS     C215     CTL2    -0.180000       12.0110           0
      9813 MEMB     65       POPS     H15R     HAL2     0.900000E-01   1.00800           0
      9814 MEMB     65       POPS     H15S     HAL2     0.900000E-01   1.00800           0
      9815 MEMB     65       POPS     C216     CTL2    -0.180000       12.0110           0
      9816 MEMB     65       POPS     H16R     HAL2     0.900000E-01   1.00800           0
      9817 MEMB     65       POPS     H16S     HAL2     0.900000E-01   1.00800           0
      9818 MEMB     65       POPS     C217     CTL2    -0.180000       12.0110           0
      9819 MEMB     65       POPS     H17R     HAL2     0.900000E-01   1.00800           0
      9820 MEMB     65       POPS     H17S     HAL2     0.900000E-01   1.00800           0
      9821 MEMB     65       POPS     C218     CTL3    -0.270000       12.0110           0
      9822 MEMB     65       POPS     H18R     HAL3     0.900000E-01   1.00800           0
      9823 MEMB     65       POPS     H18S     HAL3     0.900000E-01   1.00800           0
      9824 MEMB     65       POPS     H18T     HAL3     0.900000E-01   1.00800           0
      9825 MEMB     65       POPS     C33      CTL2    -0.180000       12.0110           0
      9826 MEMB     65       POPS     H3X      HAL2     0.900000E-01   1.00800           0
      9827 MEMB     65       POPS     H3Y      HAL2     0.900000E-01   1.00800           0
      9828 MEMB     65       POPS     C34      CTL2    -0.180000       12.0110           0
      9829 MEMB     65       POPS     H4X      HAL2     0.900000E-01   1.00800           0
      9830 MEMB     65       POPS     H4Y      HAL2     0.900000E-01   1.00800           0
      9831 MEMB     65       POPS     C35      CTL2    -0.180000       12.0110           0
      9832 MEMB     65       POPS     H5X      HAL2     0.900000E-01   1.00800           0
      9833 MEMB     65       POPS     H5Y      HAL2     0.900000E-01   1.00800           0
      9834 MEMB     65       POPS     C36      CTL2    -0.180000       12.0110           0
      9835 MEMB     65       POPS     H6X      HAL2     0.900000E-01   1.00800           0
      9836 MEMB     65       POPS     H6Y      HAL2     0.900000E-01   1.00800           0
      9837 MEMB     65       POPS     C37      CTL2    -0.180000       12.0110           0
      9838 MEMB     65       POPS     H7X      HAL2     0.900000E-01   1.00800           0
      9839 MEMB     65       POPS     H7Y      HAL2     0.900000E-01   1.00800           0
      9840 MEMB     65       POPS     C38      CTL2    -0.180000       12.0110           0
      9841 MEMB     65       POPS     H8X      HAL2     0.900000E-01   1.00800           0
      9842 MEMB     65       POPS     H8Y      HAL2     0.900000E-01   1.00800           0
      9843 MEMB     65       POPS     C39      CTL2    -0.180000       12.0110           0
      9844 MEMB     65       POPS     H9X      HAL2     0.900000E-01   1.00800           0
      9845 MEMB     65       POPS     H9Y      HAL2     0.900000E-01   1.00800           0
      9846 MEMB     65       POPS     C310     CTL2    -0.180000       12.0110           0
      9847 MEMB     65       POPS     H10X     HAL2     0.900000E-01   1.00800           0
      9848 MEMB     65       POPS     H10Y     HAL2     0.900000E-01   1.00800           0
      9849 MEMB     65       POPS     C311     CTL2    -0.180000       12.0110           0
      9850 MEMB     65       POPS     H11X     HAL2     0.900000E-01   1.00800           0
      9851 MEMB     65       POPS     H11Y     HAL2     0.900000E-01   1.00800           0
      9852 MEMB     65       POPS     C312     CTL2    -0.180000       12.0110           0
      9853 MEMB     65       POPS     H12X     HAL2     0.900000E-01   1.00800           0
      9854 MEMB     65       POPS     H12Y     HAL2     0.900000E-01   1.00800           0
      9855 MEMB     65       POPS     C313     CTL2    -0.180000       12.0110           0
      9856 MEMB     65       POPS     H13X     HAL2     0.900000E-01   1.00800           0
      9857 MEMB     65       POPS     H13Y     HAL2     0.900000E-01   1.00800           0
      9858 MEMB     65       POPS     C314     CTL2    -0.180000       12.0110           0
      9859 MEMB     65       POPS     H14X     HAL2     0.900000E-01   1.00800           0
      9860 MEMB     65       POPS     H14Y     HAL2     0.900000E-01   1.00800           0
      9861 MEMB     65       POPS     C315     CTL2    -0.180000       12.0110           0
      9862 MEMB     65       POPS     H15X     HAL2     0.900000E-01   1.00800           0
      9863 MEMB     65       POPS     H15Y     HAL2     0.900000E-01   1.00800           0
      9864 MEMB     65       POPS     C316     CTL3    -0.270000       12.0110           0
      9865 MEMB     65       POPS     H16X     HAL3     0.900000E-01   1.00800           0
      9866 MEMB     65       POPS     H16Y     HAL3     0.900000E-01   1.00800           0
      9867 MEMB     65       POPS     H16Z     HAL3     0.900000E-01   1.00800           0
      9868 MEMB     67       POPS     N        NH3L    -0.300000       14.0070           0
      9869 MEMB     67       POPS     HN1      HCL      0.330000       1.00800           0
      9870 MEMB     67       POPS     HN2      HCL      0.330000       1.00800           0
      9871 MEMB     67       POPS     HN3      HCL      0.330000       1.00800           0
      9872 MEMB     67       POPS     C12      CTL1     0.210000       12.0110           0
      9873 MEMB     67       POPS     H12A     HBL      0.100000       1.00800           0
      9874 MEMB     67       POPS     C13      CCL      0.340000       12.0110           0
      9875 MEMB     67       POPS     O13A     OCL     -0.670000       15.9994           0
      9876 MEMB     67       POPS     O13B     OCL     -0.670000       15.9994           0
      9877 MEMB     67       POPS     C11      CTL2    -0.800000E-01   12.0110           0
      9878 MEMB     67       POPS     H11A     HAL2     0.900000E-01   1.00800           0
      9879 MEMB     67       POPS     H11B     HAL2     0.900000E-01   1.00800           0
      9880 MEMB     67       POPS     P        PL       1.500000       30.9740           0
      9881 MEMB     67       POPS     O13      O2L     -0.780000       15.9994           0
      9882 MEMB     67       POPS     O14      O2L     -0.780000       15.9994           0
      9883 MEMB     67       POPS     O12      OSLP    -0.570000       15.9994           0
      9884 MEMB     67       POPS     O11      OSLP    -0.570000       15.9994           0
      9885 MEMB     67       POPS     C1       CTL2    -0.800000E-01   12.0110           0
      9886 MEMB     67       POPS     HA       HAL2     0.900000E-01   1.00800           0
      9887 MEMB     67       POPS     HB       HAL2     0.900000E-01   1.00800           0
      9888 MEMB     67       POPS     C2       CTL1     0.170000       12.0110           0
      9889 MEMB     67       POPS     HS       HAL1     0.900000E-01   1.00800           0
      9890 MEMB     67       POPS     O21      OSL     -0.490000       15.9994           0
      9891 MEMB     67       POPS     C21      CL       0.900000       12.0110           0
      9892 MEMB     67       POPS     O22      OBL     -0.630000       15.9994           0
      9893 MEMB     67       POPS     C22      CTL2    -0.220000       12.0110           0
      9894 MEMB     67       POPS     H2R      HAL2     0.900000E-01   1.00800           0
      9895 MEMB     67       POPS     H2S      HAL2     0.900000E-01   1.00800           0
      9896 MEMB     67       POPS     C3       CTL2     0.800000E-01   12.0110           0
      9897 MEMB     67       POPS     HX       HAL2     0.900000E-01   1.00800           0
      9898 MEMB     67       POPS     HY       HAL2     0.900000E-01   1.00800           0
      9899 MEMB     67       POPS     O31      OSL     -0.490000       15.9994           0
      9900 MEMB     67       POPS     C31      CL       0.900000       12.0110           0
      9901 MEMB     67       POPS     O32      OBL     -0.630000       15.9994           0
      9902 MEMB     67       POPS     C32      CTL2    -0.220000       12.0110           0
      9903 MEMB     67       POPS     H2X      HAL2     0.900000E-01   1.00800           0
      9904 MEMB     67       POPS     H2Y      HAL2     0.900000E-01   1.00800           0
      9905 MEMB     67       POPS     C23      CTL2    -0.180000       12.0110           0
      9906 MEMB     67       POPS     H3R      HAL2     0.900000E-01   1.00800           0
      9907 MEMB     67       POPS     H3S      HAL2     0.900000E-01   1.00800           0
      9908 MEMB     67       POPS     C24      CTL2    -0.180000       12.0110           0
      9909 MEMB     67       POPS     H4R      HAL2     0.900000E-01   1.00800           0
      9910 MEMB     67       POPS     H4S      HAL2     0.900000E-01   1.00800           0
      9911 MEMB     67       POPS     C25      CTL2    -0.180000       12.0110           0
      9912 MEMB     67       POPS     H5R      HAL2     0.900000E-01   1.00800           0
      9913 MEMB     67       POPS     H5S      HAL2     0.900000E-01   1.00800           0
      9914 MEMB     67       POPS     C26      CTL2    -0.180000       12.0110           0
      9915 MEMB     67       POPS     H6R      HAL2     0.900000E-01   1.00800           0
      9916 MEMB     67       POPS     H6S      HAL2     0.900000E-01   1.00800           0
      9917 MEMB     67       POPS     C27      CTL2    -0.180000       12.0110           0
      9918 MEMB     67       POPS     H7R      HAL2     0.900000E-01   1.00800           0
      9919 MEMB     67       POPS     H7S      HAL2     0.900000E-01   1.00800           0
      9920 MEMB     67       POPS     C28      CTL2    -0.180000       12.0110           0
      9921 MEMB     67       POPS     H8R      HAL2     0.900000E-01   1.00800           0
      9922 MEMB     67       POPS     H8S      HAL2     0.900000E-01   1.00800           0
      9923 MEMB     67       POPS     C29      CEL1    -0.150000       12.0110           0
      9924 MEMB     67       POPS     H91      HEL1     0.150000       1.00800           0
      9925 MEMB     67       POPS     C210     CEL1    -0.150000       12.0110           0
      9926 MEMB     67       POPS     H101     HEL1     0.150000       1.00800           0
      9927 MEMB     67       POPS     C211     CTL2    -0.180000       12.0110           0
      9928 MEMB     67       POPS     H11R     HAL2     0.900000E-01   1.00800           0
      9929 MEMB     67       POPS     H11S     HAL2     0.900000E-01   1.00800           0
      9930 MEMB     67       POPS     C212     CTL2    -0.180000       12.0110           0
      9931 MEMB     67       POPS     H12R     HAL2     0.900000E-01   1.00800           0
      9932 MEMB     67       POPS     H12S     HAL2     0.900000E-01   1.00800           0
      9933 MEMB     67       POPS     C213     CTL2    -0.180000       12.0110           0
      9934 MEMB     67       POPS     H13R     HAL2     0.900000E-01   1.00800           0
      9935 MEMB     67       POPS     H13S     HAL2     0.900000E-01   1.00800           0
      9936 MEMB     67       POPS     C214     CTL2    -0.180000       12.0110           0
      9937 MEMB     67       POPS     H14R     HAL2     0.900000E-01   1.00800           0
      9938 MEMB     67       POPS     H14S     HAL2     0.900000E-01   1.00800           0
      9939 MEMB     67       POPS     C215     CTL2    -0.180000       12.0110           0
      9940 MEMB     67       POPS     H15R     HAL2     0.900000E-01   1.00800           0
      9941 MEMB     67       POPS     H15S     HAL2     0.900000E-01   1.00800           0
      9942 MEMB     67       POPS     C216     CTL2    -0.180000       12.0110           0
      9943 MEMB     67       POPS     H16R     HAL2     0.900000E-01   1.00800           0
      9944 MEMB     67       POPS     H16S     HAL2     0.900000E-01   1.00800           0
      9945 MEMB     67       POPS     C217     CTL2    -0.180000       12.0110           0
      9946 MEMB     67       POPS     H17R     HAL2     0.900000E-01   1.00800           0
      9947 MEMB     67       POPS     H17S     HAL2     0.900000E-01   1.00800           0
      9948 MEMB     67       POPS     C218     CTL3    -0.270000       12.0110           0
      9949 MEMB     67       POPS     H18R     HAL3     0.900000E-01   1.00800           0
      9950 MEMB     67       POPS     H18S     HAL3     0.900000E-01   1.00800           0
      9951 MEMB     67       POPS     H18T     HAL3     0.900000E-01   1.00800           0
      9952 MEMB     67       POPS     C33      CTL2    -0.180000       12.0110           0
      9953 MEMB     67       POPS     H3X      HAL2     0.900000E-01   1.00800           0
      9954 MEMB     67       POPS     H3Y      HAL2     0.900000E-01   1.00800           0
      9955 MEMB     67       POPS     C34      CTL2    -0.180000       12.0110           0
      9956 MEMB     67       POPS     H4X      HAL2     0.900000E-01   1.00800           0
      9957 MEMB     67       POPS     H4Y      HAL2     0.900000E-01   1.00800           0
      9958 MEMB     67       POPS     C35      CTL2    -0.180000       12.0110           0
      9959 MEMB     67       POPS     H5X      HAL2     0.900000E-01   1.00800           0
      9960 MEMB     67       POPS     H5Y      HAL2     0.900000E-01   1.00800           0
      9961 MEMB     67       POPS     C36      CTL2    -0.180000       12.0110           0
      9962 MEMB     67       POPS     H6X      HAL2     0.900000E-01   1.00800           0
      9963 MEMB     67       POPS     H6Y      HAL2     0.900000E-01   1.00800           0
      9964 MEMB     67       POPS     C37      CTL2    -0.180000       12.0110           0
      9965 MEMB     67       POPS     H7X      HAL2     0.900000E-01   1.00800           0
      9966 MEMB     67       POPS     H7Y      HAL2     0.900000E-01   1.00800           0
      9967 MEMB     67       POPS     C38      CTL2    -0.180000       12.0110           0
      9968 MEMB     67       POPS     H8X      HAL2     0.900000E-01   1.00800           0
      9969 MEMB     67       POPS     H8Y      HAL2     0.900000E-01   1.00800           0
      9970 MEMB     67       POPS     C39      CTL2    -0.180000       12.0110           0
      9971 MEMB     67       POPS     H9X      HAL2     0.900000E-01   1.00800           0
      9972 MEMB     67       POPS     H9Y      HAL2     0.900000E-01   1.00800           0
      9973 MEMB     67       POPS     C310     CTL2    -0.180000       12.0110           0
      9974 MEMB     67       POPS     H10X     HAL2     0.900000E-01   1.00800           0
      9975 MEMB     67       POPS     H10Y     HAL2     0.900000E-01   1.00800           0
      9976 MEMB     67       POPS     C311     CTL2    -0.180000       12.0110           0
      9977 MEMB     67       POPS     H11X     HAL2     0.900000E-01   1.00800           0
      9978 MEMB     67       POPS     H11Y     HAL2     0.900000E-01   1.00800           0
      9979 MEMB     67       POPS     C312     CTL2    -0.180000       12.0110           0
      9980 MEMB     67       POPS     H12X     HAL2     0.900000E-01   1.00800           0
      9981 MEMB     67       POPS     H12Y     HAL2     0.900000E-01   1.00800           0
      9982 MEMB     67       POPS     C313     CTL2    -0.180000       12.0110           0
      9983 MEMB     67       POPS     H13X     HAL2     0.900000E-01   1.00800           0
      9984 MEMB     67       POPS     H13Y     HAL2     0.900000E-01   1.00800           0
      9985 MEMB     67       POPS     C314     CTL2    -0.180000       12.0110           0
      9986 MEMB     67       POPS     H14X     HAL2     0.900000E-01   1.00800           0
      9987 MEMB     67       POPS     H14Y     HAL2     0.900000E-01   1.00800           0
      9988 MEMB     67       POPS     C315     CTL2    -0.180000       12.0110           0
      9989 MEMB     67       POPS     H15X     HAL2     0.900000E-01   1.00800           0
      9990 MEMB     67       POPS     H15Y     HAL2     0.900000E-01   1.00800           0
      9991 MEMB     67       POPS     C316     CTL3    -0.270000       12.0110           0
      9992 MEMB     67       POPS     H16X     HAL3     0.900000E-01   1.00800           0
      9993 MEMB     67       POPS     H16Y     HAL3     0.900000E-01   1.00800           0
      9994 MEMB     67       POPS     H16Z     HAL3     0.900000E-01   1.00800           0
      9995 MEMB     71       POPS     N        NH3L    -0.300000       14.0070           0
      9996 MEMB     71       POPS     HN1      HCL      0.330000       1.00800           0
      9997 MEMB     71       POPS     HN2      HCL      0.330000       1.00800           0
      9998 MEMB     71       POPS     HN3      HCL      0.330000       1.00800           0
      9999 MEMB     71       POPS     C12      CTL1     0.210000       12.0110           0
     10000 MEMB     71       POPS     H12A     HBL      0.100000       1.00800           0
     10001 MEMB     71       POPS     C13      CCL      0.340000       12.0110           0
     10002 MEMB     71       POPS     O13A     OCL     -0.670000       15.9994           0
     10003 MEMB     71       POPS     O13B     OCL     -0.670000       15.9994           0
     10004 MEMB     71       POPS     C11      CTL2    -0.800000E-01   12.0110           0
     10005 MEMB     71       POPS     H11A     HAL2     0.900000E-01   1.00800           0
     10006 MEMB     71       POPS     H11B     HAL2     0.900000E-01   1.00800           0
     10007 MEMB     71       POPS     P        PL       1.500000       30.9740           0
     10008 MEMB     71       POPS     O13      O2L     -0.780000       15.9994           0
     10009 MEMB     71       POPS     O14      O2L     -0.780000       15.9994           0
     10010 MEMB     71       POPS     O12      OSLP    -0.570000       15.9994           0
     10011 MEMB     71       POPS     O11      OSLP    -0.570000       15.9994           0
     10012 MEMB     71       POPS     C1       CTL2    -0.800000E-01   12.0110           0
     10013 MEMB     71       POPS     HA       HAL2     0.900000E-01   1.00800           0
     10014 MEMB     71       POPS     HB       HAL2     0.900000E-01   1.00800           0
     10015 MEMB     71       POPS     C2       CTL1     0.170000       12.0110           0
     10016 MEMB     71       POPS     HS       HAL1     0.900000E-01   1.00800           0
     10017 MEMB     71       POPS     O21      OSL     -0.490000       15.9994           0
     10018 MEMB     71       POPS     C21      CL       0.900000       12.0110           0
     10019 MEMB     71       POPS     O22      OBL     -0.630000       15.9994           0
     10020 MEMB     71       POPS     C22      CTL2    -0.220000       12.0110           0
     10021 MEMB     71       POPS     H2R      HAL2     0.900000E-01   1.00800           0
     10022 MEMB     71       POPS     H2S      HAL2     0.900000E-01   1.00800           0
     10023 MEMB     71       POPS     C3       CTL2     0.800000E-01   12.0110           0
     10024 MEMB     71       POPS     HX       HAL2     0.900000E-01   1.00800           0
     10025 MEMB     71       POPS     HY       HAL2     0.900000E-01   1.00800           0
     10026 MEMB     71       POPS     O31      OSL     -0.490000       15.9994           0
     10027 MEMB     71       POPS     C31      CL       0.900000       12.0110           0
     10028 MEMB     71       POPS     O32      OBL     -0.630000       15.9994           0
     10029 MEMB     71       POPS     C32      CTL2    -0.220000       12.0110           0
     10030 MEMB     71       POPS     H2X      HAL2     0.900000E-01   1.00800           0
     10031 MEMB     71       POPS     H2Y      HAL2     0.900000E-01   1.00800           0
     10032 MEMB     71       POPS     C23      CTL2    -0.180000       12.0110           0
     10033 MEMB     71       POPS     H3R      HAL2     0.900000E-01   1.00800           0
     10034 MEMB     71       POPS     H3S      HAL2     0.900000E-01   1.00800           0
     10035 MEMB     71       POPS     C24      CTL2    -0.180000       12.0110           0
     10036 MEMB     71       POPS     H4R      HAL2     0.900000E-01   1.00800           0
     10037 MEMB     71       POPS     H4S      HAL2     0.900000E-01   1.00800           0
     10038 MEMB     71       POPS     C25      CTL2    -0.180000       12.0110           0
     10039 MEMB     71       POPS     H5R      HAL2     0.900000E-01   1.00800           0
     10040 MEMB     71       POPS     H5S      HAL2     0.900000E-01   1.00800           0
     10041 MEMB     71       POPS     C26      CTL2    -0.180000       12.0110           0
     10042 MEMB     71       POPS     H6R      HAL2     0.900000E-01   1.00800           0
     10043 MEMB     71       POPS     H6S      HAL2     0.900000E-01   1.00800           0
     10044 MEMB     71       POPS     C27      CTL2    -0.180000       12.0110           0
     10045 MEMB     71       POPS     H7R      HAL2     0.900000E-01   1.00800           0
     10046 MEMB     71       POPS     H7S      HAL2     0.900000E-01   1.00800           0
     10047 MEMB     71       POPS     C28      CTL2    -0.180000       12.0110           0
     10048 MEMB     71       POPS     H8R      HAL2     0.900000E-01   1.00800           0
     10049 MEMB     71       POPS     H8S      HAL2     0.900000E-01   1.00800           0
     10050 MEMB     71       POPS     C29      CEL1    -0.150000       12.0110           0
     10051 MEMB     71       POPS     H91      HEL1     0.150000       1.00800           0
     10052 MEMB     71       POPS     C210     CEL1    -0.150000       12.0110           0
     10053 MEMB     71       POPS     H101     HEL1     0.150000       1.00800           0
     10054 MEMB     71       POPS     C211     CTL2    -0.180000       12.0110           0
     10055 MEMB     71       POPS     H11R     HAL2     0.900000E-01   1.00800           0
     10056 MEMB     71       POPS     H11S     HAL2     0.900000E-01   1.00800           0
     10057 MEMB     71       POPS     C212     CTL2    -0.180000       12.0110           0
     10058 MEMB     71       POPS     H12R     HAL2     0.900000E-01   1.00800           0
     10059 MEMB     71       POPS     H12S     HAL2     0.900000E-01   1.00800           0
     10060 MEMB     71       POPS     C213     CTL2    -0.180000       12.0110           0
     10061 MEMB     71       POPS     H13R     HAL2     0.900000E-01   1.00800           0
     10062 MEMB     71       POPS     H13S     HAL2     0.900000E-01   1.00800           0
     10063 MEMB     71       POPS     C214     CTL2    -0.180000       12.0110           0
     10064 MEMB     71       POPS     H14R     HAL2     0.900000E-01   1.00800           0
     10065 MEMB     71       POPS     H14S     HAL2     0.900000E-01   1.00800           0
     10066 MEMB     71       POPS     C215     CTL2    -0.180000       12.0110           0
     10067 MEMB     71       POPS     H15R     HAL2     0.900000E-01   1.00800           0
     10068 MEMB     71       POPS     H15S     HAL2     0.900000E-01   1.00800           0
     10069 MEMB     71       POPS     C216     CTL2    -0.180000       12.0110           0
     10070 MEMB     71       POPS     H16R     HAL2     0.900000E-01   1.00800           0
     10071 MEMB     71       POPS     H16S     HAL2     0.900000E-01   1.00800           0
     10072 MEMB     71       POPS     C217     CTL2    -0.180000       12.0110           0
     10073 MEMB     71       POPS     H17R     HAL2     0.900000E-01   1.00800           0
     10074 MEMB     71       POPS     H17S     HAL2     0.900000E-01   1.00800           0
     10075 MEMB     71       POPS     C218     CTL3    -0.270000       12.0110           0
     10076 MEMB     71       POPS     H18R     HAL3     0.900000E-01   1.00800           0
     10077 MEMB     71       POPS     H18S     HAL3     0.900000E-01   1.00800           0
     10078 MEMB     71       POPS     H18T     HAL3     0.900000E-01   1.00800           0
     10079 MEMB     71       POPS     C33      CTL2    -0.180000       12.0110           0
     10080 MEMB     71       POPS     H3X      HAL2     0.900000E-01   1.00800           0
     10081 MEMB     71       POPS     H3Y      HAL2     0.900000E-01   1.00800           0
     10082 MEMB     71       POPS     C34      CTL2    -0.180000       12.0110           0
     10083 MEMB     71       POPS     H4X      HAL2     0.900000E-01   1.00800           0
     10084 MEMB     71       POPS     H4Y      HAL2     0.900000E-01   1.00800           0
     10085 MEMB     71       POPS     C35      CTL2    -0.180000       12.0110           0
     10086 MEMB     71       POPS     H5X      HAL2     0.900000E-01   1.00800           0
     10087 MEMB     71       POPS     H5Y      HAL2     0.900000E-01   1.00800           0
     10088 MEMB     71       POPS     C36      CTL2    -0.180000       12.0110           0
     10089 MEMB     71       POPS     H6X      HAL2     0.900000E-01   1.00800           0
     10090 MEMB     71       POPS     H6Y      HAL2     0.900000E-01   1.00800           0
     10091 MEMB     71       POPS     C37      CTL2    -0.180000       12.0110           0
     10092 MEMB     71       POPS     H7X      HAL2     0.900000E-01   1.00800           0
     10093 MEMB     71       POPS     H7Y      HAL2     0.900000E-01   1.00800           0
     10094 MEMB     71       POPS     C38      CTL2    -0.180000       12.0110           0
     10095 MEMB     71       POPS     H8X      HAL2     0.900000E-01   1.00800           0
     10096 MEMB     71       POPS     H8Y      HAL2     0.900000E-01   1.00800           0
     10097 MEMB     71       POPS     C39      CTL2    -0.180000       12.0110           0
     10098 MEMB     71       POPS     H9X      HAL2     0.900000E-01   1.00800           0
     10099 MEMB     71       POPS     H9Y      HAL2     0.900000E-01   1.00800           0
     10100 MEMB     71       POPS     C310     CTL2    -0.180000       12.0110           0
     10101 MEMB     71       POPS     H10X     HAL2     0.900000E-01   1.00800           0
     10102 MEMB     71       POPS     H10Y     HAL2     0.900000E-01   1.00800           0
     10103 MEMB     71       POPS     C311     CTL2    -0.180000       12.0110           0
     10104 MEMB     71       POPS     H11X     HAL2     0.900000E-01   1.00800           0
     10105 MEMB     71       POPS     H11Y     HAL2     0.900000E-01   1.00800           0
     10106 MEMB     71       POPS     C312     CTL2    -0.180000       12.0110           0
     10107 MEMB     71       POPS     H12X     HAL2     0.900000E-01   1.00800           0
     10108 MEMB     71       POPS     H12Y     HAL2     0.900000E-01   1.00800           0
     10109 MEMB     71       POPS     C313     CTL2    -0.180000       12.0110           0
     10110 MEMB     71       POPS     H13X     HAL2     0.900000E-01   1.00800           0
     10111 MEMB     71       POPS     H13Y     HAL2     0.900000E-01   1.00800           0
     10112 MEMB     71       POPS     C314     CTL2    -0.180000       12.0110           0
     10113 MEMB     71       POPS     H14X     HAL2     0.900000E-01   1.00800           0
     10114 MEMB     71       POPS     H14Y     HAL2     0.900000E-01   1.00800           0
     10115 MEMB     71       POPS     C315     CTL2    -0.180000       12.0110           0
     10116 MEMB     71       POPS     H15X     HAL2     0.900000E-01   1.00800           0
     10117 MEMB     71       POPS     H15Y     HAL2     0.900000E-01   1.00800           0
     10118 MEMB     71       POPS     C316     CTL3    -0.270000       12.0110           0
     10119 MEMB     71       POPS     H16X     HAL3     0.900000E-01   1.00800           0
     10120 MEMB     71       POPS     H16Y     HAL3     0.900000E-01   1.00800           0
     10121 MEMB     71       POPS     H16Z     HAL3     0.900000E-01   1.00800           0
     10122 MEMB     79       POPS     N        NH3L    -0.300000       14.0070           0
     10123 MEMB     79       POPS     HN1      HCL      0.330000       1.00800           0
     10124 MEMB     79       POPS     HN2      HCL      0.330000       1.00800           0
     10125 MEMB     79       POPS     HN3      HCL      0.330000       1.00800           0
     10126 MEMB     79       POPS     C12      CTL1     0.210000       12.0110           0
     10127 MEMB     79       POPS     H12A     HBL      0.100000       1.00800           0
     10128 MEMB     79       POPS     C13      CCL      0.340000       12.0110           0
     10129 MEMB     79       POPS     O13A     OCL     -0.670000       15.9994           0
     10130 MEMB     79       POPS     O13B     OCL     -0.670000       15.9994           0
     10131 MEMB     79       POPS     C11      CTL2    -0.800000E-01   12.0110           0
     10132 MEMB     79       POPS     H11A     HAL2     0.900000E-01   1.00800           0
     10133 MEMB     79       POPS     H11B     HAL2     0.900000E-01   1.00800           0
     10134 MEMB     79       POPS     P        PL       1.500000       30.9740           0
     10135 MEMB     79       POPS     O13      O2L     -0.780000       15.9994           0
     10136 MEMB     79       POPS     O14      O2L     -0.780000       15.9994           0
     10137 MEMB     79       POPS     O12      OSLP    -0.570000       15.9994           0
     10138 MEMB     79       POPS     O11      OSLP    -0.570000       15.9994           0
     10139 MEMB     79       POPS     C1       CTL2    -0.800000E-01   12.0110           0
     10140 MEMB     79       POPS     HA       HAL2     0.900000E-01   1.00800           0
     10141 MEMB     79       POPS     HB       HAL2     0.900000E-01   1.00800           0
     10142 MEMB     79       POPS     C2       CTL1     0.170000       12.0110           0
     10143 MEMB     79       POPS     HS       HAL1     0.900000E-01   1.00800           0
     10144 MEMB     79       POPS     O21      OSL     -0.490000       15.9994           0
     10145 MEMB     79       POPS     C21      CL       0.900000       12.0110           0
     10146 MEMB     79       POPS     O22      OBL     -0.630000       15.9994           0
     10147 MEMB     79       POPS     C22      CTL2    -0.220000       12.0110           0
     10148 MEMB     79       POPS     H2R      HAL2     0.900000E-01   1.00800           0
     10149 MEMB     79       POPS     H2S      HAL2     0.900000E-01   1.00800           0
     10150 MEMB     79       POPS     C3       CTL2     0.800000E-01   12.0110           0
     10151 MEMB     79       POPS     HX       HAL2     0.900000E-01   1.00800           0
     10152 MEMB     79       POPS     HY       HAL2     0.900000E-01   1.00800           0
     10153 MEMB     79       POPS     O31      OSL     -0.490000       15.9994           0
     10154 MEMB     79       POPS     C31      CL       0.900000       12.0110           0
     10155 MEMB     79       POPS     O32      OBL     -0.630000       15.9994           0
     10156 MEMB     79       POPS     C32      CTL2    -0.220000       12.0110           0
     10157 MEMB     79       POPS     H2X      HAL2     0.900000E-01   1.00800           0
     10158 MEMB     79       POPS     H2Y      HAL2     0.900000E-01   1.00800           0
     10159 MEMB     79       POPS     C23      CTL2    -0.180000       12.0110           0
     10160 MEMB     79       POPS     H3R      HAL2     0.900000E-01   1.00800           0
     10161 MEMB     79       POPS     H3S      HAL2     0.900000E-01   1.00800           0
     10162 MEMB     79       POPS     C24      CTL2    -0.180000       12.0110           0
     10163 MEMB     79       POPS     H4R      HAL2     0.900000E-01   1.00800           0
     10164 MEMB     79       POPS     H4S      HAL2     0.900000E-01   1.00800           0
     10165 MEMB     79       POPS     C25      CTL2    -0.180000       12.0110           0
     10166 MEMB     79       POPS     H5R      HAL2     0.900000E-01   1.00800           0
     10167 MEMB     79       POPS     H5S      HAL2     0.900000E-01   1.00800           0
     10168 MEMB     79       POPS     C26      CTL2    -0.180000       12.0110           0
     10169 MEMB     79       POPS     H6R      HAL2     0.900000E-01   1.00800           0
     10170 MEMB     79       POPS     H6S      HAL2     0.900000E-01   1.00800           0
     10171 MEMB     79       POPS     C27      CTL2    -0.180000       12.0110           0
     10172 MEMB     79       POPS     H7R      HAL2     0.900000E-01   1.00800           0
     10173 MEMB     79       POPS     H7S      HAL2     0.900000E-01   1.00800           0
     10174 MEMB     79       POPS     C28      CTL2    -0.180000       12.0110           0
     10175 MEMB     79       POPS     H8R      HAL2     0.900000E-01   1.00800           0
     10176 MEMB     79       POPS     H8S      HAL2     0.900000E-01   1.00800           0
     10177 MEMB     79       POPS     C29      CEL1    -0.150000       12.0110           0
     10178 MEMB     79       POPS     H91      HEL1     0.150000       1.00800           0
     10179 MEMB     79       POPS     C210     CEL1    -0.150000       12.0110           0
     10180 MEMB     79       POPS     H101     HEL1     0.150000       1.00800           0
     10181 MEMB     79       POPS     C211     CTL2    -0.180000       12.0110           0
     10182 MEMB     79       POPS     H11R     HAL2     0.900000E-01   1.00800           0
     10183 MEMB     79       POPS     H11S     HAL2     0.900000E-01   1.00800           0
     10184 MEMB     79       POPS     C212     CTL2    -0.180000       12.0110           0
     10185 MEMB     79       POPS     H12R     HAL2     0.900000E-01   1.00800           0
     10186 MEMB     79       POPS     H12S     HAL2     0.900000E-01   1.00800           0
     10187 MEMB     79       POPS     C213     CTL2    -0.180000       12.0110           0
     10188 MEMB     79       POPS     H13R     HAL2     0.900000E-01   1.00800           0
     10189 MEMB     79       POPS     H13S     HAL2     0.900000E-01   1.00800           0
     10190 MEMB     79       POPS     C214     CTL2    -0.180000       12.0110           0
     10191 MEMB     79       POPS     H14R     HAL2     0.900000E-01   1.00800           0
     10192 MEMB     79       POPS     H14S     HAL2     0.900000E-01   1.00800           0
     10193 MEMB     79       POPS     C215     CTL2    -0.180000       12.0110           0
     10194 MEMB     79       POPS     H15R     HAL2     0.900000E-01   1.00800           0
     10195 MEMB     79       POPS     H15S     HAL2     0.900000E-01   1.00800           0
     10196 MEMB     79       POPS     C216     CTL2    -0.180000       12.0110           0
     10197 MEMB     79       POPS     H16R     HAL2     0.900000E-01   1.00800           0
     10198 MEMB     79       POPS     H16S     HAL2     0.900000E-01   1.00800           0
     10199 MEMB     79       POPS     C217     CTL2    -0.180000       12.0110           0
     10200 MEMB     79       POPS     H17R     HAL2     0.900000E-01   1.00800           0
     10201 MEMB     79       POPS     H17S     HAL2     0.900000E-01   1.00800           0
     10202 MEMB     79       POPS     C218     CTL3    -0.270000       12.0110           0
     10203 MEMB     79       POPS     H18R     HAL3     0.900000E-01   1.00800           0
     10204 MEMB     79       POPS     H18S     HAL3     0.900000E-01   1.00800           0
     10205 MEMB     79       POPS     H18T     HAL3     0.900000E-01   1.00800           0
     10206 MEMB     79       POPS     C33      CTL2    -0.180000       12.0110           0
     10207 MEMB     79       POPS     H3X      HAL2     0.900000E-01   1.00800           0
     10208 MEMB     79       POPS     H3Y      HAL2     0.900000E-01   1.00800           0
     10209 MEMB     79       POPS     C34      CTL2    -0.180000       12.0110           0
     10210 MEMB     79       POPS     H4X      HAL2     0.900000E-01   1.00800           0
     10211 MEMB     79       POPS     H4Y      HAL2     0.900000E-01   1.00800           0
     10212 MEMB     79       POPS     C35      CTL2    -0.180000       12.0110           0
     10213 MEMB     79       POPS     H5X      HAL2     0.900000E-01   1.00800           0
     10214 MEMB     79       POPS     H5Y      HAL2     0.900000E-01   1.00800           0
     10215 MEMB     79       POPS     C36      CTL2    -0.180000       12.0110           0
     10216 MEMB     79       POPS     H6X      HAL2     0.900000E-01   1.00800           0
     10217 MEMB     79       POPS     H6Y      HAL2     0.900000E-01   1.00800           0
     10218 MEMB     79       POPS     C37      CTL2    -0.180000       12.0110           0
     10219 MEMB     79       POPS     H7X      HAL2     0.900000E-01   1.00800           0
     10220 MEMB     79       POPS     H7Y      HAL2     0.900000E-01   1.00800           0
     10221 MEMB     79       POPS     C38      CTL2    -0.180000       12.0110           0
     10222 MEMB     79       POPS     H8X      HAL2     0.900000E-01   1.00800           0
     10223 MEMB     79       POPS     H8Y      HAL2     0.900000E-01   1.00800           0
     10224 MEMB     79       POPS     C39      CTL2    -0.180000       12.0110           0
     10225 MEMB     79       POPS     H9X      HAL2     0.900000E-01   1.00800           0
     10226 MEMB     79       POPS     H9Y      HAL2     0.900000E-01   1.00800           0
     10227 MEMB     79       POPS     C310     CTL2    -0.180000       12.0110           0
     10228 MEMB     79       POPS     H10X     HAL2     0.900000E-01   1.00800           0
     10229 MEMB     79       POPS     H10Y     HAL2     0.900000E-01   1.00800           0
     10230 MEMB     79       POPS     C311     CTL2    -0.180000       12.0110           0
     10231 MEMB     79       POPS     H11X     HAL2     0.900000E-01   1.00800           0
     10232 MEMB     79       POPS     H11Y     HAL2     0.900000E-01   1.00800           0
     10233 MEMB     79       POPS     C312     CTL2    -0.180000       12.0110           0
     10234 MEMB     79       POPS     H12X     HAL2     0.900000E-01   1.00800           0
     10235 MEMB     79       POPS     H12Y     HAL2     0.900000E-01   1.00800           0
     10236 MEMB     79       POPS     C313     CTL2    -0.180000       12.0110           0
     10237 MEMB     79       POPS     H13X     HAL2     0.900000E-01   1.00800           0
     10238 MEMB     79       POPS     H13Y     HAL2     0.900000E-01   1.00800           0
     10239 MEMB     79       POPS     C314     CTL2    -0.180000       12.0110           0
     10240 MEMB     79       POPS     H14X     HAL2     0.900000E-01   1.00800           0
     10241 MEMB     79       POPS     H14Y     HAL2     0.900000E-01   1.00800           0
     10242 MEMB     79       POPS     C315     CTL2    -0.180000       12.0110           0
     10243 MEMB     79       POPS     H15X     HAL2     0.900000E-01   1.00800           0
     10244 MEMB     79       POPS     H15Y     HAL2     0.900000E-01   1.00800           0
     10245 MEMB     79       POPS     C316     CTL3    -0.270000       12.0110           0
     10246 MEMB     79       POPS     H16X     HAL3     0.900000E-01   1.00800           0
     10247 MEMB     79       POPS     H16Y     HAL3     0.900000E-01   1.00800           0
     10248 MEMB     79       POPS     H16Z     HAL3     0.900000E-01   1.00800           0
     10249 MEMB     81       POPS     N        NH3L    -0.300000       14.0070           0
     10250 MEMB     81       POPS     HN1      HCL      0.330000       1.00800           0
     10251 MEMB     81       POPS     HN2      HCL      0.330000       1.00800           0
     10252 MEMB     81       POPS     HN3      HCL      0.330000       1.00800           0
     10253 MEMB     81       POPS     C12      CTL1     0.210000       12.0110           0
     10254 MEMB     81       POPS     H12A     HBL      0.100000       1.00800           0
     10255 MEMB     81       POPS     C13      CCL      0.340000       12.0110           0
     10256 MEMB     81       POPS     O13A     OCL     -0.670000       15.9994           0
     10257 MEMB     81       POPS     O13B     OCL     -0.670000       15.9994           0
     10258 MEMB     81       POPS     C11      CTL2    -0.800000E-01   12.0110           0
     10259 MEMB     81       POPS     H11A     HAL2     0.900000E-01   1.00800           0
     10260 MEMB     81       POPS     H11B     HAL2     0.900000E-01   1.00800           0
     10261 MEMB     81       POPS     P        PL       1.500000       30.9740           0
     10262 MEMB     81       POPS     O13      O2L     -0.780000       15.9994           0
     10263 MEMB     81       POPS     O14      O2L     -0.780000       15.9994           0
     10264 MEMB     81       POPS     O12      OSLP    -0.570000       15.9994           0
     10265 MEMB     81       POPS     O11      OSLP    -0.570000       15.9994           0
     10266 MEMB     81       POPS     C1       CTL2    -0.800000E-01   12.0110           0
     10267 MEMB     81       POPS     HA       HAL2     0.900000E-01   1.00800           0
     10268 MEMB     81       POPS     HB       HAL2     0.900000E-01   1.00800           0
     10269 MEMB     81       POPS     C2       CTL1     0.170000       12.0110           0
     10270 MEMB     81       POPS     HS       HAL1     0.900000E-01   1.00800           0
     10271 MEMB     81       POPS     O21      OSL     -0.490000       15.9994           0
     10272 MEMB     81       POPS     C21      CL       0.900000       12.0110           0
     10273 MEMB     81       POPS     O22      OBL     -0.630000       15.9994           0
     10274 MEMB     81       POPS     C22      CTL2    -0.220000       12.0110           0
     10275 MEMB     81       POPS     H2R      HAL2     0.900000E-01   1.00800           0
     10276 MEMB     81       POPS     H2S      HAL2     0.900000E-01   1.00800           0
     10277 MEMB     81       POPS     C3       CTL2     0.800000E-01   12.0110           0
     10278 MEMB     81       POPS     HX       HAL2     0.900000E-01   1.00800           0
     10279 MEMB     81       POPS     HY       HAL2     0.900000E-01   1.00800           0
     10280 MEMB     81       POPS     O31      OSL     -0.490000       15.9994           0
     10281 MEMB     81       POPS     C31      CL       0.900000       12.0110           0
     10282 MEMB     81       POPS     O32      OBL     -0.630000       15.9994           0
     10283 MEMB     81       POPS     C32      CTL2    -0.220000       12.0110           0
     10284 MEMB     81       POPS     H2X      HAL2     0.900000E-01   1.00800           0
     10285 MEMB     81       POPS     H2Y      HAL2     0.900000E-01   1.00800           0
     10286 MEMB     81       POPS     C23      CTL2    -0.180000       12.0110           0
     10287 MEMB     81       POPS     H3R      HAL2     0.900000E-01   1.00800           0
     10288 MEMB     81       POPS     H3S      HAL2     0.900000E-01   1.00800           0
     10289 MEMB     81       POPS     C24      CTL2    -0.180000       12.0110           0
     10290 MEMB     81       POPS     H4R      HAL2     0.900000E-01   1.00800           0
     10291 MEMB     81       POPS     H4S      HAL2     0.900000E-01   1.00800           0
     10292 MEMB     81       POPS     C25      CTL2    -0.180000       12.0110           0
     10293 MEMB     81       POPS     H5R      HAL2     0.900000E-01   1.00800           0
     10294 MEMB     81       POPS     H5S      HAL2     0.900000E-01   1.00800           0
     10295 MEMB     81       POPS     C26      CTL2    -0.180000       12.0110           0
     10296 MEMB     81       POPS     H6R      HAL2     0.900000E-01   1.00800           0
     10297 MEMB     81       POPS     H6S      HAL2     0.900000E-01   1.00800           0
     10298 MEMB     81       POPS     C27      CTL2    -0.180000       12.0110           0
     10299 MEMB     81       POPS     H7R      HAL2     0.900000E-01   1.00800           0
     10300 MEMB     81       POPS     H7S      HAL2     0.900000E-01   1.00800           0
     10301 MEMB     81       POPS     C28      CTL2    -0.180000       12.0110           0
     10302 MEMB     81       POPS     H8R      HAL2     0.900000E-01   1.00800           0
     10303 MEMB     81       POPS     H8S      HAL2     0.900000E-01   1.00800           0
     10304 MEMB     81       POPS     C29      CEL1    -0.150000       12.0110           0
     10305 MEMB     81       POPS     H91      HEL1     0.150000       1.00800           0
     10306 MEMB     81       POPS     C210     CEL1    -0.150000       12.0110           0
     10307 MEMB     81       POPS     H101     HEL1     0.150000       1.00800           0
     10308 MEMB     81       POPS     C211     CTL2    -0.180000       12.0110           0
     10309 MEMB     81       POPS     H11R     HAL2     0.900000E-01   1.00800           0
     10310 MEMB     81       POPS     H11S     HAL2     0.900000E-01   1.00800           0
     10311 MEMB     81       POPS     C212     CTL2    -0.180000       12.0110           0
     10312 MEMB     81       POPS     H12R     HAL2     0.900000E-01   1.00800           0
     10313 MEMB     81       POPS     H12S     HAL2     0.900000E-01   1.00800           0
     10314 MEMB     81       POPS     C213     CTL2    -0.180000       12.0110           0
     10315 MEMB     81       POPS     H13R     HAL2     0.900000E-01   1.00800           0
     10316 MEMB     81       POPS     H13S     HAL2     0.900000E-01   1.00800           0
     10317 MEMB     81       POPS     C214     CTL2    -0.180000       12.0110           0
     10318 MEMB     81       POPS     H14R     HAL2     0.900000E-01   1.00800           0
     10319 MEMB     81       POPS     H14S     HAL2     0.900000E-01   1.00800           0
     10320 MEMB     81       POPS     C215     CTL2    -0.180000       12.0110           0
     10321 MEMB     81       POPS     H15R     HAL2     0.900000E-01   1.00800           0
     10322 MEMB     81       POPS     H15S     HAL2     0.900000E-01   1.00800           0
     10323 MEMB     81       POPS     C216     CTL2    -0.180000       12.0110           0
     10324 MEMB     81       POPS     H16R     HAL2     0.900000E-01   1.00800           0
     10325 MEMB     81       POPS     H16S     HAL2     0.900000E-01   1.00800           0
     10326 MEMB     81       POPS     C217     CTL2    -0.180000       12.0110           0
     10327 MEMB     81       POPS     H17R     HAL2     0.900000E-01   1.00800           0
     10328 MEMB     81       POPS     H17S     HAL2     0.900000E-01   1.00800           0
     10329 MEMB     81       POPS     C218     CTL3    -0.270000       12.0110           0
     10330 MEMB     81       POPS     H18R     HAL3     0.900000E-01   1.00800           0
     10331 MEMB     81       POPS     H18S     HAL3     0.900000E-01   1.00800           0
     10332 MEMB     81       POPS     H18T     HAL3     0.900000E-01   1.00800           0
     10333 MEMB     81       POPS     C33      CTL2    -0.180000       12.0110           0
     10334 MEMB     81       POPS     H3X      HAL2     0.900000E-01   1.00800           0
     10335 MEMB     81       POPS     H3Y      HAL2     0.900000E-01   1.00800           0
     10336 MEMB     81       POPS     C34      CTL2    -0.180000       12.0110           0
     10337 MEMB     81       POPS     H4X      HAL2     0.900000E-01   1.00800           0
     10338 MEMB     81       POPS     H4Y      HAL2     0.900000E-01   1.00800           0
     10339 MEMB     81       POPS     C35      CTL2    -0.180000       12.0110           0
     10340 MEMB     81       POPS     H5X      HAL2     0.900000E-01   1.00800           0
     10341 MEMB     81       POPS     H5Y      HAL2     0.900000E-01   1.00800           0
     10342 MEMB     81       POPS     C36      CTL2    -0.180000       12.0110           0
     10343 MEMB     81       POPS     H6X      HAL2     0.900000E-01   1.00800           0
     10344 MEMB     81       POPS     H6Y      HAL2     0.900000E-01   1.00800           0
     10345 MEMB     81       POPS     C37      CTL2    -0.180000       12.0110           0
     10346 MEMB     81       POPS     H7X      HAL2     0.900000E-01   1.00800           0
     10347 MEMB     81       POPS     H7Y      HAL2     0.900000E-01   1.00800           0
     10348 MEMB     81       POPS     C38      CTL2    -0.180000       12.0110           0
     10349 MEMB     81       POPS     H8X      HAL2     0.900000E-01   1.00800           0
     10350 MEMB     81       POPS     H8Y      HAL2     0.900000E-01   1.00800           0
     10351 MEMB     81       POPS     C39      CTL2    -0.180000       12.0110           0
     10352 MEMB     81       POPS     H9X      HAL2     0.900000E-01   1.00800           0
     10353 MEMB     81       POPS     H9Y      HAL2     0.900000E-01   1.00800           0
     10354 MEMB     81       POPS     C310     CTL2    -0.180000       12.0110           0
     10355 MEMB     81       POPS     H10X     HAL2     0.900000E-01   1.00800           0
     10356 MEMB     81       POPS     H10Y     HAL2     0.900000E-01   1.00800           0
     10357 MEMB     81       POPS     C311     CTL2    -0.180000       12.0110           0
     10358 MEMB     81       POPS     H11X     HAL2     0.900000E-01   1.00800           0
     10359 MEMB     81       POPS     H11Y     HAL2     0.900000E-01   1.00800           0
     10360 MEMB     81       POPS     C312     CTL2    -0.180000       12.0110           0
     10361 MEMB     81       POPS     H12X     HAL2     0.900000E-01   1.00800           0
     10362 MEMB     81       POPS     H12Y     HAL2     0.900000E-01   1.00800           0
     10363 MEMB     81       POPS     C313     CTL2    -0.180000       12.0110           0
     10364 MEMB     81       POPS     H13X     HAL2     0.900000E-01   1.00800           0
     10365 MEMB     81       POPS     H13Y     HAL2     0.900000E-01   1.00800           0
     10366 MEMB     81       POPS     C314     CTL2    -0.180000       12.0110           0
     10367 MEMB     81       POPS     H14X     HAL2     0.900000E-01   1.00800           0
     10368 MEMB     81       POPS     H14Y     HAL2     0.900000E-01   1.00800           0
     10369 MEMB     81       POPS     C315     CTL2    -0.180000       12.0110           0
     10370 MEMB     81       POPS     H15X     HAL2     0.900000E-01   1.00800           0
     10371 MEMB     81       POPS     H15Y     HAL2     0.900000E-01   1.00800           0
     10372 MEMB     81       POPS     C316     CTL3    -0.270000       12.0110           0
     10373 MEMB     81       POPS     H16X     HAL3     0.900000E-01   1.00800           0
     10374 MEMB     81       POPS     H16Y     HAL3     0.900000E-01   1.00800           0
     10375 MEMB     81       POPS     H16Z     HAL3     0.900000E-01   1.00800           0
     10376 MEMB     85       POPS     N        NH3L    -0.300000       14.0070           0
     10377 MEMB     85       POPS     HN1      HCL      0.330000       1.00800           0
     10378 MEMB     85       POPS     HN2      HCL      0.330000       1.00800           0
     10379 MEMB     85       POPS     HN3      HCL      0.330000       1.00800           0
     10380 MEMB     85       POPS     C12      CTL1     0.210000       12.0110           0
     10381 MEMB     85       POPS     H12A     HBL      0.100000       1.00800           0
     10382 MEMB     85       POPS     C13      CCL      0.340000       12.0110           0
     10383 MEMB     85       POPS     O13A     OCL     -0.670000       15.9994           0
     10384 MEMB     85       POPS     O13B     OCL     -0.670000       15.9994           0
     10385 MEMB     85       POPS     C11      CTL2    -0.800000E-01   12.0110           0
     10386 MEMB     85       POPS     H11A     HAL2     0.900000E-01   1.00800           0
     10387 MEMB     85       POPS     H11B     HAL2     0.900000E-01   1.00800           0
     10388 MEMB     85       POPS     P        PL       1.500000       30.9740           0
     10389 MEMB     85       POPS     O13      O2L     -0.780000       15.9994           0
     10390 MEMB     85       POPS     O14      O2L     -0.780000       15.9994           0
     10391 MEMB     85       POPS     O12      OSLP    -0.570000       15.9994           0
     10392 MEMB     85       POPS     O11      OSLP    -0.570000       15.9994           0
     10393 MEMB     85       POPS     C1       CTL2    -0.800000E-01   12.0110           0
     10394 MEMB     85       POPS     HA       HAL2     0.900000E-01   1.00800           0
     10395 MEMB     85       POPS     HB       HAL2     0.900000E-01   1.00800           0
     10396 MEMB     85       POPS     C2       CTL1     0.170000       12.0110           0
     10397 MEMB     85       POPS     HS       HAL1     0.900000E-01   1.00800           0
     10398 MEMB     85       POPS     O21      OSL     -0.490000       15.9994           0
     10399 MEMB     85       POPS     C21      CL       0.900000       12.0110           0
     10400 MEMB     85       POPS     O22      OBL     -0.630000       15.9994           0
     10401 MEMB     85       POPS     C22      CTL2    -0.220000       12.0110           0
     10402 MEMB     85       POPS     H2R      HAL2     0.900000E-01   1.00800           0
     10403 MEMB     85       POPS     H2S      HAL2     0.900000E-01   1.00800           0
     10404 MEMB     85       POPS     C3       CTL2     0.800000E-01   12.0110           0
     10405 MEMB     85       POPS     HX       HAL2     0.900000E-01   1.00800           0
     10406 MEMB     85       POPS     HY       HAL2     0.900000E-01   1.00800           0
     10407 MEMB     85       POPS     O31      OSL     -0.490000       15.9994           0
     10408 MEMB     85       POPS     C31      CL       0.900000       12.0110           0
     10409 MEMB     85       POPS     O32      OBL     -0.630000       15.9994           0
     10410 MEMB     85       POPS     C32      CTL2    -0.220000       12.0110           0
     10411 MEMB     85       POPS     H2X      HAL2     0.900000E-01   1.00800           0
     10412 MEMB     85       POPS     H2Y      HAL2     0.900000E-01   1.00800           0
     10413 MEMB     85       POPS     C23      CTL2    -0.180000       12.0110           0
     10414 MEMB     85       POPS     H3R      HAL2     0.900000E-01   1.00800           0
     10415 MEMB     85       POPS     H3S      HAL2     0.900000E-01   1.00800           0
     10416 MEMB     85       POPS     C24      CTL2    -0.180000       12.0110           0
     10417 MEMB     85       POPS     H4R      HAL2     0.900000E-01   1.00800           0
     10418 MEMB     85       POPS     H4S      HAL2     0.900000E-01   1.00800           0
     10419 MEMB     85       POPS     C25      CTL2    -0.180000       12.0110           0
     10420 MEMB     85       POPS     H5R      HAL2     0.900000E-01   1.00800           0
     10421 MEMB     85       POPS     H5S      HAL2     0.900000E-01   1.00800           0
     10422 MEMB     85       POPS     C26      CTL2    -0.180000       12.0110           0
     10423 MEMB     85       POPS     H6R      HAL2     0.900000E-01   1.00800           0
     10424 MEMB     85       POPS     H6S      HAL2     0.900000E-01   1.00800           0
     10425 MEMB     85       POPS     C27      CTL2    -0.180000       12.0110           0
     10426 MEMB     85       POPS     H7R      HAL2     0.900000E-01   1.00800           0
     10427 MEMB     85       POPS     H7S      HAL2     0.900000E-01   1.00800           0
     10428 MEMB     85       POPS     C28      CTL2    -0.180000       12.0110           0
     10429 MEMB     85       POPS     H8R      HAL2     0.900000E-01   1.00800           0
     10430 MEMB     85       POPS     H8S      HAL2     0.900000E-01   1.00800           0
     10431 MEMB     85       POPS     C29      CEL1    -0.150000       12.0110           0
     10432 MEMB     85       POPS     H91      HEL1     0.150000       1.00800           0
     10433 MEMB     85       POPS     C210     CEL1    -0.150000       12.0110           0
     10434 MEMB     85       POPS     H101     HEL1     0.150000       1.00800           0
     10435 MEMB     85       POPS     C211     CTL2    -0.180000       12.0110           0
     10436 MEMB     85       POPS     H11R     HAL2     0.900000E-01   1.00800           0
     10437 MEMB     85       POPS     H11S     HAL2     0.900000E-01   1.00800           0
     10438 MEMB     85       POPS     C212     CTL2    -0.180000       12.0110           0
     10439 MEMB     85       POPS     H12R     HAL2     0.900000E-01   1.00800           0
     10440 MEMB     85       POPS     H12S     HAL2     0.900000E-01   1.00800           0
     10441 MEMB     85       POPS     C213     CTL2    -0.180000       12.0110           0
     10442 MEMB     85       POPS     H13R     HAL2     0.900000E-01   1.00800           0
     10443 MEMB     85       POPS     H13S     HAL2     0.900000E-01   1.00800           0
     10444 MEMB     85       POPS     C214     CTL2    -0.180000       12.0110           0
     10445 MEMB     85       POPS     H14R     HAL2     0.900000E-01   1.00800           0
     10446 MEMB     85       POPS     H14S     HAL2     0.900000E-01   1.00800           0
     10447 MEMB     85       POPS     C215     CTL2    -0.180000       12.0110           0
     10448 MEMB     85       POPS     H15R     HAL2     0.900000E-01   1.00800           0
     10449 MEMB     85       POPS     H15S     HAL2     0.900000E-01   1.00800           0
     10450 MEMB     85       POPS     C216     CTL2    -0.180000       12.0110           0
     10451 MEMB     85       POPS     H16R     HAL2     0.900000E-01   1.00800           0
     10452 MEMB     85       POPS     H16S     HAL2     0.900000E-01   1.00800           0
     10453 MEMB     85       POPS     C217     CTL2    -0.180000       12.0110           0
     10454 MEMB     85       POPS     H17R     HAL2     0.900000E-01   1.00800           0
     10455 MEMB     85       POPS     H17S     HAL2     0.900000E-01   1.00800           0
     10456 MEMB     85       POPS     C218     CTL3    -0.270000       12.0110           0
     10457 MEMB     85       POPS     H18R     HAL3     0.900000E-01   1.00800           0
     10458 MEMB     85       POPS     H18S     HAL3     0.900000E-01   1.00800           0
     10459 MEMB     85       POPS     H18T     HAL3     0.900000E-01   1.00800           0
     10460 MEMB     85       POPS     C33      CTL2    -0.180000       12.0110           0
     10461 MEMB     85       POPS     H3X      HAL2     0.900000E-01   1.00800           0
     10462 MEMB     85       POPS     H3Y      HAL2     0.900000E-01   1.00800           0
     10463 MEMB     85       POPS     C34      CTL2    -0.180000       12.0110           0
     10464 MEMB     85       POPS     H4X      HAL2     0.900000E-01   1.00800           0
     10465 MEMB     85       POPS     H4Y      HAL2     0.900000E-01   1.00800           0
     10466 MEMB     85       POPS     C35      CTL2    -0.180000       12.0110           0
     10467 MEMB     85       POPS     H5X      HAL2     0.900000E-01   1.00800           0
     10468 MEMB     85       POPS     H5Y      HAL2     0.900000E-01   1.00800           0
     10469 MEMB     85       POPS     C36      CTL2    -0.180000       12.0110           0
     10470 MEMB     85       POPS     H6X      HAL2     0.900000E-01   1.00800           0
     10471 MEMB     85       POPS     H6Y      HAL2     0.900000E-01   1.00800           0
     10472 MEMB     85       POPS     C37      CTL2    -0.180000       12.0110           0
     10473 MEMB     85       POPS     H7X      HAL2     0.900000E-01   1.00800           0
     10474 MEMB     85       POPS     H7Y      HAL2     0.900000E-01   1.00800           0
     10475 MEMB     85       POPS     C38      CTL2    -0.180000       12.0110           0
     10476 MEMB     85       POPS     H8X      HAL2     0.900000E-01   1.00800           0
     10477 MEMB     85       POPS     H8Y      HAL2     0.900000E-01   1.00800           0
     10478 MEMB     85       POPS     C39      CTL2    -0.180000       12.0110           0
     10479 MEMB     85       POPS     H9X      HAL2     0.900000E-01   1.00800           0
     10480 MEMB     85       POPS     H9Y      HAL2     0.900000E-01   1.00800           0
     10481 MEMB     85       POPS     C310     CTL2    -0.180000       12.0110           0
     10482 MEMB     85       POPS     H10X     HAL2     0.900000E-01   1.00800           0
     10483 MEMB     85       POPS     H10Y     HAL2     0.900000E-01   1.00800           0
     10484 MEMB     85       POPS     C311     CTL2    -0.180000       12.0110           0
     10485 MEMB     85       POPS     H11X     HAL2     0.900000E-01   1.00800           0
     10486 MEMB     85       POPS     H11Y     HAL2     0.900000E-01   1.00800           0
     10487 MEMB     85       POPS     C312     CTL2    -0.180000       12.0110           0
     10488 MEMB     85       POPS     H12X     HAL2     0.900000E-01   1.00800           0
     10489 MEMB     85       POPS     H12Y     HAL2     0.900000E-01   1.00800           0
     10490 MEMB     85       POPS     C313     CTL2    -0.180000       12.0110           0
     10491 MEMB     85       POPS     H13X     HAL2     0.900000E-01   1.00800           0
     10492 MEMB     85       POPS     H13Y     HAL2     0.900000E-01   1.00800           0
     10493 MEMB     85       POPS     C314     CTL2    -0.180000       12.0110           0
     10494 MEMB     85       POPS     H14X     HAL2     0.900000E-01   1.00800           0
     10495 MEMB     85       POPS     H14Y     HAL2     0.900000E-01   1.00800           0
     10496 MEMB     85       POPS     C315     CTL2    -0.180000       12.0110           0
     10497 MEMB     85       POPS     H15X     HAL2     0.900000E-01   1.00800           0
     10498 MEMB     85       POPS     H15Y     HAL2     0.900000E-01   1.00800           0
     10499 MEMB     85       POPS     C316     CTL3    -0.270000       12.0110           0
     10500 MEMB     85       POPS     H16X     HAL3     0.900000E-01   1.00800           0
     10501 MEMB     85       POPS     H16Y     HAL3     0.900000E-01   1.00800           0
     10502 MEMB     85       POPS     H16Z     HAL3     0.900000E-01   1.00800           0
     10503 MEMB     90       POPS     N        NH3L    -0.300000       14.0070           0
     10504 MEMB     90       POPS     HN1      HCL      0.330000       1.00800           0
     10505 MEMB     90       POPS     HN2      HCL      0.330000       1.00800           0
     10506 MEMB     90       POPS     HN3      HCL      0.330000       1.00800           0
     10507 MEMB     90       POPS     C12      CTL1     0.210000       12.0110           0
     10508 MEMB     90       POPS     H12A     HBL      0.100000       1.00800           0
     10509 MEMB     90       POPS     C13      CCL      0.340000       12.0110           0
     10510 MEMB     90       POPS     O13A     OCL     -0.670000       15.9994           0
     10511 MEMB     90       POPS     O13B     OCL     -0.670000       15.9994           0
     10512 MEMB     90       POPS     C11      CTL2    -0.800000E-01   12.0110           0
     10513 MEMB     90       POPS     H11A     HAL2     0.900000E-01   1.00800           0
     10514 MEMB     90       POPS     H11B     HAL2     0.900000E-01   1.00800           0
     10515 MEMB     90       POPS     P        PL       1.500000       30.9740           0
     10516 MEMB     90       POPS     O13      O2L     -0.780000       15.9994           0
     10517 MEMB     90       POPS     O14      O2L     -0.780000       15.9994           0
     10518 MEMB     90       POPS     O12      OSLP    -0.570000       15.9994           0
     10519 MEMB     90       POPS     O11      OSLP    -0.570000       15.9994           0
     10520 MEMB     90       POPS     C1       CTL2    -0.800000E-01   12.0110           0
     10521 MEMB     90       POPS     HA       HAL2     0.900000E-01   1.00800           0
     10522 MEMB     90       POPS     HB       HAL2     0.900000E-01   1.00800           0
     10523 MEMB     90       POPS     C2       CTL1     0.170000       12.0110           0
     10524 MEMB     90       POPS     HS       HAL1     0.900000E-01   1.00800           0
     10525 MEMB     90       POPS     O21      OSL     -0.490000       15.9994           0
     10526 MEMB     90       POPS     C21      CL       0.900000       12.0110           0
     10527 MEMB     90       POPS     O22      OBL     -0.630000       15.9994           0
     10528 MEMB     90       POPS     C22      CTL2    -0.220000       12.0110           0
     10529 MEMB     90       POPS     H2R      HAL2     0.900000E-01   1.00800           0
     10530 MEMB     90       POPS     H2S      HAL2     0.900000E-01   1.00800           0
     10531 MEMB     90       POPS     C3       CTL2     0.800000E-01   12.0110           0
     10532 MEMB     90       POPS     HX       HAL2     0.900000E-01   1.00800           0
     10533 MEMB     90       POPS     HY       HAL2     0.900000E-01   1.00800           0
     10534 MEMB     90       POPS     O31      OSL     -0.490000       15.9994           0
     10535 MEMB     90       POPS     C31      CL       0.900000       12.0110           0
     10536 MEMB     90       POPS     O32      OBL     -0.630000       15.9994           0
     10537 MEMB     90       POPS     C32      CTL2    -0.220000       12.0110           0
     10538 MEMB     90       POPS     H2X      HAL2     0.900000E-01   1.00800           0
     10539 MEMB     90       POPS     H2Y      HAL2     0.900000E-01   1.00800           0
     10540 MEMB     90       POPS     C23      CTL2    -0.180000       12.0110           0
     10541 MEMB     90       POPS     H3R      HAL2     0.900000E-01   1.00800           0
     10542 MEMB     90       POPS     H3S      HAL2     0.900000E-01   1.00800           0
     10543 MEMB     90       POPS     C24      CTL2    -0.180000       12.0110           0
     10544 MEMB     90       POPS     H4R      HAL2     0.900000E-01   1.00800           0
     10545 MEMB     90       POPS     H4S      HAL2     0.900000E-01   1.00800           0
     10546 MEMB     90       POPS     C25      CTL2    -0.180000       12.0110           0
     10547 MEMB     90       POPS     H5R      HAL2     0.900000E-01   1.00800           0
     10548 MEMB     90       POPS     H5S      HAL2     0.900000E-01   1.00800           0
     10549 MEMB     90       POPS     C26      CTL2    -0.180000       12.0110           0
     10550 MEMB     90       POPS     H6R      HAL2     0.900000E-01   1.00800           0
     10551 MEMB     90       POPS     H6S      HAL2     0.900000E-01   1.00800           0
     10552 MEMB     90       POPS     C27      CTL2    -0.180000       12.0110           0
     10553 MEMB     90       POPS     H7R      HAL2     0.900000E-01   1.00800           0
     10554 MEMB     90       POPS     H7S      HAL2     0.900000E-01   1.00800           0
     10555 MEMB     90       POPS     C28      CTL2    -0.180000       12.0110           0
     10556 MEMB     90       POPS     H8R      HAL2     0.900000E-01   1.00800           0
     10557 MEMB     90       POPS     H8S      HAL2     0.900000E-01   1.00800           0
     10558 MEMB     90       POPS     C29      CEL1    -0.150000       12.0110           0
     10559 MEMB     90       POPS     H91      HEL1     0.150000       1.00800           0
     10560 MEMB     90       POPS     C210     CEL1    -0.150000       12.0110           0
     10561 MEMB     90       POPS     H101     HEL1     0.150000       1.00800           0
     10562 MEMB     90       POPS     C211     CTL2    -0.180000       12.0110           0
     10563 MEMB     90       POPS     H11R     HAL2     0.900000E-01   1.00800           0
     10564 MEMB     90       POPS     H11S     HAL2     0.900000E-01   1.00800           0
     10565 MEMB     90       POPS     C212     CTL2    -0.180000       12.0110           0
     10566 MEMB     90       POPS     H12R     HAL2     0.900000E-01   1.00800           0
     10567 MEMB     90       POPS     H12S     HAL2     0.900000E-01   1.00800           0
     10568 MEMB     90       POPS     C213     CTL2    -0.180000       12.0110           0
     10569 MEMB     90       POPS     H13R     HAL2     0.900000E-01   1.00800           0
     10570 MEMB     90       POPS     H13S     HAL2     0.900000E-01   1.00800           0
     10571 MEMB     90       POPS     C214     CTL2    -0.180000       12.0110           0
     10572 MEMB     90       POPS     H14R     HAL2     0.900000E-01   1.00800           0
     10573 MEMB     90       POPS     H14S     HAL2     0.900000E-01   1.00800           0
     10574 MEMB     90       POPS     C215     CTL2    -0.180000       12.0110           0
     10575 MEMB     90       POPS     H15R     HAL2     0.900000E-01   1.00800           0
     10576 MEMB     90       POPS     H15S     HAL2     0.900000E-01   1.00800           0
     10577 MEMB     90       POPS     C216     CTL2    -0.180000       12.0110           0
     10578 MEMB     90       POPS     H16R     HAL2     0.900000E-01   1.00800           0
     10579 MEMB     90       POPS     H16S     HAL2     0.900000E-01   1.00800           0
     10580 MEMB     90       POPS     C217     CTL2    -0.180000       12.0110           0
     10581 MEMB     90       POPS     H17R     HAL2     0.900000E-01   1.00800           0
     10582 MEMB     90       POPS     H17S     HAL2     0.900000E-01   1.00800           0
     10583 MEMB     90       POPS     C218     CTL3    -0.270000       12.0110           0
     10584 MEMB     90       POPS     H18R     HAL3     0.900000E-01   1.00800           0
     10585 MEMB     90       POPS     H18S     HAL3     0.900000E-01   1.00800           0
     10586 MEMB     90       POPS     H18T     HAL3     0.900000E-01   1.00800           0
     10587 MEMB     90       POPS     C33      CTL2    -0.180000       12.0110           0
     10588 MEMB     90       POPS     H3X      HAL2     0.900000E-01   1.00800           0
     10589 MEMB     90       POPS     H3Y      HAL2     0.900000E-01   1.00800           0
     10590 MEMB     90       POPS     C34      CTL2    -0.180000       12.0110           0
     10591 MEMB     90       POPS     H4X      HAL2     0.900000E-01   1.00800           0
     10592 MEMB     90       POPS     H4Y      HAL2     0.900000E-01   1.00800           0
     10593 MEMB     90       POPS     C35      CTL2    -0.180000       12.0110           0
     10594 MEMB     90       POPS     H5X      HAL2     0.900000E-01   1.00800           0
     10595 MEMB     90       POPS     H5Y      HAL2     0.900000E-01   1.00800           0
     10596 MEMB     90       POPS     C36      CTL2    -0.180000       12.0110           0
     10597 MEMB     90       POPS     H6X      HAL2     0.900000E-01   1.00800           0
     10598 MEMB     90       POPS     H6Y      HAL2     0.900000E-01   1.00800           0
     10599 MEMB     90       POPS     C37      CTL2    -0.180000       12.0110           0
     10600 MEMB     90       POPS     H7X      HAL2     0.900000E-01   1.00800           0
     10601 MEMB     90       POPS     H7Y      HAL2     0.900000E-01   1.00800           0
     10602 MEMB     90       POPS     C38      CTL2    -0.180000       12.0110           0
     10603 MEMB     90       POPS     H8X      HAL2     0.900000E-01   1.00800           0
     10604 MEMB     90       POPS     H8Y      HAL2     0.900000E-01   1.00800           0
     10605 MEMB     90       POPS     C39      CTL2    -0.180000       12.0110           0
     10606 MEMB     90       POPS     H9X      HAL2     0.900000E-01   1.00800           0
     10607 MEMB     90       POPS     H9Y      HAL2     0.900000E-01   1.00800           0
     10608 MEMB     90       POPS     C310     CTL2    -0.180000       12.0110           0
     10609 MEMB     90       POPS     H10X     HAL2     0.900000E-01   1.00800           0
     10610 MEMB     90       POPS     H10Y     HAL2     0.900000E-01   1.00800           0
     10611 MEMB     90       POPS     C311     CTL2    -0.180000       12.0110           0
     10612 MEMB     90       POPS     H11X     HAL2     0.900000E-01   1.00800           0
     10613 MEMB     90       POPS     H11Y     HAL2     0.900000E-01   1.00800           0
     10614 MEMB     90       POPS     C312     CTL2    -0.180000       12.0110           0
     10615 MEMB     90       POPS     H12X     HAL2     0.900000E-01   1.00800           0
     10616 MEMB     90       POPS     H12Y     HAL2     0.900000E-01   1.00800           0
     10617 MEMB     90       POPS     C313     CTL2    -0.180000       12.0110           0
     10618 MEMB     90       POPS     H13X     HAL2     0.900000E-01   1.00800           0
     10619 MEMB     90       POPS     H13Y     HAL2     0.900000E-01   1.00800           0
     10620 MEMB     90       POPS     C314     CTL2    -0.180000       12.0110           0
     10621 MEMB     90       POPS     H14X     HAL2     0.900000E-01   1.00800           0
     10622 MEMB     90       POPS     H14Y     HAL2     0.900000E-01   1.00800           0
     10623 MEMB     90       POPS     C315     CTL2    -0.180000       12.0110           0
     10624 MEMB     90       POPS     H15X     HAL2     0.900000E-01   1.00800           0
     10625 MEMB     90       POPS     H15Y     HAL2     0.900000E-01   1.00800           0
     10626 MEMB     90       POPS     C316     CTL3    -0.270000       12.0110           0
     10627 MEMB     90       POPS     H16X     HAL3     0.900000E-01   1.00800           0
     10628 MEMB     90       POPS     H16Y     HAL3     0.900000E-01   1.00800           0
     10629 MEMB     90       POPS     H16Z     HAL3     0.900000E-01   1.00800           0
     10630 MEMB     92       POPS     N        NH3L    -0.300000       14.0070           0
     10631 MEMB     92       POPS     HN1      HCL      0.330000       1.00800           0
     10632 MEMB     92       POPS     HN2      HCL      0.330000       1.00800           0
     10633 MEMB     92       POPS     HN3      HCL      0.330000       1.00800           0
     10634 MEMB     92       POPS     C12      CTL1     0.210000       12.0110           0
     10635 MEMB     92       POPS     H12A     HBL      0.100000       1.00800           0
     10636 MEMB     92       POPS     C13      CCL      0.340000       12.0110           0
     10637 MEMB     92       POPS     O13A     OCL     -0.670000       15.9994           0
     10638 MEMB     92       POPS     O13B     OCL     -0.670000       15.9994           0
     10639 MEMB     92       POPS     C11      CTL2    -0.800000E-01   12.0110           0
     10640 MEMB     92       POPS     H11A     HAL2     0.900000E-01   1.00800           0
     10641 MEMB     92       POPS     H11B     HAL2     0.900000E-01   1.00800           0
     10642 MEMB     92       POPS     P        PL       1.500000       30.9740           0
     10643 MEMB     92       POPS     O13      O2L     -0.780000       15.9994           0
     10644 MEMB     92       POPS     O14      O2L     -0.780000       15.9994           0
     10645 MEMB     92       POPS     O12      OSLP    -0.570000       15.9994           0
     10646 MEMB     92       POPS     O11      OSLP    -0.570000       15.9994           0
     10647 MEMB     92       POPS     C1       CTL2    -0.800000E-01   12.0110           0
     10648 MEMB     92       POPS     HA       HAL2     0.900000E-01   1.00800           0
     10649 MEMB     92       POPS     HB       HAL2     0.900000E-01   1.00800           0
     10650 MEMB     92       POPS     C2       CTL1     0.170000       12.0110           0
     10651 MEMB     92       POPS     HS       HAL1     0.900000E-01   1.00800           0
     10652 MEMB     92       POPS     O21      OSL     -0.490000       15.9994           0
     10653 MEMB     92       POPS     C21      CL       0.900000       12.0110           0
     10654 MEMB     92       POPS     O22      OBL     -0.630000       15.9994           0
     10655 MEMB     92       POPS     C22      CTL2    -0.220000       12.0110           0
     10656 MEMB     92       POPS     H2R      HAL2     0.900000E-01   1.00800           0
     10657 MEMB     92       POPS     H2S      HAL2     0.900000E-01   1.00800           0
     10658 MEMB     92       POPS     C3       CTL2     0.800000E-01   12.0110           0
     10659 MEMB     92       POPS     HX       HAL2     0.900000E-01   1.00800           0
     10660 MEMB     92       POPS     HY       HAL2     0.900000E-01   1.00800           0
     10661 MEMB     92       POPS     O31      OSL     -0.490000       15.9994           0
     10662 MEMB     92       POPS     C31      CL       0.900000       12.0110           0
     10663 MEMB     92       POPS     O32      OBL     -0.630000       15.9994           0
     10664 MEMB     92       POPS     C32      CTL2    -0.220000       12.0110           0
     10665 MEMB     92       POPS     H2X      HAL2     0.900000E-01   1.00800           0
     10666 MEMB     92       POPS     H2Y      HAL2     0.900000E-01   1.00800           0
     10667 MEMB     92       POPS     C23      CTL2    -0.180000       12.0110           0
     10668 MEMB     92       POPS     H3R      HAL2     0.900000E-01   1.00800           0
     10669 MEMB     92       POPS     H3S      HAL2     0.900000E-01   1.00800           0
     10670 MEMB     92       POPS     C24      CTL2    -0.180000       12.0110           0
     10671 MEMB     92       POPS     H4R      HAL2     0.900000E-01   1.00800           0
     10672 MEMB     92       POPS     H4S      HAL2     0.900000E-01   1.00800           0
     10673 MEMB     92       POPS     C25      CTL2    -0.180000       12.0110           0
     10674 MEMB     92       POPS     H5R      HAL2     0.900000E-01   1.00800           0
     10675 MEMB     92       POPS     H5S      HAL2     0.900000E-01   1.00800           0
     10676 MEMB     92       POPS     C26      CTL2    -0.180000       12.0110           0
     10677 MEMB     92       POPS     H6R      HAL2     0.900000E-01   1.00800           0
     10678 MEMB     92       POPS     H6S      HAL2     0.900000E-01   1.00800           0
     10679 MEMB     92       POPS     C27      CTL2    -0.180000       12.0110           0
     10680 MEMB     92       POPS     H7R      HAL2     0.900000E-01   1.00800           0
     10681 MEMB     92       POPS     H7S      HAL2     0.900000E-01   1.00800           0
     10682 MEMB     92       POPS     C28      CTL2    -0.180000       12.0110           0
     10683 MEMB     92       POPS     H8R      HAL2     0.900000E-01   1.00800           0
     10684 MEMB     92       POPS     H8S      HAL2     0.900000E-01   1.00800           0
     10685 MEMB     92       POPS     C29      CEL1    -0.150000       12.0110           0
     10686 MEMB     92       POPS     H91      HEL1     0.150000       1.00800           0
     10687 MEMB     92       POPS     C210     CEL1    -0.150000       12.0110           0
     10688 MEMB     92       POPS     H101     HEL1     0.150000       1.00800           0
     10689 MEMB     92       POPS     C211     CTL2    -0.180000       12.0110           0
     10690 MEMB     92       POPS     H11R     HAL2     0.900000E-01   1.00800           0
     10691 MEMB     92       POPS     H11S     HAL2     0.900000E-01   1.00800           0
     10692 MEMB     92       POPS     C212     CTL2    -0.180000       12.0110           0
     10693 MEMB     92       POPS     H12R     HAL2     0.900000E-01   1.00800           0
     10694 MEMB     92       POPS     H12S     HAL2     0.900000E-01   1.00800           0
     10695 MEMB     92       POPS     C213     CTL2    -0.180000       12.0110           0
     10696 MEMB     92       POPS     H13R     HAL2     0.900000E-01   1.00800           0
     10697 MEMB     92       POPS     H13S     HAL2     0.900000E-01   1.00800           0
     10698 MEMB     92       POPS     C214     CTL2    -0.180000       12.0110           0
     10699 MEMB     92       POPS     H14R     HAL2     0.900000E-01   1.00800           0
     10700 MEMB     92       POPS     H14S     HAL2     0.900000E-01   1.00800           0
     10701 MEMB     92       POPS     C215     CTL2    -0.180000       12.0110           0
     10702 MEMB     92       POPS     H15R     HAL2     0.900000E-01   1.00800           0
     10703 MEMB     92       POPS     H15S     HAL2     0.900000E-01   1.00800           0
     10704 MEMB     92       POPS     C216     CTL2    -0.180000       12.0110           0
     10705 MEMB     92       POPS     H16R     HAL2     0.900000E-01   1.00800           0
     10706 MEMB     92       POPS     H16S     HAL2     0.900000E-01   1.00800           0
     10707 MEMB     92       POPS     C217     CTL2    -0.180000       12.0110           0
     10708 MEMB     92       POPS     H17R     HAL2     0.900000E-01   1.00800           0
     10709 MEMB     92       POPS     H17S     HAL2     0.900000E-01   1.00800           0
     10710 MEMB     92       POPS     C218     CTL3    -0.270000       12.0110           0
     10711 MEMB     92       POPS     H18R     HAL3     0.900000E-01   1.00800           0
     10712 MEMB     92       POPS     H18S     HAL3     0.900000E-01   1.00800           0
     10713 MEMB     92       POPS     H18T     HAL3     0.900000E-01   1.00800           0
     10714 MEMB     92       POPS     C33      CTL2    -0.180000       12.0110           0
     10715 MEMB     92       POPS     H3X      HAL2     0.900000E-01   1.00800           0
     10716 MEMB     92       POPS     H3Y      HAL2     0.900000E-01   1.00800           0
     10717 MEMB     92       POPS     C34      CTL2    -0.180000       12.0110           0
     10718 MEMB     92       POPS     H4X      HAL2     0.900000E-01   1.00800           0
     10719 MEMB     92       POPS     H4Y      HAL2     0.900000E-01   1.00800           0
     10720 MEMB     92       POPS     C35      CTL2    -0.180000       12.0110           0
     10721 MEMB     92       POPS     H5X      HAL2     0.900000E-01   1.00800           0
     10722 MEMB     92       POPS     H5Y      HAL2     0.900000E-01   1.00800           0
     10723 MEMB     92       POPS     C36      CTL2    -0.180000       12.0110           0
     10724 MEMB     92       POPS     H6X      HAL2     0.900000E-01   1.00800           0
     10725 MEMB     92       POPS     H6Y      HAL2     0.900000E-01   1.00800           0
     10726 MEMB     92       POPS     C37      CTL2    -0.180000       12.0110           0
     10727 MEMB     92       POPS     H7X      HAL2     0.900000E-01   1.00800           0
     10728 MEMB     92       POPS     H7Y      HAL2     0.900000E-01   1.00800           0
     10729 MEMB     92       POPS     C38      CTL2    -0.180000       12.0110           0
     10730 MEMB     92       POPS     H8X      HAL2     0.900000E-01   1.00800           0
     10731 MEMB     92       POPS     H8Y      HAL2     0.900000E-01   1.00800           0
     10732 MEMB     92       POPS     C39      CTL2    -0.180000       12.0110           0
     10733 MEMB     92       POPS     H9X      HAL2     0.900000E-01   1.00800           0
     10734 MEMB     92       POPS     H9Y      HAL2     0.900000E-01   1.00800           0
     10735 MEMB     92       POPS     C310     CTL2    -0.180000       12.0110           0
     10736 MEMB     92       POPS     H10X     HAL2     0.900000E-01   1.00800           0
     10737 MEMB     92       POPS     H10Y     HAL2     0.900000E-01   1.00800           0
     10738 MEMB     92       POPS     C311     CTL2    -0.180000       12.0110           0
     10739 MEMB     92       POPS     H11X     HAL2     0.900000E-01   1.00800           0
     10740 MEMB     92       POPS     H11Y     HAL2     0.900000E-01   1.00800           0
     10741 MEMB     92       POPS     C312     CTL2    -0.180000       12.0110           0
     10742 MEMB     92       POPS     H12X     HAL2     0.900000E-01   1.00800           0
     10743 MEMB     92       POPS     H12Y     HAL2     0.900000E-01   1.00800           0
     10744 MEMB     92       POPS     C313     CTL2    -0.180000       12.0110           0
     10745 MEMB     92       POPS     H13X     HAL2     0.900000E-01   1.00800           0
     10746 MEMB     92       POPS     H13Y     HAL2     0.900000E-01   1.00800           0
     10747 MEMB     92       POPS     C314     CTL2    -0.180000       12.0110           0
     10748 MEMB     92       POPS     H14X     HAL2     0.900000E-01   1.00800           0
     10749 MEMB     92       POPS     H14Y     HAL2     0.900000E-01   1.00800           0
     10750 MEMB     92       POPS     C315     CTL2    -0.180000       12.0110           0
     10751 MEMB     92       POPS     H15X     HAL2     0.900000E-01   1.00800           0
     10752 MEMB     92       POPS     H15Y     HAL2     0.900000E-01   1.00800           0
     10753 MEMB     92       POPS     C316     CTL3    -0.270000       12.0110           0
     10754 MEMB     92       POPS     H16X     HAL3     0.900000E-01   1.00800           0
     10755 MEMB     92       POPS     H16Y     HAL3     0.900000E-01   1.00800           0
     10756 MEMB     92       POPS     H16Z     HAL3     0.900000E-01   1.00800           0
     10757 MEMB     94       POPS     N        NH3L    -0.300000       14.0070           0
     10758 MEMB     94       POPS     HN1      HCL      0.330000       1.00800           0
     10759 MEMB     94       POPS     HN2      HCL      0.330000       1.00800           0
     10760 MEMB     94       POPS     HN3      HCL      0.330000       1.00800           0
     10761 MEMB     94       POPS     C12      CTL1     0.210000       12.0110           0
     10762 MEMB     94       POPS     H12A     HBL      0.100000       1.00800           0
     10763 MEMB     94       POPS     C13      CCL      0.340000       12.0110           0
     10764 MEMB     94       POPS     O13A     OCL     -0.670000       15.9994           0
     10765 MEMB     94       POPS     O13B     OCL     -0.670000       15.9994           0
     10766 MEMB     94       POPS     C11      CTL2    -0.800000E-01   12.0110           0
     10767 MEMB     94       POPS     H11A     HAL2     0.900000E-01   1.00800           0
     10768 MEMB     94       POPS     H11B     HAL2     0.900000E-01   1.00800           0
     10769 MEMB     94       POPS     P        PL       1.500000       30.9740           0
     10770 MEMB     94       POPS     O13      O2L     -0.780000       15.9994           0
     10771 MEMB     94       POPS     O14      O2L     -0.780000       15.9994           0
     10772 MEMB     94       POPS     O12      OSLP    -0.570000       15.9994           0
     10773 MEMB     94       POPS     O11      OSLP    -0.570000       15.9994           0
     10774 MEMB     94       POPS     C1       CTL2    -0.800000E-01   12.0110           0
     10775 MEMB     94       POPS     HA       HAL2     0.900000E-01   1.00800           0
     10776 MEMB     94       POPS     HB       HAL2     0.900000E-01   1.00800           0
     10777 MEMB     94       POPS     C2       CTL1     0.170000       12.0110           0
     10778 MEMB     94       POPS     HS       HAL1     0.900000E-01   1.00800           0
     10779 MEMB     94       POPS     O21      OSL     -0.490000       15.9994           0
     10780 MEMB     94       POPS     C21      CL       0.900000       12.0110           0
     10781 MEMB     94       POPS     O22      OBL     -0.630000       15.9994           0
     10782 MEMB     94       POPS     C22      CTL2    -0.220000       12.0110           0
     10783 MEMB     94       POPS     H2R      HAL2     0.900000E-01   1.00800           0
     10784 MEMB     94       POPS     H2S      HAL2     0.900000E-01   1.00800           0
     10785 MEMB     94       POPS     C3       CTL2     0.800000E-01   12.0110           0
     10786 MEMB     94       POPS     HX       HAL2     0.900000E-01   1.00800           0
     10787 MEMB     94       POPS     HY       HAL2     0.900000E-01   1.00800           0
     10788 MEMB     94       POPS     O31      OSL     -0.490000       15.9994           0
     10789 MEMB     94       POPS     C31      CL       0.900000       12.0110           0
     10790 MEMB     94       POPS     O32      OBL     -0.630000       15.9994           0
     10791 MEMB     94       POPS     C32      CTL2    -0.220000       12.0110           0
     10792 MEMB     94       POPS     H2X      HAL2     0.900000E-01   1.00800           0
     10793 MEMB     94       POPS     H2Y      HAL2     0.900000E-01   1.00800           0
     10794 MEMB     94       POPS     C23      CTL2    -0.180000       12.0110           0
     10795 MEMB     94       POPS     H3R      HAL2     0.900000E-01   1.00800           0
     10796 MEMB     94       POPS     H3S      HAL2     0.900000E-01   1.00800           0
     10797 MEMB     94       POPS     C24      CTL2    -0.180000       12.0110           0
     10798 MEMB     94       POPS     H4R      HAL2     0.900000E-01   1.00800           0
     10799 MEMB     94       POPS     H4S      HAL2     0.900000E-01   1.00800           0
     10800 MEMB     94       POPS     C25      CTL2    -0.180000       12.0110           0
     10801 MEMB     94       POPS     H5R      HAL2     0.900000E-01   1.00800           0
     10802 MEMB     94       POPS     H5S      HAL2     0.900000E-01   1.00800           0
     10803 MEMB     94       POPS     C26      CTL2    -0.180000       12.0110           0
     10804 MEMB     94       POPS     H6R      HAL2     0.900000E-01   1.00800           0
     10805 MEMB     94       POPS     H6S      HAL2     0.900000E-01   1.00800           0
     10806 MEMB     94       POPS     C27      CTL2    -0.180000       12.0110           0
     10807 MEMB     94       POPS     H7R      HAL2     0.900000E-01   1.00800           0
     10808 MEMB     94       POPS     H7S      HAL2     0.900000E-01   1.00800           0
     10809 MEMB     94       POPS     C28      CTL2    -0.180000       12.0110           0
     10810 MEMB     94       POPS     H8R      HAL2     0.900000E-01   1.00800           0
     10811 MEMB     94       POPS     H8S      HAL2     0.900000E-01   1.00800           0
     10812 MEMB     94       POPS     C29      CEL1    -0.150000       12.0110           0
     10813 MEMB     94       POPS     H91      HEL1     0.150000       1.00800           0
     10814 MEMB     94       POPS     C210     CEL1    -0.150000       12.0110           0
     10815 MEMB     94       POPS     H101     HEL1     0.150000       1.00800           0
     10816 MEMB     94       POPS     C211     CTL2    -0.180000       12.0110           0
     10817 MEMB     94       POPS     H11R     HAL2     0.900000E-01   1.00800           0
     10818 MEMB     94       POPS     H11S     HAL2     0.900000E-01   1.00800           0
     10819 MEMB     94       POPS     C212     CTL2    -0.180000       12.0110           0
     10820 MEMB     94       POPS     H12R     HAL2     0.900000E-01   1.00800           0
     10821 MEMB     94       POPS     H12S     HAL2     0.900000E-01   1.00800           0
     10822 MEMB     94       POPS     C213     CTL2    -0.180000       12.0110           0
     10823 MEMB     94       POPS     H13R     HAL2     0.900000E-01   1.00800           0
     10824 MEMB     94       POPS     H13S     HAL2     0.900000E-01   1.00800           0
     10825 MEMB     94       POPS     C214     CTL2    -0.180000       12.0110           0
     10826 MEMB     94       POPS     H14R     HAL2     0.900000E-01   1.00800           0
     10827 MEMB     94       POPS     H14S     HAL2     0.900000E-01   1.00800           0
     10828 MEMB     94       POPS     C215     CTL2    -0.180000       12.0110           0
     10829 MEMB     94       POPS     H15R     HAL2     0.900000E-01   1.00800           0
     10830 MEMB     94       POPS     H15S     HAL2     0.900000E-01   1.00800           0
     10831 MEMB     94       POPS     C216     CTL2    -0.180000       12.0110           0
     10832 MEMB     94       POPS     H16R     HAL2     0.900000E-01   1.00800           0
     10833 MEMB     94       POPS     H16S     HAL2     0.900000E-01   1.00800           0
     10834 MEMB     94       POPS     C217     CTL2    -0.180000       12.0110           0
     10835 MEMB     94       POPS     H17R     HAL2     0.900000E-01   1.00800           0
     10836 MEMB     94       POPS     H17S     HAL2     0.900000E-01   1.00800           0
     10837 MEMB     94       POPS     C218     CTL3    -0.270000       12.0110           0
     10838 MEMB     94       POPS     H18R     HAL3     0.900000E-01   1.00800           0
     10839 MEMB     94       POPS     H18S     HAL3     0.900000E-01   1.00800           0
     10840 MEMB     94       POPS     H18T     HAL3     0.900000E-01   1.00800           0
     10841 MEMB     94       POPS     C33      CTL2    -0.180000       12.0110           0
     10842 MEMB     94       POPS     H3X      HAL2     0.900000E-01   1.00800           0
     10843 MEMB     94       POPS     H3Y      HAL2     0.900000E-01   1.00800           0
     10844 MEMB     94       POPS     C34      CTL2    -0.180000       12.0110           0
     10845 MEMB     94       POPS     H4X      HAL2     0.900000E-01   1.00800           0
     10846 MEMB     94       POPS     H4Y      HAL2     0.900000E-01   1.00800           0
     10847 MEMB     94       POPS     C35      CTL2    -0.180000       12.0110           0
     10848 MEMB     94       POPS     H5X      HAL2     0.900000E-01   1.00800           0
     10849 MEMB     94       POPS     H5Y      HAL2     0.900000E-01   1.00800           0
     10850 MEMB     94       POPS     C36      CTL2    -0.180000       12.0110           0
     10851 MEMB     94       POPS     H6X      HAL2     0.900000E-01   1.00800           0
     10852 MEMB     94       POPS     H6Y      HAL2     0.900000E-01   1.00800           0
     10853 MEMB     94       POPS     C37      CTL2    -0.180000       12.0110           0
     10854 MEMB     94       POPS     H7X      HAL2     0.900000E-01   1.00800           0
     10855 MEMB     94       POPS     H7Y      HAL2     0.900000E-01   1.00800           0
     10856 MEMB     94       POPS     C38      CTL2    -0.180000       12.0110           0
     10857 MEMB     94       POPS     H8X      HAL2     0.900000E-01   1.00800           0
     10858 MEMB     94       POPS     H8Y      HAL2     0.900000E-01   1.00800           0
     10859 MEMB     94       POPS     C39      CTL2    -0.180000       12.0110           0
     10860 MEMB     94       POPS     H9X      HAL2     0.900000E-01   1.00800           0
     10861 MEMB     94       POPS     H9Y      HAL2     0.900000E-01   1.00800           0
     10862 MEMB     94       POPS     C310     CTL2    -0.180000       12.0110           0
     10863 MEMB     94       POPS     H10X     HAL2     0.900000E-01   1.00800           0
     10864 MEMB     94       POPS     H10Y     HAL2     0.900000E-01   1.00800           0
     10865 MEMB     94       POPS     C311     CTL2    -0.180000       12.0110           0
     10866 MEMB     94       POPS     H11X     HAL2     0.900000E-01   1.00800           0
     10867 MEMB     94       POPS     H11Y     HAL2     0.900000E-01   1.00800           0
     10868 MEMB     94       POPS     C312     CTL2    -0.180000       12.0110           0
     10869 MEMB     94       POPS     H12X     HAL2     0.900000E-01   1.00800           0
     10870 MEMB     94       POPS     H12Y     HAL2     0.900000E-01   1.00800           0
     10871 MEMB     94       POPS     C313     CTL2    -0.180000       12.0110           0
     10872 MEMB     94       POPS     H13X     HAL2     0.900000E-01   1.00800           0
     10873 MEMB     94       POPS     H13Y     HAL2     0.900000E-01   1.00800           0
     10874 MEMB     94       POPS     C314     CTL2    -0.180000       12.0110           0
     10875 MEMB     94       POPS     H14X     HAL2     0.900000E-01   1.00800           0
     10876 MEMB     94       POPS     H14Y     HAL2     0.900000E-01   1.00800           0
     10877 MEMB     94       POPS     C315     CTL2    -0.180000       12.0110           0
     10878 MEMB     94       POPS     H15X     HAL2     0.900000E-01   1.00800           0
     10879 MEMB     94       POPS     H15Y     HAL2     0.900000E-01   1.00800           0
     10880 MEMB     94       POPS     C316     CTL3    -0.270000       12.0110           0
     10881 MEMB     94       POPS     H16X     HAL3     0.900000E-01   1.00800           0
     10882 MEMB     94       POPS     H16Y     HAL3     0.900000E-01   1.00800           0
     10883 MEMB     94       POPS     H16Z     HAL3     0.900000E-01   1.00800           0
     10884 MEMB     96       POPS     N        NH3L    -0.300000       14.0070           0
     10885 MEMB     96       POPS     HN1      HCL      0.330000       1.00800           0
     10886 MEMB     96       POPS     HN2      HCL      0.330000       1.00800           0
     10887 MEMB     96       POPS     HN3      HCL      0.330000       1.00800           0
     10888 MEMB     96       POPS     C12      CTL1     0.210000       12.0110           0
     10889 MEMB     96       POPS     H12A     HBL      0.100000       1.00800           0
     10890 MEMB     96       POPS     C13      CCL      0.340000       12.0110           0
     10891 MEMB     96       POPS     O13A     OCL     -0.670000       15.9994           0
     10892 MEMB     96       POPS     O13B     OCL     -0.670000       15.9994           0
     10893 MEMB     96       POPS     C11      CTL2    -0.800000E-01   12.0110           0
     10894 MEMB     96       POPS     H11A     HAL2     0.900000E-01   1.00800           0
     10895 MEMB     96       POPS     H11B     HAL2     0.900000E-01   1.00800           0
     10896 MEMB     96       POPS     P        PL       1.500000       30.9740           0
     10897 MEMB     96       POPS     O13      O2L     -0.780000       15.9994           0
     10898 MEMB     96       POPS     O14      O2L     -0.780000       15.9994           0
     10899 MEMB     96       POPS     O12      OSLP    -0.570000       15.9994           0
     10900 MEMB     96       POPS     O11      OSLP    -0.570000       15.9994           0
     10901 MEMB     96       POPS     C1       CTL2    -0.800000E-01   12.0110           0
     10902 MEMB     96       POPS     HA       HAL2     0.900000E-01   1.00800           0
     10903 MEMB     96       POPS     HB       HAL2     0.900000E-01   1.00800           0
     10904 MEMB     96       POPS     C2       CTL1     0.170000       12.0110           0
     10905 MEMB     96       POPS     HS       HAL1     0.900000E-01   1.00800           0
     10906 MEMB     96       POPS     O21      OSL     -0.490000       15.9994           0
     10907 MEMB     96       POPS     C21      CL       0.900000       12.0110           0
     10908 MEMB     96       POPS     O22      OBL     -0.630000       15.9994           0
     10909 MEMB     96       POPS     C22      CTL2    -0.220000       12.0110           0
     10910 MEMB     96       POPS     H2R      HAL2     0.900000E-01   1.00800           0
     10911 MEMB     96       POPS     H2S      HAL2     0.900000E-01   1.00800           0
     10912 MEMB     96       POPS     C3       CTL2     0.800000E-01   12.0110           0
     10913 MEMB     96       POPS     HX       HAL2     0.900000E-01   1.00800           0
     10914 MEMB     96       POPS     HY       HAL2     0.900000E-01   1.00800           0
     10915 MEMB     96       POPS     O31      OSL     -0.490000       15.9994           0
     10916 MEMB     96       POPS     C31      CL       0.900000       12.0110           0
     10917 MEMB     96       POPS     O32      OBL     -0.630000       15.9994           0
     10918 MEMB     96       POPS     C32      CTL2    -0.220000       12.0110           0
     10919 MEMB     96       POPS     H2X      HAL2     0.900000E-01   1.00800           0
     10920 MEMB     96       POPS     H2Y      HAL2     0.900000E-01   1.00800           0
     10921 MEMB     96       POPS     C23      CTL2    -0.180000       12.0110           0
     10922 MEMB     96       POPS     H3R      HAL2     0.900000E-01   1.00800           0
     10923 MEMB     96       POPS     H3S      HAL2     0.900000E-01   1.00800           0
     10924 MEMB     96       POPS     C24      CTL2    -0.180000       12.0110           0
     10925 MEMB     96       POPS     H4R      HAL2     0.900000E-01   1.00800           0
     10926 MEMB     96       POPS     H4S      HAL2     0.900000E-01   1.00800           0
     10927 MEMB     96       POPS     C25      CTL2    -0.180000       12.0110           0
     10928 MEMB     96       POPS     H5R      HAL2     0.900000E-01   1.00800           0
     10929 MEMB     96       POPS     H5S      HAL2     0.900000E-01   1.00800           0
     10930 MEMB     96       POPS     C26      CTL2    -0.180000       12.0110           0
     10931 MEMB     96       POPS     H6R      HAL2     0.900000E-01   1.00800           0
     10932 MEMB     96       POPS     H6S      HAL2     0.900000E-01   1.00800           0
     10933 MEMB     96       POPS     C27      CTL2    -0.180000       12.0110           0
     10934 MEMB     96       POPS     H7R      HAL2     0.900000E-01   1.00800           0
     10935 MEMB     96       POPS     H7S      HAL2     0.900000E-01   1.00800           0
     10936 MEMB     96       POPS     C28      CTL2    -0.180000       12.0110           0
     10937 MEMB     96       POPS     H8R      HAL2     0.900000E-01   1.00800           0
     10938 MEMB     96       POPS     H8S      HAL2     0.900000E-01   1.00800           0
     10939 MEMB     96       POPS     C29      CEL1    -0.150000       12.0110           0
     10940 MEMB     96       POPS     H91      HEL1     0.150000       1.00800           0
     10941 MEMB     96       POPS     C210     CEL1    -0.150000       12.0110           0
     10942 MEMB     96       POPS     H101     HEL1     0.150000       1.00800           0
     10943 MEMB     96       POPS     C211     CTL2    -0.180000       12.0110           0
     10944 MEMB     96       POPS     H11R     HAL2     0.900000E-01   1.00800           0
     10945 MEMB     96       POPS     H11S     HAL2     0.900000E-01   1.00800           0
     10946 MEMB     96       POPS     C212     CTL2    -0.180000       12.0110           0
     10947 MEMB     96       POPS     H12R     HAL2     0.900000E-01   1.00800           0
     10948 MEMB     96       POPS     H12S     HAL2     0.900000E-01   1.00800           0
     10949 MEMB     96       POPS     C213     CTL2    -0.180000       12.0110           0
     10950 MEMB     96       POPS     H13R     HAL2     0.900000E-01   1.00800           0
     10951 MEMB     96       POPS     H13S     HAL2     0.900000E-01   1.00800           0
     10952 MEMB     96       POPS     C214     CTL2    -0.180000       12.0110           0
     10953 MEMB     96       POPS     H14R     HAL2     0.900000E-01   1.00800           0
     10954 MEMB     96       POPS     H14S     HAL2     0.900000E-01   1.00800           0
     10955 MEMB     96       POPS     C215     CTL2    -0.180000       12.0110           0
     10956 MEMB     96       POPS     H15R     HAL2     0.900000E-01   1.00800           0
     10957 MEMB     96       POPS     H15S     HAL2     0.900000E-01   1.00800           0
     10958 MEMB     96       POPS     C216     CTL2    -0.180000       12.0110           0
     10959 MEMB     96       POPS     H16R     HAL2     0.900000E-01   1.00800           0
     10960 MEMB     96       POPS     H16S     HAL2     0.900000E-01   1.00800           0
     10961 MEMB     96       POPS     C217     CTL2    -0.180000       12.0110           0
     10962 MEMB     96       POPS     H17R     HAL2     0.900000E-01   1.00800           0
     10963 MEMB     96       POPS     H17S     HAL2     0.900000E-01   1.00800           0
     10964 MEMB     96       POPS     C218     CTL3    -0.270000       12.0110           0
     10965 MEMB     96       POPS     H18R     HAL3     0.900000E-01   1.00800           0
     10966 MEMB     96       POPS     H18S     HAL3     0.900000E-01   1.00800           0
     10967 MEMB     96       POPS     H18T     HAL3     0.900000E-01   1.00800           0
     10968 MEMB     96       POPS     C33      CTL2    -0.180000       12.0110           0
     10969 MEMB     96       POPS     H3X      HAL2     0.900000E-01   1.00800           0
     10970 MEMB     96       POPS     H3Y      HAL2     0.900000E-01   1.00800           0
     10971 MEMB     96       POPS     C34      CTL2    -0.180000       12.0110           0
     10972 MEMB     96       POPS     H4X      HAL2     0.900000E-01   1.00800           0
     10973 MEMB     96       POPS     H4Y      HAL2     0.900000E-01   1.00800           0
     10974 MEMB     96       POPS     C35      CTL2    -0.180000       12.0110           0
     10975 MEMB     96       POPS     H5X      HAL2     0.900000E-01   1.00800           0
     10976 MEMB     96       POPS     H5Y      HAL2     0.900000E-01   1.00800           0
     10977 MEMB     96       POPS     C36      CTL2    -0.180000       12.0110           0
     10978 MEMB     96       POPS     H6X      HAL2     0.900000E-01   1.00800           0
     10979 MEMB     96       POPS     H6Y      HAL2     0.900000E-01   1.00800           0
     10980 MEMB     96       POPS     C37      CTL2    -0.180000       12.0110           0
     10981 MEMB     96       POPS     H7X      HAL2     0.900000E-01   1.00800           0
     10982 MEMB     96       POPS     H7Y      HAL2     0.900000E-01   1.00800           0
     10983 MEMB     96       POPS     C38      CTL2    -0.180000       12.0110           0
     10984 MEMB     96       POPS     H8X      HAL2     0.900000E-01   1.00800           0
     10985 MEMB     96       POPS     H8Y      HAL2     0.900000E-01   1.00800           0
     10986 MEMB     96       POPS     C39      CTL2    -0.180000       12.0110           0
     10987 MEMB     96       POPS     H9X      HAL2     0.900000E-01   1.00800           0
     10988 MEMB     96       POPS     H9Y      HAL2     0.900000E-01   1.00800           0
     10989 MEMB     96       POPS     C310     CTL2    -0.180000       12.0110           0
     10990 MEMB     96       POPS     H10X     HAL2     0.900000E-01   1.00800           0
     10991 MEMB     96       POPS     H10Y     HAL2     0.900000E-01   1.00800           0
     10992 MEMB     96       POPS     C311     CTL2    -0.180000       12.0110           0
     10993 MEMB     96       POPS     H11X     HAL2     0.900000E-01   1.00800           0
     10994 MEMB     96       POPS     H11Y     HAL2     0.900000E-01   1.00800           0
     10995 MEMB     96       POPS     C312     CTL2    -0.180000       12.0110           0
     10996 MEMB     96       POPS     H12X     HAL2     0.900000E-01   1.00800           0
     10997 MEMB     96       POPS     H12Y     HAL2     0.900000E-01   1.00800           0
     10998 MEMB     96       POPS     C313     CTL2    -0.180000       12.0110           0
     10999 MEMB     96       POPS     H13X     HAL2     0.900000E-01   1.00800           0
     11000 MEMB     96       POPS     H13Y     HAL2     0.900000E-01   1.00800           0
     11001 MEMB     96       POPS     C314     CTL2    -0.180000       12.0110           0
     11002 MEMB     96       POPS     H14X     HAL2     0.900000E-01   1.00800           0
     11003 MEMB     96       POPS     H14Y     HAL2     0.900000E-01   1.00800           0
     11004 MEMB     96       POPS     C315     CTL2    -0.180000       12.0110           0
     11005 MEMB     96       POPS     H15X     HAL2     0.900000E-01   1.00800           0
     11006 MEMB     96       POPS     H15Y     HAL2     0.900000E-01   1.00800           0
     11007 MEMB     96       POPS     C316     CTL3    -0.270000       12.0110           0
     11008 MEMB     96       POPS     H16X     HAL3     0.900000E-01   1.00800           0
     11009 MEMB     96       POPS     H16Y     HAL3     0.900000E-01   1.00800           0
     11010 MEMB     96       POPS     H16Z     HAL3     0.900000E-01   1.00800           0
     11011 MEMB     105      POPS     N        NH3L    -0.300000       14.0070           0
     11012 MEMB     105      POPS     HN1      HCL      0.330000       1.00800           0
     11013 MEMB     105      POPS     HN2      HCL      0.330000       1.00800           0
     11014 MEMB     105      POPS     HN3      HCL      0.330000       1.00800           0
     11015 MEMB     105      POPS     C12      CTL1     0.210000       12.0110           0
     11016 MEMB     105      POPS     H12A     HBL      0.100000       1.00800           0
     11017 MEMB     105      POPS     C13      CCL      0.340000       12.0110           0
     11018 MEMB     105      POPS     O13A     OCL     -0.670000       15.9994           0
     11019 MEMB     105      POPS     O13B     OCL     -0.670000       15.9994           0
     11020 MEMB     105      POPS     C11      CTL2    -0.800000E-01   12.0110           0
     11021 MEMB     105      POPS     H11A     HAL2     0.900000E-01   1.00800           0
     11022 MEMB     105      POPS     H11B     HAL2     0.900000E-01   1.00800           0
     11023 MEMB     105      POPS     P        PL       1.500000       30.9740           0
     11024 MEMB     105      POPS     O13      O2L     -0.780000       15.9994           0
     11025 MEMB     105      POPS     O14      O2L     -0.780000       15.9994           0
     11026 MEMB     105      POPS     O12      OSLP    -0.570000       15.9994           0
     11027 MEMB     105      POPS     O11      OSLP    -0.570000       15.9994           0
     11028 MEMB     105      POPS     C1       CTL2    -0.800000E-01   12.0110           0
     11029 MEMB     105      POPS     HA       HAL2     0.900000E-01   1.00800           0
     11030 MEMB     105      POPS     HB       HAL2     0.900000E-01   1.00800           0
     11031 MEMB     105      POPS     C2       CTL1     0.170000       12.0110           0
     11032 MEMB     105      POPS     HS       HAL1     0.900000E-01   1.00800           0
     11033 MEMB     105      POPS     O21      OSL     -0.490000       15.9994           0
     11034 MEMB     105      POPS     C21      CL       0.900000       12.0110           0
     11035 MEMB     105      POPS     O22      OBL     -0.630000       15.9994           0
     11036 MEMB     105      POPS     C22      CTL2    -0.220000       12.0110           0
     11037 MEMB     105      POPS     H2R      HAL2     0.900000E-01   1.00800           0
     11038 MEMB     105      POPS     H2S      HAL2     0.900000E-01   1.00800           0
     11039 MEMB     105      POPS     C3       CTL2     0.800000E-01   12.0110           0
     11040 MEMB     105      POPS     HX       HAL2     0.900000E-01   1.00800           0
     11041 MEMB     105      POPS     HY       HAL2     0.900000E-01   1.00800           0
     11042 MEMB     105      POPS     O31      OSL     -0.490000       15.9994           0
     11043 MEMB     105      POPS     C31      CL       0.900000       12.0110           0
     11044 MEMB     105      POPS     O32      OBL     -0.630000       15.9994           0
     11045 MEMB     105      POPS     C32      CTL2    -0.220000       12.0110           0
     11046 MEMB     105      POPS     H2X      HAL2     0.900000E-01   1.00800           0
     11047 MEMB     105      POPS     H2Y      HAL2     0.900000E-01   1.00800           0
     11048 MEMB     105      POPS     C23      CTL2    -0.180000       12.0110           0
     11049 MEMB     105      POPS     H3R      HAL2     0.900000E-01   1.00800           0
     11050 MEMB     105      POPS     H3S      HAL2     0.900000E-01   1.00800           0
     11051 MEMB     105      POPS     C24      CTL2    -0.180000       12.0110           0
     11052 MEMB     105      POPS     H4R      HAL2     0.900000E-01   1.00800           0
     11053 MEMB     105      POPS     H4S      HAL2     0.900000E-01   1.00800           0
     11054 MEMB     105      POPS     C25      CTL2    -0.180000       12.0110           0
     11055 MEMB     105      POPS     H5R      HAL2     0.900000E-01   1.00800           0
     11056 MEMB     105      POPS     H5S      HAL2     0.900000E-01   1.00800           0
     11057 MEMB     105      POPS     C26      CTL2    -0.180000       12.0110           0
     11058 MEMB     105      POPS     H6R      HAL2     0.900000E-01   1.00800           0
     11059 MEMB     105      POPS     H6S      HAL2     0.900000E-01   1.00800           0
     11060 MEMB     105      POPS     C27      CTL2    -0.180000       12.0110           0
     11061 MEMB     105      POPS     H7R      HAL2     0.900000E-01   1.00800           0
     11062 MEMB     105      POPS     H7S      HAL2     0.900000E-01   1.00800           0
     11063 MEMB     105      POPS     C28      CTL2    -0.180000       12.0110           0
     11064 MEMB     105      POPS     H8R      HAL2     0.900000E-01   1.00800           0
     11065 MEMB     105      POPS     H8S      HAL2     0.900000E-01   1.00800           0
     11066 MEMB     105      POPS     C29      CEL1    -0.150000       12.0110           0
     11067 MEMB     105      POPS     H91      HEL1     0.150000       1.00800           0
     11068 MEMB     105      POPS     C210     CEL1    -0.150000       12.0110           0
     11069 MEMB     105      POPS     H101     HEL1     0.150000       1.00800           0
     11070 MEMB     105      POPS     C211     CTL2    -0.180000       12.0110           0
     11071 MEMB     105      POPS     H11R     HAL2     0.900000E-01   1.00800           0
     11072 MEMB     105      POPS     H11S     HAL2     0.900000E-01   1.00800           0
     11073 MEMB     105      POPS     C212     CTL2    -0.180000       12.0110           0
     11074 MEMB     105      POPS     H12R     HAL2     0.900000E-01   1.00800           0
     11075 MEMB     105      POPS     H12S     HAL2     0.900000E-01   1.00800           0
     11076 MEMB     105      POPS     C213     CTL2    -0.180000       12.0110           0
     11077 MEMB     105      POPS     H13R     HAL2     0.900000E-01   1.00800           0
     11078 MEMB     105      POPS     H13S     HAL2     0.900000E-01   1.00800           0
     11079 MEMB     105      POPS     C214     CTL2    -0.180000       12.0110           0
     11080 MEMB     105      POPS     H14R     HAL2     0.900000E-01   1.00800           0
     11081 MEMB     105      POPS     H14S     HAL2     0.900000E-01   1.00800           0
     11082 MEMB     105      POPS     C215     CTL2    -0.180000       12.0110           0
     11083 MEMB     105      POPS     H15R     HAL2     0.900000E-01   1.00800           0
     11084 MEMB     105      POPS     H15S     HAL2     0.900000E-01   1.00800           0
     11085 MEMB     105      POPS     C216     CTL2    -0.180000       12.0110           0
     11086 MEMB     105      POPS     H16R     HAL2     0.900000E-01   1.00800           0
     11087 MEMB     105      POPS     H16S     HAL2     0.900000E-01   1.00800           0
     11088 MEMB     105      POPS     C217     CTL2    -0.180000       12.0110           0
     11089 MEMB     105      POPS     H17R     HAL2     0.900000E-01   1.00800           0
     11090 MEMB     105      POPS     H17S     HAL2     0.900000E-01   1.00800           0
     11091 MEMB     105      POPS     C218     CTL3    -0.270000       12.0110           0
     11092 MEMB     105      POPS     H18R     HAL3     0.900000E-01   1.00800           0
     11093 MEMB     105      POPS     H18S     HAL3     0.900000E-01   1.00800           0
     11094 MEMB     105      POPS     H18T     HAL3     0.900000E-01   1.00800           0
     11095 MEMB     105      POPS     C33      CTL2    -0.180000       12.0110           0
     11096 MEMB     105      POPS     H3X      HAL2     0.900000E-01   1.00800           0
     11097 MEMB     105      POPS     H3Y      HAL2     0.900000E-01   1.00800           0
     11098 MEMB     105      POPS     C34      CTL2    -0.180000       12.0110           0
     11099 MEMB     105      POPS     H4X      HAL2     0.900000E-01   1.00800           0
     11100 MEMB     105      POPS     H4Y      HAL2     0.900000E-01   1.00800           0
     11101 MEMB     105      POPS     C35      CTL2    -0.180000       12.0110           0
     11102 MEMB     105      POPS     H5X      HAL2     0.900000E-01   1.00800           0
     11103 MEMB     105      POPS     H5Y      HAL2     0.900000E-01   1.00800           0
     11104 MEMB     105      POPS     C36      CTL2    -0.180000       12.0110           0
     11105 MEMB     105      POPS     H6X      HAL2     0.900000E-01   1.00800           0
     11106 MEMB     105      POPS     H6Y      HAL2     0.900000E-01   1.00800           0
     11107 MEMB     105      POPS     C37      CTL2    -0.180000       12.0110           0
     11108 MEMB     105      POPS     H7X      HAL2     0.900000E-01   1.00800           0
     11109 MEMB     105      POPS     H7Y      HAL2     0.900000E-01   1.00800           0
     11110 MEMB     105      POPS     C38      CTL2    -0.180000       12.0110           0
     11111 MEMB     105      POPS     H8X      HAL2     0.900000E-01   1.00800           0
     11112 MEMB     105      POPS     H8Y      HAL2     0.900000E-01   1.00800           0
     11113 MEMB     105      POPS     C39      CTL2    -0.180000       12.0110           0
     11114 MEMB     105      POPS     H9X      HAL2     0.900000E-01   1.00800           0
     11115 MEMB     105      POPS     H9Y      HAL2     0.900000E-01   1.00800           0
     11116 MEMB     105      POPS     C310     CTL2    -0.180000       12.0110           0
     11117 MEMB     105      POPS     H10X     HAL2     0.900000E-01   1.00800           0
     11118 MEMB     105      POPS     H10Y     HAL2     0.900000E-01   1.00800           0
     11119 MEMB     105      POPS     C311     CTL2    -0.180000       12.0110           0
     11120 MEMB     105      POPS     H11X     HAL2     0.900000E-01   1.00800           0
     11121 MEMB     105      POPS     H11Y     HAL2     0.900000E-01   1.00800           0
     11122 MEMB     105      POPS     C312     CTL2    -0.180000       12.0110           0
     11123 MEMB     105      POPS     H12X     HAL2     0.900000E-01   1.00800           0
     11124 MEMB     105      POPS     H12Y     HAL2     0.900000E-01   1.00800           0
     11125 MEMB     105      POPS     C313     CTL2    -0.180000       12.0110           0
     11126 MEMB     105      POPS     H13X     HAL2     0.900000E-01   1.00800           0
     11127 MEMB     105      POPS     H13Y     HAL2     0.900000E-01   1.00800           0
     11128 MEMB     105      POPS     C314     CTL2    -0.180000       12.0110           0
     11129 MEMB     105      POPS     H14X     HAL2     0.900000E-01   1.00800           0
     11130 MEMB     105      POPS     H14Y     HAL2     0.900000E-01   1.00800           0
     11131 MEMB     105      POPS     C315     CTL2    -0.180000       12.0110           0
     11132 MEMB     105      POPS     H15X     HAL2     0.900000E-01   1.00800           0
     11133 MEMB     105      POPS     H15Y     HAL2     0.900000E-01   1.00800           0
     11134 MEMB     105      POPS     C316     CTL3    -0.270000       12.0110           0
     11135 MEMB     105      POPS     H16X     HAL3     0.900000E-01   1.00800           0
     11136 MEMB     105      POPS     H16Y     HAL3     0.900000E-01   1.00800           0
     11137 MEMB     105      POPS     H16Z     HAL3     0.900000E-01   1.00800           0
     11138 MEMB     106      POPS     N        NH3L    -0.300000       14.0070           0
     11139 MEMB     106      POPS     HN1      HCL      0.330000       1.00800           0
     11140 MEMB     106      POPS     HN2      HCL      0.330000       1.00800           0
     11141 MEMB     106      POPS     HN3      HCL      0.330000       1.00800           0
     11142 MEMB     106      POPS     C12      CTL1     0.210000       12.0110           0
     11143 MEMB     106      POPS     H12A     HBL      0.100000       1.00800           0
     11144 MEMB     106      POPS     C13      CCL      0.340000       12.0110           0
     11145 MEMB     106      POPS     O13A     OCL     -0.670000       15.9994           0
     11146 MEMB     106      POPS     O13B     OCL     -0.670000       15.9994           0
     11147 MEMB     106      POPS     C11      CTL2    -0.800000E-01   12.0110           0
     11148 MEMB     106      POPS     H11A     HAL2     0.900000E-01   1.00800           0
     11149 MEMB     106      POPS     H11B     HAL2     0.900000E-01   1.00800           0
     11150 MEMB     106      POPS     P        PL       1.500000       30.9740           0
     11151 MEMB     106      POPS     O13      O2L     -0.780000       15.9994           0
     11152 MEMB     106      POPS     O14      O2L     -0.780000       15.9994           0
     11153 MEMB     106      POPS     O12      OSLP    -0.570000       15.9994           0
     11154 MEMB     106      POPS     O11      OSLP    -0.570000       15.9994           0
     11155 MEMB     106      POPS     C1       CTL2    -0.800000E-01   12.0110           0
     11156 MEMB     106      POPS     HA       HAL2     0.900000E-01   1.00800           0
     11157 MEMB     106      POPS     HB       HAL2     0.900000E-01   1.00800           0
     11158 MEMB     106      POPS     C2       CTL1     0.170000       12.0110           0
     11159 MEMB     106      POPS     HS       HAL1     0.900000E-01   1.00800           0
     11160 MEMB     106      POPS     O21      OSL     -0.490000       15.9994           0
     11161 MEMB     106      POPS     C21      CL       0.900000       12.0110           0
     11162 MEMB     106      POPS     O22      OBL     -0.630000       15.9994           0
     11163 MEMB     106      POPS     C22      CTL2    -0.220000       12.0110           0
     11164 MEMB     106      POPS     H2R      HAL2     0.900000E-01   1.00800           0
     11165 MEMB     106      POPS     H2S      HAL2     0.900000E-01   1.00800           0
     11166 MEMB     106      POPS     C3       CTL2     0.800000E-01   12.0110           0
     11167 MEMB     106      POPS     HX       HAL2     0.900000E-01   1.00800           0
     11168 MEMB     106      POPS     HY       HAL2     0.900000E-01   1.00800           0
     11169 MEMB     106      POPS     O31      OSL     -0.490000       15.9994           0
     11170 MEMB     106      POPS     C31      CL       0.900000       12.0110           0
     11171 MEMB     106      POPS     O32      OBL     -0.630000       15.9994           0
     11172 MEMB     106      POPS     C32      CTL2    -0.220000       12.0110           0
     11173 MEMB     106      POPS     H2X      HAL2     0.900000E-01   1.00800           0
     11174 MEMB     106      POPS     H2Y      HAL2     0.900000E-01   1.00800           0
     11175 MEMB     106      POPS     C23      CTL2    -0.180000       12.0110           0
     11176 MEMB     106      POPS     H3R      HAL2     0.900000E-01   1.00800           0
     11177 MEMB     106      POPS     H3S      HAL2     0.900000E-01   1.00800           0
     11178 MEMB     106      POPS     C24      CTL2    -0.180000       12.0110           0
     11179 MEMB     106      POPS     H4R      HAL2     0.900000E-01   1.00800           0
     11180 MEMB     106      POPS     H4S      HAL2     0.900000E-01   1.00800           0
     11181 MEMB     106      POPS     C25      CTL2    -0.180000       12.0110           0
     11182 MEMB     106      POPS     H5R      HAL2     0.900000E-01   1.00800           0
     11183 MEMB     106      POPS     H5S      HAL2     0.900000E-01   1.00800           0
     11184 MEMB     106      POPS     C26      CTL2    -0.180000       12.0110           0
     11185 MEMB     106      POPS     H6R      HAL2     0.900000E-01   1.00800           0
     11186 MEMB     106      POPS     H6S      HAL2     0.900000E-01   1.00800           0
     11187 MEMB     106      POPS     C27      CTL2    -0.180000       12.0110           0
     11188 MEMB     106      POPS     H7R      HAL2     0.900000E-01   1.00800           0
     11189 MEMB     106      POPS     H7S      HAL2     0.900000E-01   1.00800           0
     11190 MEMB     106      POPS     C28      CTL2    -0.180000       12.0110           0
     11191 MEMB     106      POPS     H8R      HAL2     0.900000E-01   1.00800           0
     11192 MEMB     106      POPS     H8S      HAL2     0.900000E-01   1.00800           0
     11193 MEMB     106      POPS     C29      CEL1    -0.150000       12.0110           0
     11194 MEMB     106      POPS     H91      HEL1     0.150000       1.00800           0
     11195 MEMB     106      POPS     C210     CEL1    -0.150000       12.0110           0
     11196 MEMB     106      POPS     H101     HEL1     0.150000       1.00800           0
     11197 MEMB     106      POPS     C211     CTL2    -0.180000       12.0110           0
     11198 MEMB     106      POPS     H11R     HAL2     0.900000E-01   1.00800           0
     11199 MEMB     106      POPS     H11S     HAL2     0.900000E-01   1.00800           0
     11200 MEMB     106      POPS     C212     CTL2    -0.180000       12.0110           0
     11201 MEMB     106      POPS     H12R     HAL2     0.900000E-01   1.00800           0
     11202 MEMB     106      POPS     H12S     HAL2     0.900000E-01   1.00800           0
     11203 MEMB     106      POPS     C213     CTL2    -0.180000       12.0110           0
     11204 MEMB     106      POPS     H13R     HAL2     0.900000E-01   1.00800           0
     11205 MEMB     106      POPS     H13S     HAL2     0.900000E-01   1.00800           0
     11206 MEMB     106      POPS     C214     CTL2    -0.180000       12.0110           0
     11207 MEMB     106      POPS     H14R     HAL2     0.900000E-01   1.00800           0
     11208 MEMB     106      POPS     H14S     HAL2     0.900000E-01   1.00800           0
     11209 MEMB     106      POPS     C215     CTL2    -0.180000       12.0110           0
     11210 MEMB     106      POPS     H15R     HAL2     0.900000E-01   1.00800           0
     11211 MEMB     106      POPS     H15S     HAL2     0.900000E-01   1.00800           0
     11212 MEMB     106      POPS     C216     CTL2    -0.180000       12.0110           0
     11213 MEMB     106      POPS     H16R     HAL2     0.900000E-01   1.00800           0
     11214 MEMB     106      POPS     H16S     HAL2     0.900000E-01   1.00800           0
     11215 MEMB     106      POPS     C217     CTL2    -0.180000       12.0110           0
     11216 MEMB     106      POPS     H17R     HAL2     0.900000E-01   1.00800           0
     11217 MEMB     106      POPS     H17S     HAL2     0.900000E-01   1.00800           0
     11218 MEMB     106      POPS     C218     CTL3    -0.270000       12.0110           0
     11219 MEMB     106      POPS     H18R     HAL3     0.900000E-01   1.00800           0
     11220 MEMB     106      POPS     H18S     HAL3     0.900000E-01   1.00800           0
     11221 MEMB     106      POPS     H18T     HAL3     0.900000E-01   1.00800           0
     11222 MEMB     106      POPS     C33      CTL2    -0.180000       12.0110           0
     11223 MEMB     106      POPS     H3X      HAL2     0.900000E-01   1.00800           0
     11224 MEMB     106      POPS     H3Y      HAL2     0.900000E-01   1.00800           0
     11225 MEMB     106      POPS     C34      CTL2    -0.180000       12.0110           0
     11226 MEMB     106      POPS     H4X      HAL2     0.900000E-01   1.00800           0
     11227 MEMB     106      POPS     H4Y      HAL2     0.900000E-01   1.00800           0
     11228 MEMB     106      POPS     C35      CTL2    -0.180000       12.0110           0
     11229 MEMB     106      POPS     H5X      HAL2     0.900000E-01   1.00800           0
     11230 MEMB     106      POPS     H5Y      HAL2     0.900000E-01   1.00800           0
     11231 MEMB     106      POPS     C36      CTL2    -0.180000       12.0110           0
     11232 MEMB     106      POPS     H6X      HAL2     0.900000E-01   1.00800           0
     11233 MEMB     106      POPS     H6Y      HAL2     0.900000E-01   1.00800           0
     11234 MEMB     106      POPS     C37      CTL2    -0.180000       12.0110           0
     11235 MEMB     106      POPS     H7X      HAL2     0.900000E-01   1.00800           0
     11236 MEMB     106      POPS     H7Y      HAL2     0.900000E-01   1.00800           0
     11237 MEMB     106      POPS     C38      CTL2    -0.180000       12.0110           0
     11238 MEMB     106      POPS     H8X      HAL2     0.900000E-01   1.00800           0
     11239 MEMB     106      POPS     H8Y      HAL2     0.900000E-01   1.00800           0
     11240 MEMB     106      POPS     C39      CTL2    -0.180000       12.0110           0
     11241 MEMB     106      POPS     H9X      HAL2     0.900000E-01   1.00800           0
     11242 MEMB     106      POPS     H9Y      HAL2     0.900000E-01   1.00800           0
     11243 MEMB     106      POPS     C310     CTL2    -0.180000       12.0110           0
     11244 MEMB     106      POPS     H10X     HAL2     0.900000E-01   1.00800           0
     11245 MEMB     106      POPS     H10Y     HAL2     0.900000E-01   1.00800           0
     11246 MEMB     106      POPS     C311     CTL2    -0.180000       12.0110           0
     11247 MEMB     106      POPS     H11X     HAL2     0.900000E-01   1.00800           0
     11248 MEMB     106      POPS     H11Y     HAL2     0.900000E-01   1.00800           0
     11249 MEMB     106      POPS     C312     CTL2    -0.180000       12.0110           0
     11250 MEMB     106      POPS     H12X     HAL2     0.900000E-01   1.00800           0
     11251 MEMB     106      POPS     H12Y     HAL2     0.900000E-01   1.00800           0
     11252 MEMB     106      POPS     C313     CTL2    -0.180000       12.0110           0
     11253 MEMB     106      POPS     H13X     HAL2     0.900000E-01   1.00800           0
     11254 MEMB     106      POPS     H13Y     HAL2     0.900000E-01   1.00800           0
     11255 MEMB     106      POPS     C314     CTL2    -0.180000       12.0110           0
     11256 MEMB     106      POPS     H14X     HAL2     0.900000E-01   1.00800           0
     11257 MEMB     106      POPS     H14Y     HAL2     0.900000E-01   1.00800           0
     11258 MEMB     106      POPS     C315     CTL2    -0.180000       12.0110           0
     11259 MEMB     106      POPS     H15X     HAL2     0.900000E-01   1.00800           0
     11260 MEMB     106      POPS     H15Y     HAL2     0.900000E-01   1.00800           0
     11261 MEMB     106      POPS     C316     CTL3    -0.270000       12.0110           0
     11262 MEMB     106      POPS     H16X     HAL3     0.900000E-01   1.00800           0
     11263 MEMB     106      POPS     H16Y     HAL3     0.900000E-01   1.00800           0
     11264 MEMB     106      POPS     H16Z     HAL3     0.900000E-01   1.00800           0
     11265 MEMB     114      POPS     N        NH3L    -0.300000       14.0070           0
     11266 MEMB     114      POPS     HN1      HCL      0.330000       1.00800           0
     11267 MEMB     114      POPS     HN2      HCL      0.330000       1.00800           0
     11268 MEMB     114      POPS     HN3      HCL      0.330000       1.00800           0
     11269 MEMB     114      POPS     C12      CTL1     0.210000       12.0110           0
     11270 MEMB     114      POPS     H12A     HBL      0.100000       1.00800           0
     11271 MEMB     114      POPS     C13      CCL      0.340000       12.0110           0
     11272 MEMB     114      POPS     O13A     OCL     -0.670000       15.9994           0
     11273 MEMB     114      POPS     O13B     OCL     -0.670000       15.9994           0
     11274 MEMB     114      POPS     C11      CTL2    -0.800000E-01   12.0110           0
     11275 MEMB     114      POPS     H11A     HAL2     0.900000E-01   1.00800           0
     11276 MEMB     114      POPS     H11B     HAL2     0.900000E-01   1.00800           0
     11277 MEMB     114      POPS     P        PL       1.500000       30.9740           0
     11278 MEMB     114      POPS     O13      O2L     -0.780000       15.9994           0
     11279 MEMB     114      POPS     O14      O2L     -0.780000       15.9994           0
     11280 MEMB     114      POPS     O12      OSLP    -0.570000       15.9994           0
     11281 MEMB     114      POPS     O11      OSLP    -0.570000       15.9994           0
     11282 MEMB     114      POPS     C1       CTL2    -0.800000E-01   12.0110           0
     11283 MEMB     114      POPS     HA       HAL2     0.900000E-01   1.00800           0
     11284 MEMB     114      POPS     HB       HAL2     0.900000E-01   1.00800           0
     11285 MEMB     114      POPS     C2       CTL1     0.170000       12.0110           0
     11286 MEMB     114      POPS     HS       HAL1     0.900000E-01   1.00800           0
     11287 MEMB     114      POPS     O21      OSL     -0.490000       15.9994           0
     11288 MEMB     114      POPS     C21      CL       0.900000       12.0110           0
     11289 MEMB     114      POPS     O22      OBL     -0.630000       15.9994           0
     11290 MEMB     114      POPS     C22      CTL2    -0.220000       12.0110           0
     11291 MEMB     114      POPS     H2R      HAL2     0.900000E-01   1.00800           0
     11292 MEMB     114      POPS     H2S      HAL2     0.900000E-01   1.00800           0
     11293 MEMB     114      POPS     C3       CTL2     0.800000E-01   12.0110           0
     11294 MEMB     114      POPS     HX       HAL2     0.900000E-01   1.00800           0
     11295 MEMB     114      POPS     HY       HAL2     0.900000E-01   1.00800           0
     11296 MEMB     114      POPS     O31      OSL     -0.490000       15.9994           0
     11297 MEMB     114      POPS     C31      CL       0.900000       12.0110           0
     11298 MEMB     114      POPS     O32      OBL     -0.630000       15.9994           0
     11299 MEMB     114      POPS     C32      CTL2    -0.220000       12.0110           0
     11300 MEMB     114      POPS     H2X      HAL2     0.900000E-01   1.00800           0
     11301 MEMB     114      POPS     H2Y      HAL2     0.900000E-01   1.00800           0
     11302 MEMB     114      POPS     C23      CTL2    -0.180000       12.0110           0
     11303 MEMB     114      POPS     H3R      HAL2     0.900000E-01   1.00800           0
     11304 MEMB     114      POPS     H3S      HAL2     0.900000E-01   1.00800           0
     11305 MEMB     114      POPS     C24      CTL2    -0.180000       12.0110           0
     11306 MEMB     114      POPS     H4R      HAL2     0.900000E-01   1.00800           0
     11307 MEMB     114      POPS     H4S      HAL2     0.900000E-01   1.00800           0
     11308 MEMB     114      POPS     C25      CTL2    -0.180000       12.0110           0
     11309 MEMB     114      POPS     H5R      HAL2     0.900000E-01   1.00800           0
     11310 MEMB     114      POPS     H5S      HAL2     0.900000E-01   1.00800           0
     11311 MEMB     114      POPS     C26      CTL2    -0.180000       12.0110           0
     11312 MEMB     114      POPS     H6R      HAL2     0.900000E-01   1.00800           0
     11313 MEMB     114      POPS     H6S      HAL2     0.900000E-01   1.00800           0
     11314 MEMB     114      POPS     C27      CTL2    -0.180000       12.0110           0
     11315 MEMB     114      POPS     H7R      HAL2     0.900000E-01   1.00800           0
     11316 MEMB     114      POPS     H7S      HAL2     0.900000E-01   1.00800           0
     11317 MEMB     114      POPS     C28      CTL2    -0.180000       12.0110           0
     11318 MEMB     114      POPS     H8R      HAL2     0.900000E-01   1.00800           0
     11319 MEMB     114      POPS     H8S      HAL2     0.900000E-01   1.00800           0
     11320 MEMB     114      POPS     C29      CEL1    -0.150000       12.0110           0
     11321 MEMB     114      POPS     H91      HEL1     0.150000       1.00800           0
     11322 MEMB     114      POPS     C210     CEL1    -0.150000       12.0110           0
     11323 MEMB     114      POPS     H101     HEL1     0.150000       1.00800           0
     11324 MEMB     114      POPS     C211     CTL2    -0.180000       12.0110           0
     11325 MEMB     114      POPS     H11R     HAL2     0.900000E-01   1.00800           0
     11326 MEMB     114      POPS     H11S     HAL2     0.900000E-01   1.00800           0
     11327 MEMB     114      POPS     C212     CTL2    -0.180000       12.0110           0
     11328 MEMB     114      POPS     H12R     HAL2     0.900000E-01   1.00800           0
     11329 MEMB     114      POPS     H12S     HAL2     0.900000E-01   1.00800           0
     11330 MEMB     114      POPS     C213     CTL2    -0.180000       12.0110           0
     11331 MEMB     114      POPS     H13R     HAL2     0.900000E-01   1.00800           0
     11332 MEMB     114      POPS     H13S     HAL2     0.900000E-01   1.00800           0
     11333 MEMB     114      POPS     C214     CTL2    -0.180000       12.0110           0
     11334 MEMB     114      POPS     H14R     HAL2     0.900000E-01   1.00800           0
     11335 MEMB     114      POPS     H14S     HAL2     0.900000E-01   1.00800           0
     11336 MEMB     114      POPS     C215     CTL2    -0.180000       12.0110           0
     11337 MEMB     114      POPS     H15R     HAL2     0.900000E-01   1.00800           0
     11338 MEMB     114      POPS     H15S     HAL2     0.900000E-01   1.00800           0
     11339 MEMB     114      POPS     C216     CTL2    -0.180000       12.0110           0
     11340 MEMB     114      POPS     H16R     HAL2     0.900000E-01   1.00800           0
     11341 MEMB     114      POPS     H16S     HAL2     0.900000E-01   1.00800           0
     11342 MEMB     114      POPS     C217     CTL2    -0.180000       12.0110           0
     11343 MEMB     114      POPS     H17R     HAL2     0.900000E-01   1.00800           0
     11344 MEMB     114      POPS     H17S     HAL2     0.900000E-01   1.00800           0
     11345 MEMB     114      POPS     C218     CTL3    -0.270000       12.0110           0
     11346 MEMB     114      POPS     H18R     HAL3     0.900000E-01   1.00800           0
     11347 MEMB     114      POPS     H18S     HAL3     0.900000E-01   1.00800           0
     11348 MEMB     114      POPS     H18T     HAL3     0.900000E-01   1.00800           0
     11349 MEMB     114      POPS     C33      CTL2    -0.180000       12.0110           0
     11350 MEMB     114      POPS     H3X      HAL2     0.900000E-01   1.00800           0
     11351 MEMB     114      POPS     H3Y      HAL2     0.900000E-01   1.00800           0
     11352 MEMB     114      POPS     C34      CTL2    -0.180000       12.0110           0
     11353 MEMB     114      POPS     H4X      HAL2     0.900000E-01   1.00800           0
     11354 MEMB     114      POPS     H4Y      HAL2     0.900000E-01   1.00800           0
     11355 MEMB     114      POPS     C35      CTL2    -0.180000       12.0110           0
     11356 MEMB     114      POPS     H5X      HAL2     0.900000E-01   1.00800           0
     11357 MEMB     114      POPS     H5Y      HAL2     0.900000E-01   1.00800           0
     11358 MEMB     114      POPS     C36      CTL2    -0.180000       12.0110           0
     11359 MEMB     114      POPS     H6X      HAL2     0.900000E-01   1.00800           0
     11360 MEMB     114      POPS     H6Y      HAL2     0.900000E-01   1.00800           0
     11361 MEMB     114      POPS     C37      CTL2    -0.180000       12.0110           0
     11362 MEMB     114      POPS     H7X      HAL2     0.900000E-01   1.00800           0
     11363 MEMB     114      POPS     H7Y      HAL2     0.900000E-01   1.00800           0
     11364 MEMB     114      POPS     C38      CTL2    -0.180000       12.0110           0
     11365 MEMB     114      POPS     H8X      HAL2     0.900000E-01   1.00800           0
     11366 MEMB     114      POPS     H8Y      HAL2     0.900000E-01   1.00800           0
     11367 MEMB     114      POPS     C39      CTL2    -0.180000       12.0110           0
     11368 MEMB     114      POPS     H9X      HAL2     0.900000E-01   1.00800           0
     11369 MEMB     114      POPS     H9Y      HAL2     0.900000E-01   1.00800           0
     11370 MEMB     114      POPS     C310     CTL2    -0.180000       12.0110           0
     11371 MEMB     114      POPS     H10X     HAL2     0.900000E-01   1.00800           0
     11372 MEMB     114      POPS     H10Y     HAL2     0.900000E-01   1.00800           0
     11373 MEMB     114      POPS     C311     CTL2    -0.180000       12.0110           0
     11374 MEMB     114      POPS     H11X     HAL2     0.900000E-01   1.00800           0
     11375 MEMB     114      POPS     H11Y     HAL2     0.900000E-01   1.00800           0
     11376 MEMB     114      POPS     C312     CTL2    -0.180000       12.0110           0
     11377 MEMB     114      POPS     H12X     HAL2     0.900000E-01   1.00800           0
     11378 MEMB     114      POPS     H12Y     HAL2     0.900000E-01   1.00800           0
     11379 MEMB     114      POPS     C313     CTL2    -0.180000       12.0110           0
     11380 MEMB     114      POPS     H13X     HAL2     0.900000E-01   1.00800           0
     11381 MEMB     114      POPS     H13Y     HAL2     0.900000E-01   1.00800           0
     11382 MEMB     114      POPS     C314     CTL2    -0.180000       12.0110           0
     11383 MEMB     114      POPS     H14X     HAL2     0.900000E-01   1.00800           0
     11384 MEMB     114      POPS     H14Y     HAL2     0.900000E-01   1.00800           0
     11385 MEMB     114      POPS     C315     CTL2    -0.180000       12.0110           0
     11386 MEMB     114      POPS     H15X     HAL2     0.900000E-01   1.00800           0
     11387 MEMB     114      POPS     H15Y     HAL2     0.900000E-01   1.00800           0
     11388 MEMB     114      POPS     C316     CTL3    -0.270000       12.0110           0
     11389 MEMB     114      POPS     H16X     HAL3     0.900000E-01   1.00800           0
     11390 MEMB     114      POPS     H16Y     HAL3     0.900000E-01   1.00800           0
     11391 MEMB     114      POPS     H16Z     HAL3     0.900000E-01   1.00800           0
     11392 MEMB     116      POPS     N        NH3L    -0.300000       14.0070           0
     11393 MEMB     116      POPS     HN1      HCL      0.330000       1.00800           0
     11394 MEMB     116      POPS     HN2      HCL      0.330000       1.00800           0
     11395 MEMB     116      POPS     HN3      HCL      0.330000       1.00800           0
     11396 MEMB     116      POPS     C12      CTL1     0.210000       12.0110           0
     11397 MEMB     116      POPS     H12A     HBL      0.100000       1.00800           0
     11398 MEMB     116      POPS     C13      CCL      0.340000       12.0110           0
     11399 MEMB     116      POPS     O13A     OCL     -0.670000       15.9994           0
     11400 MEMB     116      POPS     O13B     OCL     -0.670000       15.9994           0
     11401 MEMB     116      POPS     C11      CTL2    -0.800000E-01   12.0110           0
     11402 MEMB     116      POPS     H11A     HAL2     0.900000E-01   1.00800           0
     11403 MEMB     116      POPS     H11B     HAL2     0.900000E-01   1.00800           0
     11404 MEMB     116      POPS     P        PL       1.500000       30.9740           0
     11405 MEMB     116      POPS     O13      O2L     -0.780000       15.9994           0
     11406 MEMB     116      POPS     O14      O2L     -0.780000       15.9994           0
     11407 MEMB     116      POPS     O12      OSLP    -0.570000       15.9994           0
     11408 MEMB     116      POPS     O11      OSLP    -0.570000       15.9994           0
     11409 MEMB     116      POPS     C1       CTL2    -0.800000E-01   12.0110           0
     11410 MEMB     116      POPS     HA       HAL2     0.900000E-01   1.00800           0
     11411 MEMB     116      POPS     HB       HAL2     0.900000E-01   1.00800           0
     11412 MEMB     116      POPS     C2       CTL1     0.170000       12.0110           0
     11413 MEMB     116      POPS     HS       HAL1     0.900000E-01   1.00800           0
     11414 MEMB     116      POPS     O21      OSL     -0.490000       15.9994           0
     11415 MEMB     116      POPS     C21      CL       0.900000       12.0110           0
     11416 MEMB     116      POPS     O22      OBL     -0.630000       15.9994           0
     11417 MEMB     116      POPS     C22      CTL2    -0.220000       12.0110           0
     11418 MEMB     116      POPS     H2R      HAL2     0.900000E-01   1.00800           0
     11419 MEMB     116      POPS     H2S      HAL2     0.900000E-01   1.00800           0
     11420 MEMB     116      POPS     C3       CTL2     0.800000E-01   12.0110           0
     11421 MEMB     116      POPS     HX       HAL2     0.900000E-01   1.00800           0
     11422 MEMB     116      POPS     HY       HAL2     0.900000E-01   1.00800           0
     11423 MEMB     116      POPS     O31      OSL     -0.490000       15.9994           0
     11424 MEMB     116      POPS     C31      CL       0.900000       12.0110           0
     11425 MEMB     116      POPS     O32      OBL     -0.630000       15.9994           0
     11426 MEMB     116      POPS     C32      CTL2    -0.220000       12.0110           0
     11427 MEMB     116      POPS     H2X      HAL2     0.900000E-01   1.00800           0
     11428 MEMB     116      POPS     H2Y      HAL2     0.900000E-01   1.00800           0
     11429 MEMB     116      POPS     C23      CTL2    -0.180000       12.0110           0
     11430 MEMB     116      POPS     H3R      HAL2     0.900000E-01   1.00800           0
     11431 MEMB     116      POPS     H3S      HAL2     0.900000E-01   1.00800           0
     11432 MEMB     116      POPS     C24      CTL2    -0.180000       12.0110           0
     11433 MEMB     116      POPS     H4R      HAL2     0.900000E-01   1.00800           0
     11434 MEMB     116      POPS     H4S      HAL2     0.900000E-01   1.00800           0
     11435 MEMB     116      POPS     C25      CTL2    -0.180000       12.0110           0
     11436 MEMB     116      POPS     H5R      HAL2     0.900000E-01   1.00800           0
     11437 MEMB     116      POPS     H5S      HAL2     0.900000E-01   1.00800           0
     11438 MEMB     116      POPS     C26      CTL2    -0.180000       12.0110           0
     11439 MEMB     116      POPS     H6R      HAL2     0.900000E-01   1.00800           0
     11440 MEMB     116      POPS     H6S      HAL2     0.900000E-01   1.00800           0
     11441 MEMB     116      POPS     C27      CTL2    -0.180000       12.0110           0
     11442 MEMB     116      POPS     H7R      HAL2     0.900000E-01   1.00800           0
     11443 MEMB     116      POPS     H7S      HAL2     0.900000E-01   1.00800           0
     11444 MEMB     116      POPS     C28      CTL2    -0.180000       12.0110           0
     11445 MEMB     116      POPS     H8R      HAL2     0.900000E-01   1.00800           0
     11446 MEMB     116      POPS     H8S      HAL2     0.900000E-01   1.00800           0
     11447 MEMB     116      POPS     C29      CEL1    -0.150000       12.0110           0
     11448 MEMB     116      POPS     H91      HEL1     0.150000       1.00800           0
     11449 MEMB     116      POPS     C210     CEL1    -0.150000       12.0110           0
     11450 MEMB     116      POPS     H101     HEL1     0.150000       1.00800           0
     11451 MEMB     116      POPS     C211     CTL2    -0.180000       12.0110           0
     11452 MEMB     116      POPS     H11R     HAL2     0.900000E-01   1.00800           0
     11453 MEMB     116      POPS     H11S     HAL2     0.900000E-01   1.00800           0
     11454 MEMB     116      POPS     C212     CTL2    -0.180000       12.0110           0
     11455 MEMB     116      POPS     H12R     HAL2     0.900000E-01   1.00800           0
     11456 MEMB     116      POPS     H12S     HAL2     0.900000E-01   1.00800           0
     11457 MEMB     116      POPS     C213     CTL2    -0.180000       12.0110           0
     11458 MEMB     116      POPS     H13R     HAL2     0.900000E-01   1.00800           0
     11459 MEMB     116      POPS     H13S     HAL2     0.900000E-01   1.00800           0
     11460 MEMB     116      POPS     C214     CTL2    -0.180000       12.0110           0
     11461 MEMB     116      POPS     H14R     HAL2     0.900000E-01   1.00800           0
     11462 MEMB     116      POPS     H14S     HAL2     0.900000E-01   1.00800           0
     11463 MEMB     116      POPS     C215     CTL2    -0.180000       12.0110           0
     11464 MEMB     116      POPS     H15R     HAL2     0.900000E-01   1.00800           0
     11465 MEMB     116      POPS     H15S     HAL2     0.900000E-01   1.00800           0
     11466 MEMB     116      POPS     C216     CTL2    -0.180000       12.0110           0
     11467 MEMB     116      POPS     H16R     HAL2     0.900000E-01   1.00800           0
     11468 MEMB     116      POPS     H16S     HAL2     0.900000E-01   1.00800           0
     11469 MEMB     116      POPS     C217     CTL2    -0.180000       12.0110           0
     11470 MEMB     116      POPS     H17R     HAL2     0.900000E-01   1.00800           0
     11471 MEMB     116      POPS     H17S     HAL2     0.900000E-01   1.00800           0
     11472 MEMB     116      POPS     C218     CTL3    -0.270000       12.0110           0
     11473 MEMB     116      POPS     H18R     HAL3     0.900000E-01   1.00800           0
     11474 MEMB     116      POPS     H18S     HAL3     0.900000E-01   1.00800           0
     11475 MEMB     116      POPS     H18T     HAL3     0.900000E-01   1.00800           0
     11476 MEMB     116      POPS     C33      CTL2    -0.180000       12.0110           0
     11477 MEMB     116      POPS     H3X      HAL2     0.900000E-01   1.00800           0
     11478 MEMB     116      POPS     H3Y      HAL2     0.900000E-01   1.00800           0
     11479 MEMB     116      POPS     C34      CTL2    -0.180000       12.0110           0
     11480 MEMB     116      POPS     H4X      HAL2     0.900000E-01   1.00800           0
     11481 MEMB     116      POPS     H4Y      HAL2     0.900000E-01   1.00800           0
     11482 MEMB     116      POPS     C35      CTL2    -0.180000       12.0110           0
     11483 MEMB     116      POPS     H5X      HAL2     0.900000E-01   1.00800           0
     11484 MEMB     116      POPS     H5Y      HAL2     0.900000E-01   1.00800           0
     11485 MEMB     116      POPS     C36      CTL2    -0.180000       12.0110           0
     11486 MEMB     116      POPS     H6X      HAL2     0.900000E-01   1.00800           0
     11487 MEMB     116      POPS     H6Y      HAL2     0.900000E-01   1.00800           0
     11488 MEMB     116      POPS     C37      CTL2    -0.180000       12.0110           0
     11489 MEMB     116      POPS     H7X      HAL2     0.900000E-01   1.00800           0
     11490 MEMB     116      POPS     H7Y      HAL2     0.900000E-01   1.00800           0
     11491 MEMB     116      POPS     C38      CTL2    -0.180000       12.0110           0
     11492 MEMB     116      POPS     H8X      HAL2     0.900000E-01   1.00800           0
     11493 MEMB     116      POPS     H8Y      HAL2     0.900000E-01   1.00800           0
     11494 MEMB     116      POPS     C39      CTL2    -0.180000       12.0110           0
     11495 MEMB     116      POPS     H9X      HAL2     0.900000E-01   1.00800           0
     11496 MEMB     116      POPS     H9Y      HAL2     0.900000E-01   1.00800           0
     11497 MEMB     116      POPS     C310     CTL2    -0.180000       12.0110           0
     11498 MEMB     116      POPS     H10X     HAL2     0.900000E-01   1.00800           0
     11499 MEMB     116      POPS     H10Y     HAL2     0.900000E-01   1.00800           0
     11500 MEMB     116      POPS     C311     CTL2    -0.180000       12.0110           0
     11501 MEMB     116      POPS     H11X     HAL2     0.900000E-01   1.00800           0
     11502 MEMB     116      POPS     H11Y     HAL2     0.900000E-01   1.00800           0
     11503 MEMB     116      POPS     C312     CTL2    -0.180000       12.0110           0
     11504 MEMB     116      POPS     H12X     HAL2     0.900000E-01   1.00800           0
     11505 MEMB     116      POPS     H12Y     HAL2     0.900000E-01   1.00800           0
     11506 MEMB     116      POPS     C313     CTL2    -0.180000       12.0110           0
     11507 MEMB     116      POPS     H13X     HAL2     0.900000E-01   1.00800           0
     11508 MEMB     116      POPS     H13Y     HAL2     0.900000E-01   1.00800           0
     11509 MEMB     116      POPS     C314     CTL2    -0.180000       12.0110           0
     11510 MEMB     116      POPS     H14X     HAL2     0.900000E-01   1.00800           0
     11511 MEMB     116      POPS     H14Y     HAL2     0.900000E-01   1.00800           0
     11512 MEMB     116      POPS     C315     CTL2    -0.180000       12.0110           0
     11513 MEMB     116      POPS     H15X     HAL2     0.900000E-01   1.00800           0
     11514 MEMB     116      POPS     H15Y     HAL2     0.900000E-01   1.00800           0
     11515 MEMB     116      POPS     C316     CTL3    -0.270000       12.0110           0
     11516 MEMB     116      POPS     H16X     HAL3     0.900000E-01   1.00800           0
     11517 MEMB     116      POPS     H16Y     HAL3     0.900000E-01   1.00800           0
     11518 MEMB     116      POPS     H16Z     HAL3     0.900000E-01   1.00800           0
     11519 MEMB     121      POPS     N        NH3L    -0.300000       14.0070           0
     11520 MEMB     121      POPS     HN1      HCL      0.330000       1.00800           0
     11521 MEMB     121      POPS     HN2      HCL      0.330000       1.00800           0
     11522 MEMB     121      POPS     HN3      HCL      0.330000       1.00800           0
     11523 MEMB     121      POPS     C12      CTL1     0.210000       12.0110           0
     11524 MEMB     121      POPS     H12A     HBL      0.100000       1.00800           0
     11525 MEMB     121      POPS     C13      CCL      0.340000       12.0110           0
     11526 MEMB     121      POPS     O13A     OCL     -0.670000       15.9994           0
     11527 MEMB     121      POPS     O13B     OCL     -0.670000       15.9994           0
     11528 MEMB     121      POPS     C11      CTL2    -0.800000E-01   12.0110           0
     11529 MEMB     121      POPS     H11A     HAL2     0.900000E-01   1.00800           0
     11530 MEMB     121      POPS     H11B     HAL2     0.900000E-01   1.00800           0
     11531 MEMB     121      POPS     P        PL       1.500000       30.9740           0
     11532 MEMB     121      POPS     O13      O2L     -0.780000       15.9994           0
     11533 MEMB     121      POPS     O14      O2L     -0.780000       15.9994           0
     11534 MEMB     121      POPS     O12      OSLP    -0.570000       15.9994           0
     11535 MEMB     121      POPS     O11      OSLP    -0.570000       15.9994           0
     11536 MEMB     121      POPS     C1       CTL2    -0.800000E-01   12.0110           0
     11537 MEMB     121      POPS     HA       HAL2     0.900000E-01   1.00800           0
     11538 MEMB     121      POPS     HB       HAL2     0.900000E-01   1.00800           0
     11539 MEMB     121      POPS     C2       CTL1     0.170000       12.0110           0
     11540 MEMB     121      POPS     HS       HAL1     0.900000E-01   1.00800           0
     11541 MEMB     121      POPS     O21      OSL     -0.490000       15.9994           0
     11542 MEMB     121      POPS     C21      CL       0.900000       12.0110           0
     11543 MEMB     121      POPS     O22      OBL     -0.630000       15.9994           0
     11544 MEMB     121      POPS     C22      CTL2    -0.220000       12.0110           0
     11545 MEMB     121      POPS     H2R      HAL2     0.900000E-01   1.00800           0
     11546 MEMB     121      POPS     H2S      HAL2     0.900000E-01   1.00800           0
     11547 MEMB     121      POPS     C3       CTL2     0.800000E-01   12.0110           0
     11548 MEMB     121      POPS     HX       HAL2     0.900000E-01   1.00800           0
     11549 MEMB     121      POPS     HY       HAL2     0.900000E-01   1.00800           0
     11550 MEMB     121      POPS     O31      OSL     -0.490000       15.9994           0
     11551 MEMB     121      POPS     C31      CL       0.900000       12.0110           0
     11552 MEMB     121      POPS     O32      OBL     -0.630000       15.9994           0
     11553 MEMB     121      POPS     C32      CTL2    -0.220000       12.0110           0
     11554 MEMB     121      POPS     H2X      HAL2     0.900000E-01   1.00800           0
     11555 MEMB     121      POPS     H2Y      HAL2     0.900000E-01   1.00800           0
     11556 MEMB     121      POPS     C23      CTL2    -0.180000       12.0110           0
     11557 MEMB     121      POPS     H3R      HAL2     0.900000E-01   1.00800           0
     11558 MEMB     121      POPS     H3S      HAL2     0.900000E-01   1.00800           0
     11559 MEMB     121      POPS     C24      CTL2    -0.180000       12.0110           0
     11560 MEMB     121      POPS     H4R      HAL2     0.900000E-01   1.00800           0
     11561 MEMB     121      POPS     H4S      HAL2     0.900000E-01   1.00800           0
     11562 MEMB     121      POPS     C25      CTL2    -0.180000       12.0110           0
     11563 MEMB     121      POPS     H5R      HAL2     0.900000E-01   1.00800           0
     11564 MEMB     121      POPS     H5S      HAL2     0.900000E-01   1.00800           0
     11565 MEMB     121      POPS     C26      CTL2    -0.180000       12.0110           0
     11566 MEMB     121      POPS     H6R      HAL2     0.900000E-01   1.00800           0
     11567 MEMB     121      POPS     H6S      HAL2     0.900000E-01   1.00800           0
     11568 MEMB     121      POPS     C27      CTL2    -0.180000       12.0110           0
     11569 MEMB     121      POPS     H7R      HAL2     0.900000E-01   1.00800           0
     11570 MEMB     121      POPS     H7S      HAL2     0.900000E-01   1.00800           0
     11571 MEMB     121      POPS     C28      CTL2    -0.180000       12.0110           0
     11572 MEMB     121      POPS     H8R      HAL2     0.900000E-01   1.00800           0
     11573 MEMB     121      POPS     H8S      HAL2     0.900000E-01   1.00800           0
     11574 MEMB     121      POPS     C29      CEL1    -0.150000       12.0110           0
     11575 MEMB     121      POPS     H91      HEL1     0.150000       1.00800           0
     11576 MEMB     121      POPS     C210     CEL1    -0.150000       12.0110           0
     11577 MEMB     121      POPS     H101     HEL1     0.150000       1.00800           0
     11578 MEMB     121      POPS     C211     CTL2    -0.180000       12.0110           0
     11579 MEMB     121      POPS     H11R     HAL2     0.900000E-01   1.00800           0
     11580 MEMB     121      POPS     H11S     HAL2     0.900000E-01   1.00800           0
     11581 MEMB     121      POPS     C212     CTL2    -0.180000       12.0110           0
     11582 MEMB     121      POPS     H12R     HAL2     0.900000E-01   1.00800           0
     11583 MEMB     121      POPS     H12S     HAL2     0.900000E-01   1.00800           0
     11584 MEMB     121      POPS     C213     CTL2    -0.180000       12.0110           0
     11585 MEMB     121      POPS     H13R     HAL2     0.900000E-01   1.00800           0
     11586 MEMB     121      POPS     H13S     HAL2     0.900000E-01   1.00800           0
     11587 MEMB     121      POPS     C214     CTL2    -0.180000       12.0110           0
     11588 MEMB     121      POPS     H14R     HAL2     0.900000E-01   1.00800           0
     11589 MEMB     121      POPS     H14S     HAL2     0.900000E-01   1.00800           0
     11590 MEMB     121      POPS     C215     CTL2    -0.180000       12.0110           0
     11591 MEMB     121      POPS     H15R     HAL2     0.900000E-01   1.00800           0
     11592 MEMB     121      POPS     H15S     HAL2     0.900000E-01   1.00800           0
     11593 MEMB     121      POPS     C216     CTL2    -0.180000       12.0110           0
     11594 MEMB     121      POPS     H16R     HAL2     0.900000E-01   1.00800           0
     11595 MEMB     121      POPS     H16S     HAL2     0.900000E-01   1.00800           0
     11596 MEMB     121      POPS     C217     CTL2    -0.180000       12.0110           0
     11597 MEMB     121      POPS     H17R     HAL2     0.900000E-01   1.00800           0
     11598 MEMB     121      POPS     H17S     HAL2     0.900000E-01   1.00800           0
     11599 MEMB     121      POPS     C218     CTL3    -0.270000       12.0110           0
     11600 MEMB     121      POPS     H18R     HAL3     0.900000E-01   1.00800           0
     11601 MEMB     121      POPS     H18S     HAL3     0.900000E-01   1.00800           0
     11602 MEMB     121      POPS     H18T     HAL3     0.900000E-01   1.00800           0
     11603 MEMB     121      POPS     C33      CTL2    -0.180000       12.0110           0
     11604 MEMB     121      POPS     H3X      HAL2     0.900000E-01   1.00800           0
     11605 MEMB     121      POPS     H3Y      HAL2     0.900000E-01   1.00800           0
     11606 MEMB     121      POPS     C34      CTL2    -0.180000       12.0110           0
     11607 MEMB     121      POPS     H4X      HAL2     0.900000E-01   1.00800           0
     11608 MEMB     121      POPS     H4Y      HAL2     0.900000E-01   1.00800           0
     11609 MEMB     121      POPS     C35      CTL2    -0.180000       12.0110           0
     11610 MEMB     121      POPS     H5X      HAL2     0.900000E-01   1.00800           0
     11611 MEMB     121      POPS     H5Y      HAL2     0.900000E-01   1.00800           0
     11612 MEMB     121      POPS     C36      CTL2    -0.180000       12.0110           0
     11613 MEMB     121      POPS     H6X      HAL2     0.900000E-01   1.00800           0
     11614 MEMB     121      POPS     H6Y      HAL2     0.900000E-01   1.00800           0
     11615 MEMB     121      POPS     C37      CTL2    -0.180000       12.0110           0
     11616 MEMB     121      POPS     H7X      HAL2     0.900000E-01   1.00800           0
     11617 MEMB     121      POPS     H7Y      HAL2     0.900000E-01   1.00800           0
     11618 MEMB     121      POPS     C38      CTL2    -0.180000       12.0110           0
     11619 MEMB     121      POPS     H8X      HAL2     0.900000E-01   1.00800           0
     11620 MEMB     121      POPS     H8Y      HAL2     0.900000E-01   1.00800           0
     11621 MEMB     121      POPS     C39      CTL2    -0.180000       12.0110           0
     11622 MEMB     121      POPS     H9X      HAL2     0.900000E-01   1.00800           0
     11623 MEMB     121      POPS     H9Y      HAL2     0.900000E-01   1.00800           0
     11624 MEMB     121      POPS     C310     CTL2    -0.180000       12.0110           0
     11625 MEMB     121      POPS     H10X     HAL2     0.900000E-01   1.00800           0
     11626 MEMB     121      POPS     H10Y     HAL2     0.900000E-01   1.00800           0
     11627 MEMB     121      POPS     C311     CTL2    -0.180000       12.0110           0
     11628 MEMB     121      POPS     H11X     HAL2     0.900000E-01   1.00800           0
     11629 MEMB     121      POPS     H11Y     HAL2     0.900000E-01   1.00800           0
     11630 MEMB     121      POPS     C312     CTL2    -0.180000       12.0110           0
     11631 MEMB     121      POPS     H12X     HAL2     0.900000E-01   1.00800           0
     11632 MEMB     121      POPS     H12Y     HAL2     0.900000E-01   1.00800           0
     11633 MEMB     121      POPS     C313     CTL2    -0.180000       12.0110           0
     11634 MEMB     121      POPS     H13X     HAL2     0.900000E-01   1.00800           0
     11635 MEMB     121      POPS     H13Y     HAL2     0.900000E-01   1.00800           0
     11636 MEMB     121      POPS     C314     CTL2    -0.180000       12.0110           0
     11637 MEMB     121      POPS     H14X     HAL2     0.900000E-01   1.00800           0
     11638 MEMB     121      POPS     H14Y     HAL2     0.900000E-01   1.00800           0
     11639 MEMB     121      POPS     C315     CTL2    -0.180000       12.0110           0
     11640 MEMB     121      POPS     H15X     HAL2     0.900000E-01   1.00800           0
     11641 MEMB     121      POPS     H15Y     HAL2     0.900000E-01   1.00800           0
     11642 MEMB     121      POPS     C316     CTL3    -0.270000       12.0110           0
     11643 MEMB     121      POPS     H16X     HAL3     0.900000E-01   1.00800           0
     11644 MEMB     121      POPS     H16Y     HAL3     0.900000E-01   1.00800           0
     11645 MEMB     121      POPS     H16Z     HAL3     0.900000E-01   1.00800           0
     11646 MEMB     130      POPS     N        NH3L    -0.300000       14.0070           0
     11647 MEMB     130      POPS     HN1      HCL      0.330000       1.00800           0
     11648 MEMB     130      POPS     HN2      HCL      0.330000       1.00800           0
     11649 MEMB     130      POPS     HN3      HCL      0.330000       1.00800           0
     11650 MEMB     130      POPS     C12      CTL1     0.210000       12.0110           0
     11651 MEMB     130      POPS     H12A     HBL      0.100000       1.00800           0
     11652 MEMB     130      POPS     C13      CCL      0.340000       12.0110           0
     11653 MEMB     130      POPS     O13A     OCL     -0.670000       15.9994           0
     11654 MEMB     130      POPS     O13B     OCL     -0.670000       15.9994           0
     11655 MEMB     130      POPS     C11      CTL2    -0.800000E-01   12.0110           0
     11656 MEMB     130      POPS     H11A     HAL2     0.900000E-01   1.00800           0
     11657 MEMB     130      POPS     H11B     HAL2     0.900000E-01   1.00800           0
     11658 MEMB     130      POPS     P        PL       1.500000       30.9740           0
     11659 MEMB     130      POPS     O13      O2L     -0.780000       15.9994           0
     11660 MEMB     130      POPS     O14      O2L     -0.780000       15.9994           0
     11661 MEMB     130      POPS     O12      OSLP    -0.570000       15.9994           0
     11662 MEMB     130      POPS     O11      OSLP    -0.570000       15.9994           0
     11663 MEMB     130      POPS     C1       CTL2    -0.800000E-01   12.0110           0
     11664 MEMB     130      POPS     HA       HAL2     0.900000E-01   1.00800           0
     11665 MEMB     130      POPS     HB       HAL2     0.900000E-01   1.00800           0
     11666 MEMB     130      POPS     C2       CTL1     0.170000       12.0110           0
     11667 MEMB     130      POPS     HS       HAL1     0.900000E-01   1.00800           0
     11668 MEMB     130      POPS     O21      OSL     -0.490000       15.9994           0
     11669 MEMB     130      POPS     C21      CL       0.900000       12.0110           0
     11670 MEMB     130      POPS     O22      OBL     -0.630000       15.9994           0
     11671 MEMB     130      POPS     C22      CTL2    -0.220000       12.0110           0
     11672 MEMB     130      POPS     H2R      HAL2     0.900000E-01   1.00800           0
     11673 MEMB     130      POPS     H2S      HAL2     0.900000E-01   1.00800           0
     11674 MEMB     130      POPS     C3       CTL2     0.800000E-01   12.0110           0
     11675 MEMB     130      POPS     HX       HAL2     0.900000E-01   1.00800           0
     11676 MEMB     130      POPS     HY       HAL2     0.900000E-01   1.00800           0
     11677 MEMB     130      POPS     O31      OSL     -0.490000       15.9994           0
     11678 MEMB     130      POPS     C31      CL       0.900000       12.0110           0
     11679 MEMB     130      POPS     O32      OBL     -0.630000       15.9994           0
     11680 MEMB     130      POPS     C32      CTL2    -0.220000       12.0110           0
     11681 MEMB     130      POPS     H2X      HAL2     0.900000E-01   1.00800           0
     11682 MEMB     130      POPS     H2Y      HAL2     0.900000E-01   1.00800           0
     11683 MEMB     130      POPS     C23      CTL2    -0.180000       12.0110           0
     11684 MEMB     130      POPS     H3R      HAL2     0.900000E-01   1.00800           0
     11685 MEMB     130      POPS     H3S      HAL2     0.900000E-01   1.00800           0
     11686 MEMB     130      POPS     C24      CTL2    -0.180000       12.0110           0
     11687 MEMB     130      POPS     H4R      HAL2     0.900000E-01   1.00800           0
     11688 MEMB     130      POPS     H4S      HAL2     0.900000E-01   1.00800           0
     11689 MEMB     130      POPS     C25      CTL2    -0.180000       12.0110           0
     11690 MEMB     130      POPS     H5R      HAL2     0.900000E-01   1.00800           0
     11691 MEMB     130      POPS     H5S      HAL2     0.900000E-01   1.00800           0
     11692 MEMB     130      POPS     C26      CTL2    -0.180000       12.0110           0
     11693 MEMB     130      POPS     H6R      HAL2     0.900000E-01   1.00800           0
     11694 MEMB     130      POPS     H6S      HAL2     0.900000E-01   1.00800           0
     11695 MEMB     130      POPS     C27      CTL2    -0.180000       12.0110           0
     11696 MEMB     130      POPS     H7R      HAL2     0.900000E-01   1.00800           0
     11697 MEMB     130      POPS     H7S      HAL2     0.900000E-01   1.00800           0
     11698 MEMB     130      POPS     C28      CTL2    -0.180000       12.0110           0
     11699 MEMB     130      POPS     H8R      HAL2     0.900000E-01   1.00800           0
     11700 MEMB     130      POPS     H8S      HAL2     0.900000E-01   1.00800           0
     11701 MEMB     130      POPS     C29      CEL1    -0.150000       12.0110           0
     11702 MEMB     130      POPS     H91      HEL1     0.150000       1.00800           0
     11703 MEMB     130      POPS     C210     CEL1    -0.150000       12.0110           0
     11704 MEMB     130      POPS     H101     HEL1     0.150000       1.00800           0
     11705 MEMB     130      POPS     C211     CTL2    -0.180000       12.0110           0
     11706 MEMB     130      POPS     H11R     HAL2     0.900000E-01   1.00800           0
     11707 MEMB     130      POPS     H11S     HAL2     0.900000E-01   1.00800           0
     11708 MEMB     130      POPS     C212     CTL2    -0.180000       12.0110           0
     11709 MEMB     130      POPS     H12R     HAL2     0.900000E-01   1.00800           0
     11710 MEMB     130      POPS     H12S     HAL2     0.900000E-01   1.00800           0
     11711 MEMB     130      POPS     C213     CTL2    -0.180000       12.0110           0
     11712 MEMB     130      POPS     H13R     HAL2     0.900000E-01   1.00800           0
     11713 MEMB     130      POPS     H13S     HAL2     0.900000E-01   1.00800           0
     11714 MEMB     130      POPS     C214     CTL2    -0.180000       12.0110           0
     11715 MEMB     130      POPS     H14R     HAL2     0.900000E-01   1.00800           0
     11716 MEMB     130      POPS     H14S     HAL2     0.900000E-01   1.00800           0
     11717 MEMB     130      POPS     C215     CTL2    -0.180000       12.0110           0
     11718 MEMB     130      POPS     H15R     HAL2     0.900000E-01   1.00800           0
     11719 MEMB     130      POPS     H15S     HAL2     0.900000E-01   1.00800           0
     11720 MEMB     130      POPS     C216     CTL2    -0.180000       12.0110           0
     11721 MEMB     130      POPS     H16R     HAL2     0.900000E-01   1.00800           0
     11722 MEMB     130      POPS     H16S     HAL2     0.900000E-01   1.00800           0
     11723 MEMB     130      POPS     C217     CTL2    -0.180000       12.0110           0
     11724 MEMB     130      POPS     H17R     HAL2     0.900000E-01   1.00800           0
     11725 MEMB     130      POPS     H17S     HAL2     0.900000E-01   1.00800           0
     11726 MEMB     130      POPS     C218     CTL3    -0.270000       12.0110           0
     11727 MEMB     130      POPS     H18R     HAL3     0.900000E-01   1.00800           0
     11728 MEMB     130      POPS     H18S     HAL3     0.900000E-01   1.00800           0
     11729 MEMB     130      POPS     H18T     HAL3     0.900000E-01   1.00800           0
     11730 MEMB     130      POPS     C33      CTL2    -0.180000       12.0110           0
     11731 MEMB     130      POPS     H3X      HAL2     0.900000E-01   1.00800           0
     11732 MEMB     130      POPS     H3Y      HAL2     0.900000E-01   1.00800           0
     11733 MEMB     130      POPS     C34      CTL2    -0.180000       12.0110           0
     11734 MEMB     130      POPS     H4X      HAL2     0.900000E-01   1.00800           0
     11735 MEMB     130      POPS     H4Y      HAL2     0.900000E-01   1.00800           0
     11736 MEMB     130      POPS     C35      CTL2    -0.180000       12.0110           0
     11737 MEMB     130      POPS     H5X      HAL2     0.900000E-01   1.00800           0
     11738 MEMB     130      POPS     H5Y      HAL2     0.900000E-01   1.00800           0
     11739 MEMB     130      POPS     C36      CTL2    -0.180000       12.0110           0
     11740 MEMB     130      POPS     H6X      HAL2     0.900000E-01   1.00800           0
     11741 MEMB     130      POPS     H6Y      HAL2     0.900000E-01   1.00800           0
     11742 MEMB     130      POPS     C37      CTL2    -0.180000       12.0110           0
     11743 MEMB     130      POPS     H7X      HAL2     0.900000E-01   1.00800           0
     11744 MEMB     130      POPS     H7Y      HAL2     0.900000E-01   1.00800           0
     11745 MEMB     130      POPS     C38      CTL2    -0.180000       12.0110           0
     11746 MEMB     130      POPS     H8X      HAL2     0.900000E-01   1.00800           0
     11747 MEMB     130      POPS     H8Y      HAL2     0.900000E-01   1.00800           0
     11748 MEMB     130      POPS     C39      CTL2    -0.180000       12.0110           0
     11749 MEMB     130      POPS     H9X      HAL2     0.900000E-01   1.00800           0
     11750 MEMB     130      POPS     H9Y      HAL2     0.900000E-01   1.00800           0
     11751 MEMB     130      POPS     C310     CTL2    -0.180000       12.0110           0
     11752 MEMB     130      POPS     H10X     HAL2     0.900000E-01   1.00800           0
     11753 MEMB     130      POPS     H10Y     HAL2     0.900000E-01   1.00800           0
     11754 MEMB     130      POPS     C311     CTL2    -0.180000       12.0110           0
     11755 MEMB     130      POPS     H11X     HAL2     0.900000E-01   1.00800           0
     11756 MEMB     130      POPS     H11Y     HAL2     0.900000E-01   1.00800           0
     11757 MEMB     130      POPS     C312     CTL2    -0.180000       12.0110           0
     11758 MEMB     130      POPS     H12X     HAL2     0.900000E-01   1.00800           0
     11759 MEMB     130      POPS     H12Y     HAL2     0.900000E-01   1.00800           0
     11760 MEMB     130      POPS     C313     CTL2    -0.180000       12.0110           0
     11761 MEMB     130      POPS     H13X     HAL2     0.900000E-01   1.00800           0
     11762 MEMB     130      POPS     H13Y     HAL2     0.900000E-01   1.00800           0
     11763 MEMB     130      POPS     C314     CTL2    -0.180000       12.0110           0
     11764 MEMB     130      POPS     H14X     HAL2     0.900000E-01   1.00800           0
     11765 MEMB     130      POPS     H14Y     HAL2     0.900000E-01   1.00800           0
     11766 MEMB     130      POPS     C315     CTL2    -0.180000       12.0110           0
     11767 MEMB     130      POPS     H15X     HAL2     0.900000E-01   1.00800           0
     11768 MEMB     130      POPS     H15Y     HAL2     0.900000E-01   1.00800           0
     11769 MEMB     130      POPS     C316     CTL3    -0.270000       12.0110           0
     11770 MEMB     130      POPS     H16X     HAL3     0.900000E-01   1.00800           0
     11771 MEMB     130      POPS     H16Y     HAL3     0.900000E-01   1.00800           0
     11772 MEMB     130      POPS     H16Z     HAL3     0.900000E-01   1.00800           0
     11773 MEMB     145      POPS     N        NH3L    -0.300000       14.0070           0
     11774 MEMB     145      POPS     HN1      HCL      0.330000       1.00800           0
     11775 MEMB     145      POPS     HN2      HCL      0.330000       1.00800           0
     11776 MEMB     145      POPS     HN3      HCL      0.330000       1.00800           0
     11777 MEMB     145      POPS     C12      CTL1     0.210000       12.0110           0
     11778 MEMB     145      POPS     H12A     HBL      0.100000       1.00800           0
     11779 MEMB     145      POPS     C13      CCL      0.340000       12.0110           0
     11780 MEMB     145      POPS     O13A     OCL     -0.670000       15.9994           0
     11781 MEMB     145      POPS     O13B     OCL     -0.670000       15.9994           0
     11782 MEMB     145      POPS     C11      CTL2    -0.800000E-01   12.0110           0
     11783 MEMB     145      POPS     H11A     HAL2     0.900000E-01   1.00800           0
     11784 MEMB     145      POPS     H11B     HAL2     0.900000E-01   1.00800           0
     11785 MEMB     145      POPS     P        PL       1.500000       30.9740           0
     11786 MEMB     145      POPS     O13      O2L     -0.780000       15.9994           0
     11787 MEMB     145      POPS     O14      O2L     -0.780000       15.9994           0
     11788 MEMB     145      POPS     O12      OSLP    -0.570000       15.9994           0
     11789 MEMB     145      POPS     O11      OSLP    -0.570000       15.9994           0
     11790 MEMB     145      POPS     C1       CTL2    -0.800000E-01   12.0110           0
     11791 MEMB     145      POPS     HA       HAL2     0.900000E-01   1.00800           0
     11792 MEMB     145      POPS     HB       HAL2     0.900000E-01   1.00800           0
     11793 MEMB     145      POPS     C2       CTL1     0.170000       12.0110           0
     11794 MEMB     145      POPS     HS       HAL1     0.900000E-01   1.00800           0
     11795 MEMB     145      POPS     O21      OSL     -0.490000       15.9994           0
     11796 MEMB     145      POPS     C21      CL       0.900000       12.0110           0
     11797 MEMB     145      POPS     O22      OBL     -0.630000       15.9994           0
     11798 MEMB     145      POPS     C22      CTL2    -0.220000       12.0110           0
     11799 MEMB     145      POPS     H2R      HAL2     0.900000E-01   1.00800           0
     11800 MEMB     145      POPS     H2S      HAL2     0.900000E-01   1.00800           0
     11801 MEMB     145      POPS     C3       CTL2     0.800000E-01   12.0110           0
     11802 MEMB     145      POPS     HX       HAL2     0.900000E-01   1.00800           0
     11803 MEMB     145      POPS     HY       HAL2     0.900000E-01   1.00800           0
     11804 MEMB     145      POPS     O31      OSL     -0.490000       15.9994           0
     11805 MEMB     145      POPS     C31      CL       0.900000       12.0110           0
     11806 MEMB     145      POPS     O32      OBL     -0.630000       15.9994           0
     11807 MEMB     145      POPS     C32      CTL2    -0.220000       12.0110           0
     11808 MEMB     145      POPS     H2X      HAL2     0.900000E-01   1.00800           0
     11809 MEMB     145      POPS     H2Y      HAL2     0.900000E-01   1.00800           0
     11810 MEMB     145      POPS     C23      CTL2    -0.180000       12.0110           0
     11811 MEMB     145      POPS     H3R      HAL2     0.900000E-01   1.00800           0
     11812 MEMB     145      POPS     H3S      HAL2     0.900000E-01   1.00800           0
     11813 MEMB     145      POPS     C24      CTL2    -0.180000       12.0110           0
     11814 MEMB     145      POPS     H4R      HAL2     0.900000E-01   1.00800           0
     11815 MEMB     145      POPS     H4S      HAL2     0.900000E-01   1.00800           0
     11816 MEMB     145      POPS     C25      CTL2    -0.180000       12.0110           0
     11817 MEMB     145      POPS     H5R      HAL2     0.900000E-01   1.00800           0
     11818 MEMB     145      POPS     H5S      HAL2     0.900000E-01   1.00800           0
     11819 MEMB     145      POPS     C26      CTL2    -0.180000       12.0110           0
     11820 MEMB     145      POPS     H6R      HAL2     0.900000E-01   1.00800           0
     11821 MEMB     145      POPS     H6S      HAL2     0.900000E-01   1.00800           0
     11822 MEMB     145      POPS     C27      CTL2    -0.180000       12.0110           0
     11823 MEMB     145      POPS     H7R      HAL2     0.900000E-01   1.00800           0
     11824 MEMB     145      POPS     H7S      HAL2     0.900000E-01   1.00800           0
     11825 MEMB     145      POPS     C28      CTL2    -0.180000       12.0110           0
     11826 MEMB     145      POPS     H8R      HAL2     0.900000E-01   1.00800           0
     11827 MEMB     145      POPS     H8S      HAL2     0.900000E-01   1.00800           0
     11828 MEMB     145      POPS     C29      CEL1    -0.150000       12.0110           0
     11829 MEMB     145      POPS     H91      HEL1     0.150000       1.00800           0
     11830 MEMB     145      POPS     C210     CEL1    -0.150000       12.0110           0
     11831 MEMB     145      POPS     H101     HEL1     0.150000       1.00800           0
     11832 MEMB     145      POPS     C211     CTL2    -0.180000       12.0110           0
     11833 MEMB     145      POPS     H11R     HAL2     0.900000E-01   1.00800           0
     11834 MEMB     145      POPS     H11S     HAL2     0.900000E-01   1.00800           0
     11835 MEMB     145      POPS     C212     CTL2    -0.180000       12.0110           0
     11836 MEMB     145      POPS     H12R     HAL2     0.900000E-01   1.00800           0
     11837 MEMB     145      POPS     H12S     HAL2     0.900000E-01   1.00800           0
     11838 MEMB     145      POPS     C213     CTL2    -0.180000       12.0110           0
     11839 MEMB     145      POPS     H13R     HAL2     0.900000E-01   1.00800           0
     11840 MEMB     145      POPS     H13S     HAL2     0.900000E-01   1.00800           0
     11841 MEMB     145      POPS     C214     CTL2    -0.180000       12.0110           0
     11842 MEMB     145      POPS     H14R     HAL2     0.900000E-01   1.00800           0
     11843 MEMB     145      POPS     H14S     HAL2     0.900000E-01   1.00800           0
     11844 MEMB     145      POPS     C215     CTL2    -0.180000       12.0110           0
     11845 MEMB     145      POPS     H15R     HAL2     0.900000E-01   1.00800           0
     11846 MEMB     145      POPS     H15S     HAL2     0.900000E-01   1.00800           0
     11847 MEMB     145      POPS     C216     CTL2    -0.180000       12.0110           0
     11848 MEMB     145      POPS     H16R     HAL2     0.900000E-01   1.00800           0
     11849 MEMB     145      POPS     H16S     HAL2     0.900000E-01   1.00800           0
     11850 MEMB     145      POPS     C217     CTL2    -0.180000       12.0110           0
     11851 MEMB     145      POPS     H17R     HAL2     0.900000E-01   1.00800           0
     11852 MEMB     145      POPS     H17S     HAL2     0.900000E-01   1.00800           0
     11853 MEMB     145      POPS     C218     CTL3    -0.270000       12.0110           0
     11854 MEMB     145      POPS     H18R     HAL3     0.900000E-01   1.00800           0
     11855 MEMB     145      POPS     H18S     HAL3     0.900000E-01   1.00800           0
     11856 MEMB     145      POPS     H18T     HAL3     0.900000E-01   1.00800           0
     11857 MEMB     145      POPS     C33      CTL2    -0.180000       12.0110           0
     11858 MEMB     145      POPS     H3X      HAL2     0.900000E-01   1.00800           0
     11859 MEMB     145      POPS     H3Y      HAL2     0.900000E-01   1.00800           0
     11860 MEMB     145      POPS     C34      CTL2    -0.180000       12.0110           0
     11861 MEMB     145      POPS     H4X      HAL2     0.900000E-01   1.00800           0
     11862 MEMB     145      POPS     H4Y      HAL2     0.900000E-01   1.00800           0
     11863 MEMB     145      POPS     C35      CTL2    -0.180000       12.0110           0
     11864 MEMB     145      POPS     H5X      HAL2     0.900000E-01   1.00800           0
     11865 MEMB     145      POPS     H5Y      HAL2     0.900000E-01   1.00800           0
     11866 MEMB     145      POPS     C36      CTL2    -0.180000       12.0110           0
     11867 MEMB     145      POPS     H6X      HAL2     0.900000E-01   1.00800           0
     11868 MEMB     145      POPS     H6Y      HAL2     0.900000E-01   1.00800           0
     11869 MEMB     145      POPS     C37      CTL2    -0.180000       12.0110           0
     11870 MEMB     145      POPS     H7X      HAL2     0.900000E-01   1.00800           0
     11871 MEMB     145      POPS     H7Y      HAL2     0.900000E-01   1.00800           0
     11872 MEMB     145      POPS     C38      CTL2    -0.180000       12.0110           0
     11873 MEMB     145      POPS     H8X      HAL2     0.900000E-01   1.00800           0
     11874 MEMB     145      POPS     H8Y      HAL2     0.900000E-01   1.00800           0
     11875 MEMB     145      POPS     C39      CTL2    -0.180000       12.0110           0
     11876 MEMB     145      POPS     H9X      HAL2     0.900000E-01   1.00800           0
     11877 MEMB     145      POPS     H9Y      HAL2     0.900000E-01   1.00800           0
     11878 MEMB     145      POPS     C310     CTL2    -0.180000       12.0110           0
     11879 MEMB     145      POPS     H10X     HAL2     0.900000E-01   1.00800           0
     11880 MEMB     145      POPS     H10Y     HAL2     0.900000E-01   1.00800           0
     11881 MEMB     145      POPS     C311     CTL2    -0.180000       12.0110           0
     11882 MEMB     145      POPS     H11X     HAL2     0.900000E-01   1.00800           0
     11883 MEMB     145      POPS     H11Y     HAL2     0.900000E-01   1.00800           0
     11884 MEMB     145      POPS     C312     CTL2    -0.180000       12.0110           0
     11885 MEMB     145      POPS     H12X     HAL2     0.900000E-01   1.00800           0
     11886 MEMB     145      POPS     H12Y     HAL2     0.900000E-01   1.00800           0
     11887 MEMB     145      POPS     C313     CTL2    -0.180000       12.0110           0
     11888 MEMB     145      POPS     H13X     HAL2     0.900000E-01   1.00800           0
     11889 MEMB     145      POPS     H13Y     HAL2     0.900000E-01   1.00800           0
     11890 MEMB     145      POPS     C314     CTL2    -0.180000       12.0110           0
     11891 MEMB     145      POPS     H14X     HAL2     0.900000E-01   1.00800           0
     11892 MEMB     145      POPS     H14Y     HAL2     0.900000E-01   1.00800           0
     11893 MEMB     145      POPS     C315     CTL2    -0.180000       12.0110           0
     11894 MEMB     145      POPS     H15X     HAL2     0.900000E-01   1.00800           0
     11895 MEMB     145      POPS     H15Y     HAL2     0.900000E-01   1.00800           0
     11896 MEMB     145      POPS     C316     CTL3    -0.270000       12.0110           0
     11897 MEMB     145      POPS     H16X     HAL3     0.900000E-01   1.00800           0
     11898 MEMB     145      POPS     H16Y     HAL3     0.900000E-01   1.00800           0
     11899 MEMB     145      POPS     H16Z     HAL3     0.900000E-01   1.00800           0
     11900 MEMB     147      POPS     N        NH3L    -0.300000       14.0070           0
     11901 MEMB     147      POPS     HN1      HCL      0.330000       1.00800           0
     11902 MEMB     147      POPS     HN2      HCL      0.330000       1.00800           0
     11903 MEMB     147      POPS     HN3      HCL      0.330000       1.00800           0
     11904 MEMB     147      POPS     C12      CTL1     0.210000       12.0110           0
     11905 MEMB     147      POPS     H12A     HBL      0.100000       1.00800           0
     11906 MEMB     147      POPS     C13      CCL      0.340000       12.0110           0
     11907 MEMB     147      POPS     O13A     OCL     -0.670000       15.9994           0
     11908 MEMB     147      POPS     O13B     OCL     -0.670000       15.9994           0
     11909 MEMB     147      POPS     C11      CTL2    -0.800000E-01   12.0110           0
     11910 MEMB     147      POPS     H11A     HAL2     0.900000E-01   1.00800           0
     11911 MEMB     147      POPS     H11B     HAL2     0.900000E-01   1.00800           0
     11912 MEMB     147      POPS     P        PL       1.500000       30.9740           0
     11913 MEMB     147      POPS     O13      O2L     -0.780000       15.9994           0
     11914 MEMB     147      POPS     O14      O2L     -0.780000       15.9994           0
     11915 MEMB     147      POPS     O12      OSLP    -0.570000       15.9994           0
     11916 MEMB     147      POPS     O11      OSLP    -0.570000       15.9994           0
     11917 MEMB     147      POPS     C1       CTL2    -0.800000E-01   12.0110           0
     11918 MEMB     147      POPS     HA       HAL2     0.900000E-01   1.00800           0
     11919 MEMB     147      POPS     HB       HAL2     0.900000E-01   1.00800           0
     11920 MEMB     147      POPS     C2       CTL1     0.170000       12.0110           0
     11921 MEMB     147      POPS     HS       HAL1     0.900000E-01   1.00800           0
     11922 MEMB     147      POPS     O21      OSL     -0.490000       15.9994           0
     11923 MEMB     147      POPS     C21      CL       0.900000       12.0110           0
     11924 MEMB     147      POPS     O22      OBL     -0.630000       15.9994           0
     11925 MEMB     147      POPS     C22      CTL2    -0.220000       12.0110           0
     11926 MEMB     147      POPS     H2R      HAL2     0.900000E-01   1.00800           0
     11927 MEMB     147      POPS     H2S      HAL2     0.900000E-01   1.00800           0
     11928 MEMB     147      POPS     C3       CTL2     0.800000E-01   12.0110           0
     11929 MEMB     147      POPS     HX       HAL2     0.900000E-01   1.00800           0
     11930 MEMB     147      POPS     HY       HAL2     0.900000E-01   1.00800           0
     11931 MEMB     147      POPS     O31      OSL     -0.490000       15.9994           0
     11932 MEMB     147      POPS     C31      CL       0.900000       12.0110           0
     11933 MEMB     147      POPS     O32      OBL     -0.630000       15.9994           0
     11934 MEMB     147      POPS     C32      CTL2    -0.220000       12.0110           0
     11935 MEMB     147      POPS     H2X      HAL2     0.900000E-01   1.00800           0
     11936 MEMB     147      POPS     H2Y      HAL2     0.900000E-01   1.00800           0
     11937 MEMB     147      POPS     C23      CTL2    -0.180000       12.0110           0
     11938 MEMB     147      POPS     H3R      HAL2     0.900000E-01   1.00800           0
     11939 MEMB     147      POPS     H3S      HAL2     0.900000E-01   1.00800           0
     11940 MEMB     147      POPS     C24      CTL2    -0.180000       12.0110           0
     11941 MEMB     147      POPS     H4R      HAL2     0.900000E-01   1.00800           0
     11942 MEMB     147      POPS     H4S      HAL2     0.900000E-01   1.00800           0
     11943 MEMB     147      POPS     C25      CTL2    -0.180000       12.0110           0
     11944 MEMB     147      POPS     H5R      HAL2     0.900000E-01   1.00800           0
     11945 MEMB     147      POPS     H5S      HAL2     0.900000E-01   1.00800           0
     11946 MEMB     147      POPS     C26      CTL2    -0.180000       12.0110           0
     11947 MEMB     147      POPS     H6R      HAL2     0.900000E-01   1.00800           0
     11948 MEMB     147      POPS     H6S      HAL2     0.900000E-01   1.00800           0
     11949 MEMB     147      POPS     C27      CTL2    -0.180000       12.0110           0
     11950 MEMB     147      POPS     H7R      HAL2     0.900000E-01   1.00800           0
     11951 MEMB     147      POPS     H7S      HAL2     0.900000E-01   1.00800           0
     11952 MEMB     147      POPS     C28      CTL2    -0.180000       12.0110           0
     11953 MEMB     147      POPS     H8R      HAL2     0.900000E-01   1.00800           0
     11954 MEMB     147      POPS     H8S      HAL2     0.900000E-01   1.00800           0
     11955 MEMB     147      POPS     C29      CEL1    -0.150000       12.0110           0
     11956 MEMB     147      POPS     H91      HEL1     0.150000       1.00800           0
     11957 MEMB     147      POPS     C210     CEL1    -0.150000       12.0110           0
     11958 MEMB     147      POPS     H101     HEL1     0.150000       1.00800           0
     11959 MEMB     147      POPS     C211     CTL2    -0.180000       12.0110           0
     11960 MEMB     147      POPS     H11R     HAL2     0.900000E-01   1.00800           0
     11961 MEMB     147      POPS     H11S     HAL2     0.900000E-01   1.00800           0
     11962 MEMB     147      POPS     C212     CTL2    -0.180000       12.0110           0
     11963 MEMB     147      POPS     H12R     HAL2     0.900000E-01   1.00800           0
     11964 MEMB     147      POPS     H12S     HAL2     0.900000E-01   1.00800           0
     11965 MEMB     147      POPS     C213     CTL2    -0.180000       12.0110           0
     11966 MEMB     147      POPS     H13R     HAL2     0.900000E-01   1.00800           0
     11967 MEMB     147      POPS     H13S     HAL2     0.900000E-01   1.00800           0
     11968 MEMB     147      POPS     C214     CTL2    -0.180000       12.0110           0
     11969 MEMB     147      POPS     H14R     HAL2     0.900000E-01   1.00800           0
     11970 MEMB     147      POPS     H14S     HAL2     0.900000E-01   1.00800           0
     11971 MEMB     147      POPS     C215     CTL2    -0.180000       12.0110           0
     11972 MEMB     147      POPS     H15R     HAL2     0.900000E-01   1.00800           0
     11973 MEMB     147      POPS     H15S     HAL2     0.900000E-01   1.00800           0
     11974 MEMB     147      POPS     C216     CTL2    -0.180000       12.0110           0
     11975 MEMB     147      POPS     H16R     HAL2     0.900000E-01   1.00800           0
     11976 MEMB     147      POPS     H16S     HAL2     0.900000E-01   1.00800           0
     11977 MEMB     147      POPS     C217     CTL2    -0.180000       12.0110           0
     11978 MEMB     147      POPS     H17R     HAL2     0.900000E-01   1.00800           0
     11979 MEMB     147      POPS     H17S     HAL2     0.900000E-01   1.00800           0
     11980 MEMB     147      POPS     C218     CTL3    -0.270000       12.0110           0
     11981 MEMB     147      POPS     H18R     HAL3     0.900000E-01   1.00800           0
     11982 MEMB     147      POPS     H18S     HAL3     0.900000E-01   1.00800           0
     11983 MEMB     147      POPS     H18T     HAL3     0.900000E-01   1.00800           0
     11984 MEMB     147      POPS     C33      CTL2    -0.180000       12.0110           0
     11985 MEMB     147      POPS     H3X      HAL2     0.900000E-01   1.00800           0
     11986 MEMB     147      POPS     H3Y      HAL2     0.900000E-01   1.00800           0
     11987 MEMB     147      POPS     C34      CTL2    -0.180000       12.0110           0
     11988 MEMB     147      POPS     H4X      HAL2     0.900000E-01   1.00800           0
     11989 MEMB     147      POPS     H4Y      HAL2     0.900000E-01   1.00800           0
     11990 MEMB     147      POPS     C35      CTL2    -0.180000       12.0110           0
     11991 MEMB     147      POPS     H5X      HAL2     0.900000E-01   1.00800           0
     11992 MEMB     147      POPS     H5Y      HAL2     0.900000E-01   1.00800           0
     11993 MEMB     147      POPS     C36      CTL2    -0.180000       12.0110           0
     11994 MEMB     147      POPS     H6X      HAL2     0.900000E-01   1.00800           0
     11995 MEMB     147      POPS     H6Y      HAL2     0.900000E-01   1.00800           0
     11996 MEMB     147      POPS     C37      CTL2    -0.180000       12.0110           0
     11997 MEMB     147      POPS     H7X      HAL2     0.900000E-01   1.00800           0
     11998 MEMB     147      POPS     H7Y      HAL2     0.900000E-01   1.00800           0
     11999 MEMB     147      POPS     C38      CTL2    -0.180000       12.0110           0
     12000 MEMB     147      POPS     H8X      HAL2     0.900000E-01   1.00800           0
     12001 MEMB     147      POPS     H8Y      HAL2     0.900000E-01   1.00800           0
     12002 MEMB     147      POPS     C39      CTL2    -0.180000       12.0110           0
     12003 MEMB     147      POPS     H9X      HAL2     0.900000E-01   1.00800           0
     12004 MEMB     147      POPS     H9Y      HAL2     0.900000E-01   1.00800           0
     12005 MEMB     147      POPS     C310     CTL2    -0.180000       12.0110           0
     12006 MEMB     147      POPS     H10X     HAL2     0.900000E-01   1.00800           0
     12007 MEMB     147      POPS     H10Y     HAL2     0.900000E-01   1.00800           0
     12008 MEMB     147      POPS     C311     CTL2    -0.180000       12.0110           0
     12009 MEMB     147      POPS     H11X     HAL2     0.900000E-01   1.00800           0
     12010 MEMB     147      POPS     H11Y     HAL2     0.900000E-01   1.00800           0
     12011 MEMB     147      POPS     C312     CTL2    -0.180000       12.0110           0
     12012 MEMB     147      POPS     H12X     HAL2     0.900000E-01   1.00800           0
     12013 MEMB     147      POPS     H12Y     HAL2     0.900000E-01   1.00800           0
     12014 MEMB     147      POPS     C313     CTL2    -0.180000       12.0110           0
     12015 MEMB     147      POPS     H13X     HAL2     0.900000E-01   1.00800           0
     12016 MEMB     147      POPS     H13Y     HAL2     0.900000E-01   1.00800           0
     12017 MEMB     147      POPS     C314     CTL2    -0.180000       12.0110           0
     12018 MEMB     147      POPS     H14X     HAL2     0.900000E-01   1.00800           0
     12019 MEMB     147      POPS     H14Y     HAL2     0.900000E-01   1.00800           0
     12020 MEMB     147      POPS     C315     CTL2    -0.180000       12.0110           0
     12021 MEMB     147      POPS     H15X     HAL2     0.900000E-01   1.00800           0
     12022 MEMB     147      POPS     H15Y     HAL2     0.900000E-01   1.00800           0
     12023 MEMB     147      POPS     C316     CTL3    -0.270000       12.0110           0
     12024 MEMB     147      POPS     H16X     HAL3     0.900000E-01   1.00800           0
     12025 MEMB     147      POPS     H16Y     HAL3     0.900000E-01   1.00800           0
     12026 MEMB     147      POPS     H16Z     HAL3     0.900000E-01   1.00800           0
     12027 MEMB     154      POPS     N        NH3L    -0.300000       14.0070           0
     12028 MEMB     154      POPS     HN1      HCL      0.330000       1.00800           0
     12029 MEMB     154      POPS     HN2      HCL      0.330000       1.00800           0
     12030 MEMB     154      POPS     HN3      HCL      0.330000       1.00800           0
     12031 MEMB     154      POPS     C12      CTL1     0.210000       12.0110           0
     12032 MEMB     154      POPS     H12A     HBL      0.100000       1.00800           0
     12033 MEMB     154      POPS     C13      CCL      0.340000       12.0110           0
     12034 MEMB     154      POPS     O13A     OCL     -0.670000       15.9994           0
     12035 MEMB     154      POPS     O13B     OCL     -0.670000       15.9994           0
     12036 MEMB     154      POPS     C11      CTL2    -0.800000E-01   12.0110           0
     12037 MEMB     154      POPS     H11A     HAL2     0.900000E-01   1.00800           0
     12038 MEMB     154      POPS     H11B     HAL2     0.900000E-01   1.00800           0
     12039 MEMB     154      POPS     P        PL       1.500000       30.9740           0
     12040 MEMB     154      POPS     O13      O2L     -0.780000       15.9994           0
     12041 MEMB     154      POPS     O14      O2L     -0.780000       15.9994           0
     12042 MEMB     154      POPS     O12      OSLP    -0.570000       15.9994           0
     12043 MEMB     154      POPS     O11      OSLP    -0.570000       15.9994           0
     12044 MEMB     154      POPS     C1       CTL2    -0.800000E-01   12.0110           0
     12045 MEMB     154      POPS     HA       HAL2     0.900000E-01   1.00800           0
     12046 MEMB     154      POPS     HB       HAL2     0.900000E-01   1.00800           0
     12047 MEMB     154      POPS     C2       CTL1     0.170000       12.0110           0
     12048 MEMB     154      POPS     HS       HAL1     0.900000E-01   1.00800           0
     12049 MEMB     154      POPS     O21      OSL     -0.490000       15.9994           0
     12050 MEMB     154      POPS     C21      CL       0.900000       12.0110           0
     12051 MEMB     154      POPS     O22      OBL     -0.630000       15.9994           0
     12052 MEMB     154      POPS     C22      CTL2    -0.220000       12.0110           0
     12053 MEMB     154      POPS     H2R      HAL2     0.900000E-01   1.00800           0
     12054 MEMB     154      POPS     H2S      HAL2     0.900000E-01   1.00800           0
     12055 MEMB     154      POPS     C3       CTL2     0.800000E-01   12.0110           0
     12056 MEMB     154      POPS     HX       HAL2     0.900000E-01   1.00800           0
     12057 MEMB     154      POPS     HY       HAL2     0.900000E-01   1.00800           0
     12058 MEMB     154      POPS     O31      OSL     -0.490000       15.9994           0
     12059 MEMB     154      POPS     C31      CL       0.900000       12.0110           0
     12060 MEMB     154      POPS     O32      OBL     -0.630000       15.9994           0
     12061 MEMB     154      POPS     C32      CTL2    -0.220000       12.0110           0
     12062 MEMB     154      POPS     H2X      HAL2     0.900000E-01   1.00800           0
     12063 MEMB     154      POPS     H2Y      HAL2     0.900000E-01   1.00800           0
     12064 MEMB     154      POPS     C23      CTL2    -0.180000       12.0110           0
     12065 MEMB     154      POPS     H3R      HAL2     0.900000E-01   1.00800           0
     12066 MEMB     154      POPS     H3S      HAL2     0.900000E-01   1.00800           0
     12067 MEMB     154      POPS     C24      CTL2    -0.180000       12.0110           0
     12068 MEMB     154      POPS     H4R      HAL2     0.900000E-01   1.00800           0
     12069 MEMB     154      POPS     H4S      HAL2     0.900000E-01   1.00800           0
     12070 MEMB     154      POPS     C25      CTL2    -0.180000       12.0110           0
     12071 MEMB     154      POPS     H5R      HAL2     0.900000E-01   1.00800           0
     12072 MEMB     154      POPS     H5S      HAL2     0.900000E-01   1.00800           0
     12073 MEMB     154      POPS     C26      CTL2    -0.180000       12.0110           0
     12074 MEMB     154      POPS     H6R      HAL2     0.900000E-01   1.00800           0
     12075 MEMB     154      POPS     H6S      HAL2     0.900000E-01   1.00800           0
     12076 MEMB     154      POPS     C27      CTL2    -0.180000       12.0110           0
     12077 MEMB     154      POPS     H7R      HAL2     0.900000E-01   1.00800           0
     12078 MEMB     154      POPS     H7S      HAL2     0.900000E-01   1.00800           0
     12079 MEMB     154      POPS     C28      CTL2    -0.180000       12.0110           0
     12080 MEMB     154      POPS     H8R      HAL2     0.900000E-01   1.00800           0
     12081 MEMB     154      POPS     H8S      HAL2     0.900000E-01   1.00800           0
     12082 MEMB     154      POPS     C29      CEL1    -0.150000       12.0110           0
     12083 MEMB     154      POPS     H91      HEL1     0.150000       1.00800           0
     12084 MEMB     154      POPS     C210     CEL1    -0.150000       12.0110           0
     12085 MEMB     154      POPS     H101     HEL1     0.150000       1.00800           0
     12086 MEMB     154      POPS     C211     CTL2    -0.180000       12.0110           0
     12087 MEMB     154      POPS     H11R     HAL2     0.900000E-01   1.00800           0
     12088 MEMB     154      POPS     H11S     HAL2     0.900000E-01   1.00800           0
     12089 MEMB     154      POPS     C212     CTL2    -0.180000       12.0110           0
     12090 MEMB     154      POPS     H12R     HAL2     0.900000E-01   1.00800           0
     12091 MEMB     154      POPS     H12S     HAL2     0.900000E-01   1.00800           0
     12092 MEMB     154      POPS     C213     CTL2    -0.180000       12.0110           0
     12093 MEMB     154      POPS     H13R     HAL2     0.900000E-01   1.00800           0
     12094 MEMB     154      POPS     H13S     HAL2     0.900000E-01   1.00800           0
     12095 MEMB     154      POPS     C214     CTL2    -0.180000       12.0110           0
     12096 MEMB     154      POPS     H14R     HAL2     0.900000E-01   1.00800           0
     12097 MEMB     154      POPS     H14S     HAL2     0.900000E-01   1.00800           0
     12098 MEMB     154      POPS     C215     CTL2    -0.180000       12.0110           0
     12099 MEMB     154      POPS     H15R     HAL2     0.900000E-01   1.00800           0
     12100 MEMB     154      POPS     H15S     HAL2     0.900000E-01   1.00800           0
     12101 MEMB     154      POPS     C216     CTL2    -0.180000       12.0110           0
     12102 MEMB     154      POPS     H16R     HAL2     0.900000E-01   1.00800           0
     12103 MEMB     154      POPS     H16S     HAL2     0.900000E-01   1.00800           0
     12104 MEMB     154      POPS     C217     CTL2    -0.180000       12.0110           0
     12105 MEMB     154      POPS     H17R     HAL2     0.900000E-01   1.00800           0
     12106 MEMB     154      POPS     H17S     HAL2     0.900000E-01   1.00800           0
     12107 MEMB     154      POPS     C218     CTL3    -0.270000       12.0110           0
     12108 MEMB     154      POPS     H18R     HAL3     0.900000E-01   1.00800           0
     12109 MEMB     154      POPS     H18S     HAL3     0.900000E-01   1.00800           0
     12110 MEMB     154      POPS     H18T     HAL3     0.900000E-01   1.00800           0
     12111 MEMB     154      POPS     C33      CTL2    -0.180000       12.0110           0
     12112 MEMB     154      POPS     H3X      HAL2     0.900000E-01   1.00800           0
     12113 MEMB     154      POPS     H3Y      HAL2     0.900000E-01   1.00800           0
     12114 MEMB     154      POPS     C34      CTL2    -0.180000       12.0110           0
     12115 MEMB     154      POPS     H4X      HAL2     0.900000E-01   1.00800           0
     12116 MEMB     154      POPS     H4Y      HAL2     0.900000E-01   1.00800           0
     12117 MEMB     154      POPS     C35      CTL2    -0.180000       12.0110           0
     12118 MEMB     154      POPS     H5X      HAL2     0.900000E-01   1.00800           0
     12119 MEMB     154      POPS     H5Y      HAL2     0.900000E-01   1.00800           0
     12120 MEMB     154      POPS     C36      CTL2    -0.180000       12.0110           0
     12121 MEMB     154      POPS     H6X      HAL2     0.900000E-01   1.00800           0
     12122 MEMB     154      POPS     H6Y      HAL2     0.900000E-01   1.00800           0
     12123 MEMB     154      POPS     C37      CTL2    -0.180000       12.0110           0
     12124 MEMB     154      POPS     H7X      HAL2     0.900000E-01   1.00800           0
     12125 MEMB     154      POPS     H7Y      HAL2     0.900000E-01   1.00800           0
     12126 MEMB     154      POPS     C38      CTL2    -0.180000       12.0110           0
     12127 MEMB     154      POPS     H8X      HAL2     0.900000E-01   1.00800           0
     12128 MEMB     154      POPS     H8Y      HAL2     0.900000E-01   1.00800           0
     12129 MEMB     154      POPS     C39      CTL2    -0.180000       12.0110           0
     12130 MEMB     154      POPS     H9X      HAL2     0.900000E-01   1.00800           0
     12131 MEMB     154      POPS     H9Y      HAL2     0.900000E-01   1.00800           0
     12132 MEMB     154      POPS     C310     CTL2    -0.180000       12.0110           0
     12133 MEMB     154      POPS     H10X     HAL2     0.900000E-01   1.00800           0
     12134 MEMB     154      POPS     H10Y     HAL2     0.900000E-01   1.00800           0
     12135 MEMB     154      POPS     C311     CTL2    -0.180000       12.0110           0
     12136 MEMB     154      POPS     H11X     HAL2     0.900000E-01   1.00800           0
     12137 MEMB     154      POPS     H11Y     HAL2     0.900000E-01   1.00800           0
     12138 MEMB     154      POPS     C312     CTL2    -0.180000       12.0110           0
     12139 MEMB     154      POPS     H12X     HAL2     0.900000E-01   1.00800           0
     12140 MEMB     154      POPS     H12Y     HAL2     0.900000E-01   1.00800           0
     12141 MEMB     154      POPS     C313     CTL2    -0.180000       12.0110           0
     12142 MEMB     154      POPS     H13X     HAL2     0.900000E-01   1.00800           0
     12143 MEMB     154      POPS     H13Y     HAL2     0.900000E-01   1.00800           0
     12144 MEMB     154      POPS     C314     CTL2    -0.180000       12.0110           0
     12145 MEMB     154      POPS     H14X     HAL2     0.900000E-01   1.00800           0
     12146 MEMB     154      POPS     H14Y     HAL2     0.900000E-01   1.00800           0
     12147 MEMB     154      POPS     C315     CTL2    -0.180000       12.0110           0
     12148 MEMB     154      POPS     H15X     HAL2     0.900000E-01   1.00800           0
     12149 MEMB     154      POPS     H15Y     HAL2     0.900000E-01   1.00800           0
     12150 MEMB     154      POPS     C316     CTL3    -0.270000       12.0110           0
     12151 MEMB     154      POPS     H16X     HAL3     0.900000E-01   1.00800           0
     12152 MEMB     154      POPS     H16Y     HAL3     0.900000E-01   1.00800           0
     12153 MEMB     154      POPS     H16Z     HAL3     0.900000E-01   1.00800           0
     12154 MEMB     158      POPS     N        NH3L    -0.300000       14.0070           0
     12155 MEMB     158      POPS     HN1      HCL      0.330000       1.00800           0
     12156 MEMB     158      POPS     HN2      HCL      0.330000       1.00800           0
     12157 MEMB     158      POPS     HN3      HCL      0.330000       1.00800           0
     12158 MEMB     158      POPS     C12      CTL1     0.210000       12.0110           0
     12159 MEMB     158      POPS     H12A     HBL      0.100000       1.00800           0
     12160 MEMB     158      POPS     C13      CCL      0.340000       12.0110           0
     12161 MEMB     158      POPS     O13A     OCL     -0.670000       15.9994           0
     12162 MEMB     158      POPS     O13B     OCL     -0.670000       15.9994           0
     12163 MEMB     158      POPS     C11      CTL2    -0.800000E-01   12.0110           0
     12164 MEMB     158      POPS     H11A     HAL2     0.900000E-01   1.00800           0
     12165 MEMB     158      POPS     H11B     HAL2     0.900000E-01   1.00800           0
     12166 MEMB     158      POPS     P        PL       1.500000       30.9740           0
     12167 MEMB     158      POPS     O13      O2L     -0.780000       15.9994           0
     12168 MEMB     158      POPS     O14      O2L     -0.780000       15.9994           0
     12169 MEMB     158      POPS     O12      OSLP    -0.570000       15.9994           0
     12170 MEMB     158      POPS     O11      OSLP    -0.570000       15.9994           0
     12171 MEMB     158      POPS     C1       CTL2    -0.800000E-01   12.0110           0
     12172 MEMB     158      POPS     HA       HAL2     0.900000E-01   1.00800           0
     12173 MEMB     158      POPS     HB       HAL2     0.900000E-01   1.00800           0
     12174 MEMB     158      POPS     C2       CTL1     0.170000       12.0110           0
     12175 MEMB     158      POPS     HS       HAL1     0.900000E-01   1.00800           0
     12176 MEMB     158      POPS     O21      OSL     -0.490000       15.9994           0
     12177 MEMB     158      POPS     C21      CL       0.900000       12.0110           0
     12178 MEMB     158      POPS     O22      OBL     -0.630000       15.9994           0
     12179 MEMB     158      POPS     C22      CTL2    -0.220000       12.0110           0
     12180 MEMB     158      POPS     H2R      HAL2     0.900000E-01   1.00800           0
     12181 MEMB     158      POPS     H2S      HAL2     0.900000E-01   1.00800           0
     12182 MEMB     158      POPS     C3       CTL2     0.800000E-01   12.0110           0
     12183 MEMB     158      POPS     HX       HAL2     0.900000E-01   1.00800           0
     12184 MEMB     158      POPS     HY       HAL2     0.900000E-01   1.00800           0
     12185 MEMB     158      POPS     O31      OSL     -0.490000       15.9994           0
     12186 MEMB     158      POPS     C31      CL       0.900000       12.0110           0
     12187 MEMB     158      POPS     O32      OBL     -0.630000       15.9994           0
     12188 MEMB     158      POPS     C32      CTL2    -0.220000       12.0110           0
     12189 MEMB     158      POPS     H2X      HAL2     0.900000E-01   1.00800           0
     12190 MEMB     158      POPS     H2Y      HAL2     0.900000E-01   1.00800           0
     12191 MEMB     158      POPS     C23      CTL2    -0.180000       12.0110           0
     12192 MEMB     158      POPS     H3R      HAL2     0.900000E-01   1.00800           0
     12193 MEMB     158      POPS     H3S      HAL2     0.900000E-01   1.00800           0
     12194 MEMB     158      POPS     C24      CTL2    -0.180000       12.0110           0
     12195 MEMB     158      POPS     H4R      HAL2     0.900000E-01   1.00800           0
     12196 MEMB     158      POPS     H4S      HAL2     0.900000E-01   1.00800           0
     12197 MEMB     158      POPS     C25      CTL2    -0.180000       12.0110           0
     12198 MEMB     158      POPS     H5R      HAL2     0.900000E-01   1.00800           0
     12199 MEMB     158      POPS     H5S      HAL2     0.900000E-01   1.00800           0
     12200 MEMB     158      POPS     C26      CTL2    -0.180000       12.0110           0
     12201 MEMB     158      POPS     H6R      HAL2     0.900000E-01   1.00800           0
     12202 MEMB     158      POPS     H6S      HAL2     0.900000E-01   1.00800           0
     12203 MEMB     158      POPS     C27      CTL2    -0.180000       12.0110           0
     12204 MEMB     158      POPS     H7R      HAL2     0.900000E-01   1.00800           0
     12205 MEMB     158      POPS     H7S      HAL2     0.900000E-01   1.00800           0
     12206 MEMB     158      POPS     C28      CTL2    -0.180000       12.0110           0
     12207 MEMB     158      POPS     H8R      HAL2     0.900000E-01   1.00800           0
     12208 MEMB     158      POPS     H8S      HAL2     0.900000E-01   1.00800           0
     12209 MEMB     158      POPS     C29      CEL1    -0.150000       12.0110           0
     12210 MEMB     158      POPS     H91      HEL1     0.150000       1.00800           0
     12211 MEMB     158      POPS     C210     CEL1    -0.150000       12.0110           0
     12212 MEMB     158      POPS     H101     HEL1     0.150000       1.00800           0
     12213 MEMB     158      POPS     C211     CTL2    -0.180000       12.0110           0
     12214 MEMB     158      POPS     H11R     HAL2     0.900000E-01   1.00800           0
     12215 MEMB     158      POPS     H11S     HAL2     0.900000E-01   1.00800           0
     12216 MEMB     158      POPS     C212     CTL2    -0.180000       12.0110           0
     12217 MEMB     158      POPS     H12R     HAL2     0.900000E-01   1.00800           0
     12218 MEMB     158      POPS     H12S     HAL2     0.900000E-01   1.00800           0
     12219 MEMB     158      POPS     C213     CTL2    -0.180000       12.0110           0
     12220 MEMB     158      POPS     H13R     HAL2     0.900000E-01   1.00800           0
     12221 MEMB     158      POPS     H13S     HAL2     0.900000E-01   1.00800           0
     12222 MEMB     158      POPS     C214     CTL2    -0.180000       12.0110           0
     12223 MEMB     158      POPS     H14R     HAL2     0.900000E-01   1.00800           0
     12224 MEMB     158      POPS     H14S     HAL2     0.900000E-01   1.00800           0
     12225 MEMB     158      POPS     C215     CTL2    -0.180000       12.0110           0
     12226 MEMB     158      POPS     H15R     HAL2     0.900000E-01   1.00800           0
     12227 MEMB     158      POPS     H15S     HAL2     0.900000E-01   1.00800           0
     12228 MEMB     158      POPS     C216     CTL2    -0.180000       12.0110           0
     12229 MEMB     158      POPS     H16R     HAL2     0.900000E-01   1.00800           0
     12230 MEMB     158      POPS     H16S     HAL2     0.900000E-01   1.00800           0
     12231 MEMB     158      POPS     C217     CTL2    -0.180000       12.0110           0
     12232 MEMB     158      POPS     H17R     HAL2     0.900000E-01   1.00800           0
     12233 MEMB     158      POPS     H17S     HAL2     0.900000E-01   1.00800           0
     12234 MEMB     158      POPS     C218     CTL3    -0.270000       12.0110           0
     12235 MEMB     158      POPS     H18R     HAL3     0.900000E-01   1.00800           0
     12236 MEMB     158      POPS     H18S     HAL3     0.900000E-01   1.00800           0
     12237 MEMB     158      POPS     H18T     HAL3     0.900000E-01   1.00800           0
     12238 MEMB     158      POPS     C33      CTL2    -0.180000       12.0110           0
     12239 MEMB     158      POPS     H3X      HAL2     0.900000E-01   1.00800           0
     12240 MEMB     158      POPS     H3Y      HAL2     0.900000E-01   1.00800           0
     12241 MEMB     158      POPS     C34      CTL2    -0.180000       12.0110           0
     12242 MEMB     158      POPS     H4X      HAL2     0.900000E-01   1.00800           0
     12243 MEMB     158      POPS     H4Y      HAL2     0.900000E-01   1.00800           0
     12244 MEMB     158      POPS     C35      CTL2    -0.180000       12.0110           0
     12245 MEMB     158      POPS     H5X      HAL2     0.900000E-01   1.00800           0
     12246 MEMB     158      POPS     H5Y      HAL2     0.900000E-01   1.00800           0
     12247 MEMB     158      POPS     C36      CTL2    -0.180000       12.0110           0
     12248 MEMB     158      POPS     H6X      HAL2     0.900000E-01   1.00800           0
     12249 MEMB     158      POPS     H6Y      HAL2     0.900000E-01   1.00800           0
     12250 MEMB     158      POPS     C37      CTL2    -0.180000       12.0110           0
     12251 MEMB     158      POPS     H7X      HAL2     0.900000E-01   1.00800           0
     12252 MEMB     158      POPS     H7Y      HAL2     0.900000E-01   1.00800           0
     12253 MEMB     158      POPS     C38      CTL2    -0.180000       12.0110           0
     12254 MEMB     158      POPS     H8X      HAL2     0.900000E-01   1.00800           0
     12255 MEMB     158      POPS     H8Y      HAL2     0.900000E-01   1.00800           0
     12256 MEMB     158      POPS     C39      CTL2    -0.180000       12.0110           0
     12257 MEMB     158      POPS     H9X      HAL2     0.900000E-01   1.00800           0
     12258 MEMB     158      POPS     H9Y      HAL2     0.900000E-01   1.00800           0
     12259 MEMB     158      POPS     C310     CTL2    -0.180000       12.0110           0
     12260 MEMB     158      POPS     H10X     HAL2     0.900000E-01   1.00800           0
     12261 MEMB     158      POPS     H10Y     HAL2     0.900000E-01   1.00800           0
     12262 MEMB     158      POPS     C311     CTL2    -0.180000       12.0110           0
     12263 MEMB     158      POPS     H11X     HAL2     0.900000E-01   1.00800           0
     12264 MEMB     158      POPS     H11Y     HAL2     0.900000E-01   1.00800           0
     12265 MEMB     158      POPS     C312     CTL2    -0.180000       12.0110           0
     12266 MEMB     158      POPS     H12X     HAL2     0.900000E-01   1.00800           0
     12267 MEMB     158      POPS     H12Y     HAL2     0.900000E-01   1.00800           0
     12268 MEMB     158      POPS     C313     CTL2    -0.180000       12.0110           0
     12269 MEMB     158      POPS     H13X     HAL2     0.900000E-01   1.00800           0
     12270 MEMB     158      POPS     H13Y     HAL2     0.900000E-01   1.00800           0
     12271 MEMB     158      POPS     C314     CTL2    -0.180000       12.0110           0
     12272 MEMB     158      POPS     H14X     HAL2     0.900000E-01   1.00800           0
     12273 MEMB     158      POPS     H14Y     HAL2     0.900000E-01   1.00800           0
     12274 MEMB     158      POPS     C315     CTL2    -0.180000       12.0110           0
     12275 MEMB     158      POPS     H15X     HAL2     0.900000E-01   1.00800           0
     12276 MEMB     158      POPS     H15Y     HAL2     0.900000E-01   1.00800           0
     12277 MEMB     158      POPS     C316     CTL3    -0.270000       12.0110           0
     12278 MEMB     158      POPS     H16X     HAL3     0.900000E-01   1.00800           0
     12279 MEMB     158      POPS     H16Y     HAL3     0.900000E-01   1.00800           0
     12280 MEMB     158      POPS     H16Z     HAL3     0.900000E-01   1.00800           0
     12281 MEMB     159      POPS     N        NH3L    -0.300000       14.0070           0
     12282 MEMB     159      POPS     HN1      HCL      0.330000       1.00800           0
     12283 MEMB     159      POPS     HN2      HCL      0.330000       1.00800           0
     12284 MEMB     159      POPS     HN3      HCL      0.330000       1.00800           0
     12285 MEMB     159      POPS     C12      CTL1     0.210000       12.0110           0
     12286 MEMB     159      POPS     H12A     HBL      0.100000       1.00800           0
     12287 MEMB     159      POPS     C13      CCL      0.340000       12.0110           0
     12288 MEMB     159      POPS     O13A     OCL     -0.670000       15.9994           0
     12289 MEMB     159      POPS     O13B     OCL     -0.670000       15.9994           0
     12290 MEMB     159      POPS     C11      CTL2    -0.800000E-01   12.0110           0
     12291 MEMB     159      POPS     H11A     HAL2     0.900000E-01   1.00800           0
     12292 MEMB     159      POPS     H11B     HAL2     0.900000E-01   1.00800           0
     12293 MEMB     159      POPS     P        PL       1.500000       30.9740           0
     12294 MEMB     159      POPS     O13      O2L     -0.780000       15.9994           0
     12295 MEMB     159      POPS     O14      O2L     -0.780000       15.9994           0
     12296 MEMB     159      POPS     O12      OSLP    -0.570000       15.9994           0
     12297 MEMB     159      POPS     O11      OSLP    -0.570000       15.9994           0
     12298 MEMB     159      POPS     C1       CTL2    -0.800000E-01   12.0110           0
     12299 MEMB     159      POPS     HA       HAL2     0.900000E-01   1.00800           0
     12300 MEMB     159      POPS     HB       HAL2     0.900000E-01   1.00800           0
     12301 MEMB     159      POPS     C2       CTL1     0.170000       12.0110           0
     12302 MEMB     159      POPS     HS       HAL1     0.900000E-01   1.00800           0
     12303 MEMB     159      POPS     O21      OSL     -0.490000       15.9994           0
     12304 MEMB     159      POPS     C21      CL       0.900000       12.0110           0
     12305 MEMB     159      POPS     O22      OBL     -0.630000       15.9994           0
     12306 MEMB     159      POPS     C22      CTL2    -0.220000       12.0110           0
     12307 MEMB     159      POPS     H2R      HAL2     0.900000E-01   1.00800           0
     12308 MEMB     159      POPS     H2S      HAL2     0.900000E-01   1.00800           0
     12309 MEMB     159      POPS     C3       CTL2     0.800000E-01   12.0110           0
     12310 MEMB     159      POPS     HX       HAL2     0.900000E-01   1.00800           0
     12311 MEMB     159      POPS     HY       HAL2     0.900000E-01   1.00800           0
     12312 MEMB     159      POPS     O31      OSL     -0.490000       15.9994           0
     12313 MEMB     159      POPS     C31      CL       0.900000       12.0110           0
     12314 MEMB     159      POPS     O32      OBL     -0.630000       15.9994           0
     12315 MEMB     159      POPS     C32      CTL2    -0.220000       12.0110           0
     12316 MEMB     159      POPS     H2X      HAL2     0.900000E-01   1.00800           0
     12317 MEMB     159      POPS     H2Y      HAL2     0.900000E-01   1.00800           0
     12318 MEMB     159      POPS     C23      CTL2    -0.180000       12.0110           0
     12319 MEMB     159      POPS     H3R      HAL2     0.900000E-01   1.00800           0
     12320 MEMB     159      POPS     H3S      HAL2     0.900000E-01   1.00800           0
     12321 MEMB     159      POPS     C24      CTL2    -0.180000       12.0110           0
     12322 MEMB     159      POPS     H4R      HAL2     0.900000E-01   1.00800           0
     12323 MEMB     159      POPS     H4S      HAL2     0.900000E-01   1.00800           0
     12324 MEMB     159      POPS     C25      CTL2    -0.180000       12.0110           0
     12325 MEMB     159      POPS     H5R      HAL2     0.900000E-01   1.00800           0
     12326 MEMB     159      POPS     H5S      HAL2     0.900000E-01   1.00800           0
     12327 MEMB     159      POPS     C26      CTL2    -0.180000       12.0110           0
     12328 MEMB     159      POPS     H6R      HAL2     0.900000E-01   1.00800           0
     12329 MEMB     159      POPS     H6S      HAL2     0.900000E-01   1.00800           0
     12330 MEMB     159      POPS     C27      CTL2    -0.180000       12.0110           0
     12331 MEMB     159      POPS     H7R      HAL2     0.900000E-01   1.00800           0
     12332 MEMB     159      POPS     H7S      HAL2     0.900000E-01   1.00800           0
     12333 MEMB     159      POPS     C28      CTL2    -0.180000       12.0110           0
     12334 MEMB     159      POPS     H8R      HAL2     0.900000E-01   1.00800           0
     12335 MEMB     159      POPS     H8S      HAL2     0.900000E-01   1.00800           0
     12336 MEMB     159      POPS     C29      CEL1    -0.150000       12.0110           0
     12337 MEMB     159      POPS     H91      HEL1     0.150000       1.00800           0
     12338 MEMB     159      POPS     C210     CEL1    -0.150000       12.0110           0
     12339 MEMB     159      POPS     H101     HEL1     0.150000       1.00800           0
     12340 MEMB     159      POPS     C211     CTL2    -0.180000       12.0110           0
     12341 MEMB     159      POPS     H11R     HAL2     0.900000E-01   1.00800           0
     12342 MEMB     159      POPS     H11S     HAL2     0.900000E-01   1.00800           0
     12343 MEMB     159      POPS     C212     CTL2    -0.180000       12.0110           0
     12344 MEMB     159      POPS     H12R     HAL2     0.900000E-01   1.00800           0
     12345 MEMB     159      POPS     H12S     HAL2     0.900000E-01   1.00800           0
     12346 MEMB     159      POPS     C213     CTL2    -0.180000       12.0110           0
     12347 MEMB     159      POPS     H13R     HAL2     0.900000E-01   1.00800           0
     12348 MEMB     159      POPS     H13S     HAL2     0.900000E-01   1.00800           0
     12349 MEMB     159      POPS     C214     CTL2    -0.180000       12.0110           0
     12350 MEMB     159      POPS     H14R     HAL2     0.900000E-01   1.00800           0
     12351 MEMB     159      POPS     H14S     HAL2     0.900000E-01   1.00800           0
     12352 MEMB     159      POPS     C215     CTL2    -0.180000       12.0110           0
     12353 MEMB     159      POPS     H15R     HAL2     0.900000E-01   1.00800           0
     12354 MEMB     159      POPS     H15S     HAL2     0.900000E-01   1.00800           0
     12355 MEMB     159      POPS     C216     CTL2    -0.180000       12.0110           0
     12356 MEMB     159      POPS     H16R     HAL2     0.900000E-01   1.00800           0
     12357 MEMB     159      POPS     H16S     HAL2     0.900000E-01   1.00800           0
     12358 MEMB     159      POPS     C217     CTL2    -0.180000       12.0110           0
     12359 MEMB     159      POPS     H17R     HAL2     0.900000E-01   1.00800           0
     12360 MEMB     159      POPS     H17S     HAL2     0.900000E-01   1.00800           0
     12361 MEMB     159      POPS     C218     CTL3    -0.270000       12.0110           0
     12362 MEMB     159      POPS     H18R     HAL3     0.900000E-01   1.00800           0
     12363 MEMB     159      POPS     H18S     HAL3     0.900000E-01   1.00800           0
     12364 MEMB     159      POPS     H18T     HAL3     0.900000E-01   1.00800           0
     12365 MEMB     159      POPS     C33      CTL2    -0.180000       12.0110           0
     12366 MEMB     159      POPS     H3X      HAL2     0.900000E-01   1.00800           0
     12367 MEMB     159      POPS     H3Y      HAL2     0.900000E-01   1.00800           0
     12368 MEMB     159      POPS     C34      CTL2    -0.180000       12.0110           0
     12369 MEMB     159      POPS     H4X      HAL2     0.900000E-01   1.00800           0
     12370 MEMB     159      POPS     H4Y      HAL2     0.900000E-01   1.00800           0
     12371 MEMB     159      POPS     C35      CTL2    -0.180000       12.0110           0
     12372 MEMB     159      POPS     H5X      HAL2     0.900000E-01   1.00800           0
     12373 MEMB     159      POPS     H5Y      HAL2     0.900000E-01   1.00800           0
     12374 MEMB     159      POPS     C36      CTL2    -0.180000       12.0110           0
     12375 MEMB     159      POPS     H6X      HAL2     0.900000E-01   1.00800           0
     12376 MEMB     159      POPS     H6Y      HAL2     0.900000E-01   1.00800           0
     12377 MEMB     159      POPS     C37      CTL2    -0.180000       12.0110           0
     12378 MEMB     159      POPS     H7X      HAL2     0.900000E-01   1.00800           0
     12379 MEMB     159      POPS     H7Y      HAL2     0.900000E-01   1.00800           0
     12380 MEMB     159      POPS     C38      CTL2    -0.180000       12.0110           0
     12381 MEMB     159      POPS     H8X      HAL2     0.900000E-01   1.00800           0
     12382 MEMB     159      POPS     H8Y      HAL2     0.900000E-01   1.00800           0
     12383 MEMB     159      POPS     C39      CTL2    -0.180000       12.0110           0
     12384 MEMB     159      POPS     H9X      HAL2     0.900000E-01   1.00800           0
     12385 MEMB     159      POPS     H9Y      HAL2     0.900000E-01   1.00800           0
     12386 MEMB     159      POPS     C310     CTL2    -0.180000       12.0110           0
     12387 MEMB     159      POPS     H10X     HAL2     0.900000E-01   1.00800           0
     12388 MEMB     159      POPS     H10Y     HAL2     0.900000E-01   1.00800           0
     12389 MEMB     159      POPS     C311     CTL2    -0.180000       12.0110           0
     12390 MEMB     159      POPS     H11X     HAL2     0.900000E-01   1.00800           0
     12391 MEMB     159      POPS     H11Y     HAL2     0.900000E-01   1.00800           0
     12392 MEMB     159      POPS     C312     CTL2    -0.180000       12.0110           0
     12393 MEMB     159      POPS     H12X     HAL2     0.900000E-01   1.00800           0
     12394 MEMB     159      POPS     H12Y     HAL2     0.900000E-01   1.00800           0
     12395 MEMB     159      POPS     C313     CTL2    -0.180000       12.0110           0
     12396 MEMB     159      POPS     H13X     HAL2     0.900000E-01   1.00800           0
     12397 MEMB     159      POPS     H13Y     HAL2     0.900000E-01   1.00800           0
     12398 MEMB     159      POPS     C314     CTL2    -0.180000       12.0110           0
     12399 MEMB     159      POPS     H14X     HAL2     0.900000E-01   1.00800           0
     12400 MEMB     159      POPS     H14Y     HAL2     0.900000E-01   1.00800           0
     12401 MEMB     159      POPS     C315     CTL2    -0.180000       12.0110           0
     12402 MEMB     159      POPS     H15X     HAL2     0.900000E-01   1.00800           0
     12403 MEMB     159      POPS     H15Y     HAL2     0.900000E-01   1.00800           0
     12404 MEMB     159      POPS     C316     CTL3    -0.270000       12.0110           0
     12405 MEMB     159      POPS     H16X     HAL3     0.900000E-01   1.00800           0
     12406 MEMB     159      POPS     H16Y     HAL3     0.900000E-01   1.00800           0
     12407 MEMB     159      POPS     H16Z     HAL3     0.900000E-01   1.00800           0
     12408 MEMB     165      POPS     N        NH3L    -0.300000       14.0070           0
     12409 MEMB     165      POPS     HN1      HCL      0.330000       1.00800           0
     12410 MEMB     165      POPS     HN2      HCL      0.330000       1.00800           0
     12411 MEMB     165      POPS     HN3      HCL      0.330000       1.00800           0
     12412 MEMB     165      POPS     C12      CTL1     0.210000       12.0110           0
     12413 MEMB     165      POPS     H12A     HBL      0.100000       1.00800           0
     12414 MEMB     165      POPS     C13      CCL      0.340000       12.0110           0
     12415 MEMB     165      POPS     O13A     OCL     -0.670000       15.9994           0
     12416 MEMB     165      POPS     O13B     OCL     -0.670000       15.9994           0
     12417 MEMB     165      POPS     C11      CTL2    -0.800000E-01   12.0110           0
     12418 MEMB     165      POPS     H11A     HAL2     0.900000E-01   1.00800           0
     12419 MEMB     165      POPS     H11B     HAL2     0.900000E-01   1.00800           0
     12420 MEMB     165      POPS     P        PL       1.500000       30.9740           0
     12421 MEMB     165      POPS     O13      O2L     -0.780000       15.9994           0
     12422 MEMB     165      POPS     O14      O2L     -0.780000       15.9994           0
     12423 MEMB     165      POPS     O12      OSLP    -0.570000       15.9994           0
     12424 MEMB     165      POPS     O11      OSLP    -0.570000       15.9994           0
     12425 MEMB     165      POPS     C1       CTL2    -0.800000E-01   12.0110           0
     12426 MEMB     165      POPS     HA       HAL2     0.900000E-01   1.00800           0
     12427 MEMB     165      POPS     HB       HAL2     0.900000E-01   1.00800           0
     12428 MEMB     165      POPS     C2       CTL1     0.170000       12.0110           0
     12429 MEMB     165      POPS     HS       HAL1     0.900000E-01   1.00800           0
     12430 MEMB     165      POPS     O21      OSL     -0.490000       15.9994           0
     12431 MEMB     165      POPS     C21      CL       0.900000       12.0110           0
     12432 MEMB     165      POPS     O22      OBL     -0.630000       15.9994           0
     12433 MEMB     165      POPS     C22      CTL2    -0.220000       12.0110           0
     12434 MEMB     165      POPS     H2R      HAL2     0.900000E-01   1.00800           0
     12435 MEMB     165      POPS     H2S      HAL2     0.900000E-01   1.00800           0
     12436 MEMB     165      POPS     C3       CTL2     0.800000E-01   12.0110           0
     12437 MEMB     165      POPS     HX       HAL2     0.900000E-01   1.00800           0
     12438 MEMB     165      POPS     HY       HAL2     0.900000E-01   1.00800           0
     12439 MEMB     165      POPS     O31      OSL     -0.490000       15.9994           0
     12440 MEMB     165      POPS     C31      CL       0.900000       12.0110           0
     12441 MEMB     165      POPS     O32      OBL     -0.630000       15.9994           0
     12442 MEMB     165      POPS     C32      CTL2    -0.220000       12.0110           0
     12443 MEMB     165      POPS     H2X      HAL2     0.900000E-01   1.00800           0
     12444 MEMB     165      POPS     H2Y      HAL2     0.900000E-01   1.00800           0
     12445 MEMB     165      POPS     C23      CTL2    -0.180000       12.0110           0
     12446 MEMB     165      POPS     H3R      HAL2     0.900000E-01   1.00800           0
     12447 MEMB     165      POPS     H3S      HAL2     0.900000E-01   1.00800           0
     12448 MEMB     165      POPS     C24      CTL2    -0.180000       12.0110           0
     12449 MEMB     165      POPS     H4R      HAL2     0.900000E-01   1.00800           0
     12450 MEMB     165      POPS     H4S      HAL2     0.900000E-01   1.00800           0
     12451 MEMB     165      POPS     C25      CTL2    -0.180000       12.0110           0
     12452 MEMB     165      POPS     H5R      HAL2     0.900000E-01   1.00800           0
     12453 MEMB     165      POPS     H5S      HAL2     0.900000E-01   1.00800           0
     12454 MEMB     165      POPS     C26      CTL2    -0.180000       12.0110           0
     12455 MEMB     165      POPS     H6R      HAL2     0.900000E-01   1.00800           0
     12456 MEMB     165      POPS     H6S      HAL2     0.900000E-01   1.00800           0
     12457 MEMB     165      POPS     C27      CTL2    -0.180000       12.0110           0
     12458 MEMB     165      POPS     H7R      HAL2     0.900000E-01   1.00800           0
     12459 MEMB     165      POPS     H7S      HAL2     0.900000E-01   1.00800           0
     12460 MEMB     165      POPS     C28      CTL2    -0.180000       12.0110           0
     12461 MEMB     165      POPS     H8R      HAL2     0.900000E-01   1.00800           0
     12462 MEMB     165      POPS     H8S      HAL2     0.900000E-01   1.00800           0
     12463 MEMB     165      POPS     C29      CEL1    -0.150000       12.0110           0
     12464 MEMB     165      POPS     H91      HEL1     0.150000       1.00800           0
     12465 MEMB     165      POPS     C210     CEL1    -0.150000       12.0110           0
     12466 MEMB     165      POPS     H101     HEL1     0.150000       1.00800           0
     12467 MEMB     165      POPS     C211     CTL2    -0.180000       12.0110           0
     12468 MEMB     165      POPS     H11R     HAL2     0.900000E-01   1.00800           0
     12469 MEMB     165      POPS     H11S     HAL2     0.900000E-01   1.00800           0
     12470 MEMB     165      POPS     C212     CTL2    -0.180000       12.0110           0
     12471 MEMB     165      POPS     H12R     HAL2     0.900000E-01   1.00800           0
     12472 MEMB     165      POPS     H12S     HAL2     0.900000E-01   1.00800           0
     12473 MEMB     165      POPS     C213     CTL2    -0.180000       12.0110           0
     12474 MEMB     165      POPS     H13R     HAL2     0.900000E-01   1.00800           0
     12475 MEMB     165      POPS     H13S     HAL2     0.900000E-01   1.00800           0
     12476 MEMB     165      POPS     C214     CTL2    -0.180000       12.0110           0
     12477 MEMB     165      POPS     H14R     HAL2     0.900000E-01   1.00800           0
     12478 MEMB     165      POPS     H14S     HAL2     0.900000E-01   1.00800           0
     12479 MEMB     165      POPS     C215     CTL2    -0.180000       12.0110           0
     12480 MEMB     165      POPS     H15R     HAL2     0.900000E-01   1.00800           0
     12481 MEMB     165      POPS     H15S     HAL2     0.900000E-01   1.00800           0
     12482 MEMB     165      POPS     C216     CTL2    -0.180000       12.0110           0
     12483 MEMB     165      POPS     H16R     HAL2     0.900000E-01   1.00800           0
     12484 MEMB     165      POPS     H16S     HAL2     0.900000E-01   1.00800           0
     12485 MEMB     165      POPS     C217     CTL2    -0.180000       12.0110           0
     12486 MEMB     165      POPS     H17R     HAL2     0.900000E-01   1.00800           0
     12487 MEMB     165      POPS     H17S     HAL2     0.900000E-01   1.00800           0
     12488 MEMB     165      POPS     C218     CTL3    -0.270000       12.0110           0
     12489 MEMB     165      POPS     H18R     HAL3     0.900000E-01   1.00800           0
     12490 MEMB     165      POPS     H18S     HAL3     0.900000E-01   1.00800           0
     12491 MEMB     165      POPS     H18T     HAL3     0.900000E-01   1.00800           0
     12492 MEMB     165      POPS     C33      CTL2    -0.180000       12.0110           0
     12493 MEMB     165      POPS     H3X      HAL2     0.900000E-01   1.00800           0
     12494 MEMB     165      POPS     H3Y      HAL2     0.900000E-01   1.00800           0
     12495 MEMB     165      POPS     C34      CTL2    -0.180000       12.0110           0
     12496 MEMB     165      POPS     H4X      HAL2     0.900000E-01   1.00800           0
     12497 MEMB     165      POPS     H4Y      HAL2     0.900000E-01   1.00800           0
     12498 MEMB     165      POPS     C35      CTL2    -0.180000       12.0110           0
     12499 MEMB     165      POPS     H5X      HAL2     0.900000E-01   1.00800           0
     12500 MEMB     165      POPS     H5Y      HAL2     0.900000E-01   1.00800           0
     12501 MEMB     165      POPS     C36      CTL2    -0.180000       12.0110           0
     12502 MEMB     165      POPS     H6X      HAL2     0.900000E-01   1.00800           0
     12503 MEMB     165      POPS     H6Y      HAL2     0.900000E-01   1.00800           0
     12504 MEMB     165      POPS     C37      CTL2    -0.180000       12.0110           0
     12505 MEMB     165      POPS     H7X      HAL2     0.900000E-01   1.00800           0
     12506 MEMB     165      POPS     H7Y      HAL2     0.900000E-01   1.00800           0
     12507 MEMB     165      POPS     C38      CTL2    -0.180000       12.0110           0
     12508 MEMB     165      POPS     H8X      HAL2     0.900000E-01   1.00800           0
     12509 MEMB     165      POPS     H8Y      HAL2     0.900000E-01   1.00800           0
     12510 MEMB     165      POPS     C39      CTL2    -0.180000       12.0110           0
     12511 MEMB     165      POPS     H9X      HAL2     0.900000E-01   1.00800           0
     12512 MEMB     165      POPS     H9Y      HAL2     0.900000E-01   1.00800           0
     12513 MEMB     165      POPS     C310     CTL2    -0.180000       12.0110           0
     12514 MEMB     165      POPS     H10X     HAL2     0.900000E-01   1.00800           0
     12515 MEMB     165      POPS     H10Y     HAL2     0.900000E-01   1.00800           0
     12516 MEMB     165      POPS     C311     CTL2    -0.180000       12.0110           0
     12517 MEMB     165      POPS     H11X     HAL2     0.900000E-01   1.00800           0
     12518 MEMB     165      POPS     H11Y     HAL2     0.900000E-01   1.00800           0
     12519 MEMB     165      POPS     C312     CTL2    -0.180000       12.0110           0
     12520 MEMB     165      POPS     H12X     HAL2     0.900000E-01   1.00800           0
     12521 MEMB     165      POPS     H12Y     HAL2     0.900000E-01   1.00800           0
     12522 MEMB     165      POPS     C313     CTL2    -0.180000       12.0110           0
     12523 MEMB     165      POPS     H13X     HAL2     0.900000E-01   1.00800           0
     12524 MEMB     165      POPS     H13Y     HAL2     0.900000E-01   1.00800           0
     12525 MEMB     165      POPS     C314     CTL2    -0.180000       12.0110           0
     12526 MEMB     165      POPS     H14X     HAL2     0.900000E-01   1.00800           0
     12527 MEMB     165      POPS     H14Y     HAL2     0.900000E-01   1.00800           0
     12528 MEMB     165      POPS     C315     CTL2    -0.180000       12.0110           0
     12529 MEMB     165      POPS     H15X     HAL2     0.900000E-01   1.00800           0
     12530 MEMB     165      POPS     H15Y     HAL2     0.900000E-01   1.00800           0
     12531 MEMB     165      POPS     C316     CTL3    -0.270000       12.0110           0
     12532 MEMB     165      POPS     H16X     HAL3     0.900000E-01   1.00800           0
     12533 MEMB     165      POPS     H16Y     HAL3     0.900000E-01   1.00800           0
     12534 MEMB     165      POPS     H16Z     HAL3     0.900000E-01   1.00800           0
     12535 MEMB     167      POPS     N        NH3L    -0.300000       14.0070           0
     12536 MEMB     167      POPS     HN1      HCL      0.330000       1.00800           0
     12537 MEMB     167      POPS     HN2      HCL      0.330000       1.00800           0
     12538 MEMB     167      POPS     HN3      HCL      0.330000       1.00800           0
     12539 MEMB     167      POPS     C12      CTL1     0.210000       12.0110           0
     12540 MEMB     167      POPS     H12A     HBL      0.100000       1.00800           0
     12541 MEMB     167      POPS     C13      CCL      0.340000       12.0110           0
     12542 MEMB     167      POPS     O13A     OCL     -0.670000       15.9994           0
     12543 MEMB     167      POPS     O13B     OCL     -0.670000       15.9994           0
     12544 MEMB     167      POPS     C11      CTL2    -0.800000E-01   12.0110           0
     12545 MEMB     167      POPS     H11A     HAL2     0.900000E-01   1.00800           0
     12546 MEMB     167      POPS     H11B     HAL2     0.900000E-01   1.00800           0
     12547 MEMB     167      POPS     P        PL       1.500000       30.9740           0
     12548 MEMB     167      POPS     O13      O2L     -0.780000       15.9994           0
     12549 MEMB     167      POPS     O14      O2L     -0.780000       15.9994           0
     12550 MEMB     167      POPS     O12      OSLP    -0.570000       15.9994           0
     12551 MEMB     167      POPS     O11      OSLP    -0.570000       15.9994           0
     12552 MEMB     167      POPS     C1       CTL2    -0.800000E-01   12.0110           0
     12553 MEMB     167      POPS     HA       HAL2     0.900000E-01   1.00800           0
     12554 MEMB     167      POPS     HB       HAL2     0.900000E-01   1.00800           0
     12555 MEMB     167      POPS     C2       CTL1     0.170000       12.0110           0
     12556 MEMB     167      POPS     HS       HAL1     0.900000E-01   1.00800           0
     12557 MEMB     167      POPS     O21      OSL     -0.490000       15.9994           0
     12558 MEMB     167      POPS     C21      CL       0.900000       12.0110           0
     12559 MEMB     167      POPS     O22      OBL     -0.630000       15.9994           0
     12560 MEMB     167      POPS     C22      CTL2    -0.220000       12.0110           0
     12561 MEMB     167      POPS     H2R      HAL2     0.900000E-01   1.00800           0
     12562 MEMB     167      POPS     H2S      HAL2     0.900000E-01   1.00800           0
     12563 MEMB     167      POPS     C3       CTL2     0.800000E-01   12.0110           0
     12564 MEMB     167      POPS     HX       HAL2     0.900000E-01   1.00800           0
     12565 MEMB     167      POPS     HY       HAL2     0.900000E-01   1.00800           0
     12566 MEMB     167      POPS     O31      OSL     -0.490000       15.9994           0
     12567 MEMB     167      POPS     C31      CL       0.900000       12.0110           0
     12568 MEMB     167      POPS     O32      OBL     -0.630000       15.9994           0
     12569 MEMB     167      POPS     C32      CTL2    -0.220000       12.0110           0
     12570 MEMB     167      POPS     H2X      HAL2     0.900000E-01   1.00800           0
     12571 MEMB     167      POPS     H2Y      HAL2     0.900000E-01   1.00800           0
     12572 MEMB     167      POPS     C23      CTL2    -0.180000       12.0110           0
     12573 MEMB     167      POPS     H3R      HAL2     0.900000E-01   1.00800           0
     12574 MEMB     167      POPS     H3S      HAL2     0.900000E-01   1.00800           0
     12575 MEMB     167      POPS     C24      CTL2    -0.180000       12.0110           0
     12576 MEMB     167      POPS     H4R      HAL2     0.900000E-01   1.00800           0
     12577 MEMB     167      POPS     H4S      HAL2     0.900000E-01   1.00800           0
     12578 MEMB     167      POPS     C25      CTL2    -0.180000       12.0110           0
     12579 MEMB     167      POPS     H5R      HAL2     0.900000E-01   1.00800           0
     12580 MEMB     167      POPS     H5S      HAL2     0.900000E-01   1.00800           0
     12581 MEMB     167      POPS     C26      CTL2    -0.180000       12.0110           0
     12582 MEMB     167      POPS     H6R      HAL2     0.900000E-01   1.00800           0
     12583 MEMB     167      POPS     H6S      HAL2     0.900000E-01   1.00800           0
     12584 MEMB     167      POPS     C27      CTL2    -0.180000       12.0110           0
     12585 MEMB     167      POPS     H7R      HAL2     0.900000E-01   1.00800           0
     12586 MEMB     167      POPS     H7S      HAL2     0.900000E-01   1.00800           0
     12587 MEMB     167      POPS     C28      CTL2    -0.180000       12.0110           0
     12588 MEMB     167      POPS     H8R      HAL2     0.900000E-01   1.00800           0
     12589 MEMB     167      POPS     H8S      HAL2     0.900000E-01   1.00800           0
     12590 MEMB     167      POPS     C29      CEL1    -0.150000       12.0110           0
     12591 MEMB     167      POPS     H91      HEL1     0.150000       1.00800           0
     12592 MEMB     167      POPS     C210     CEL1    -0.150000       12.0110           0
     12593 MEMB     167      POPS     H101     HEL1     0.150000       1.00800           0
     12594 MEMB     167      POPS     C211     CTL2    -0.180000       12.0110           0
     12595 MEMB     167      POPS     H11R     HAL2     0.900000E-01   1.00800           0
     12596 MEMB     167      POPS     H11S     HAL2     0.900000E-01   1.00800           0
     12597 MEMB     167      POPS     C212     CTL2    -0.180000       12.0110           0
     12598 MEMB     167      POPS     H12R     HAL2     0.900000E-01   1.00800           0
     12599 MEMB     167      POPS     H12S     HAL2     0.900000E-01   1.00800           0
     12600 MEMB     167      POPS     C213     CTL2    -0.180000       12.0110           0
     12601 MEMB     167      POPS     H13R     HAL2     0.900000E-01   1.00800           0
     12602 MEMB     167      POPS     H13S     HAL2     0.900000E-01   1.00800           0
     12603 MEMB     167      POPS     C214     CTL2    -0.180000       12.0110           0
     12604 MEMB     167      POPS     H14R     HAL2     0.900000E-01   1.00800           0
     12605 MEMB     167      POPS     H14S     HAL2     0.900000E-01   1.00800           0
     12606 MEMB     167      POPS     C215     CTL2    -0.180000       12.0110           0
     12607 MEMB     167      POPS     H15R     HAL2     0.900000E-01   1.00800           0
     12608 MEMB     167      POPS     H15S     HAL2     0.900000E-01   1.00800           0
     12609 MEMB     167      POPS     C216     CTL2    -0.180000       12.0110           0
     12610 MEMB     167      POPS     H16R     HAL2     0.900000E-01   1.00800           0
     12611 MEMB     167      POPS     H16S     HAL2     0.900000E-01   1.00800           0
     12612 MEMB     167      POPS     C217     CTL2    -0.180000       12.0110           0
     12613 MEMB     167      POPS     H17R     HAL2     0.900000E-01   1.00800           0
     12614 MEMB     167      POPS     H17S     HAL2     0.900000E-01   1.00800           0
     12615 MEMB     167      POPS     C218     CTL3    -0.270000       12.0110           0
     12616 MEMB     167      POPS     H18R     HAL3     0.900000E-01   1.00800           0
     12617 MEMB     167      POPS     H18S     HAL3     0.900000E-01   1.00800           0
     12618 MEMB     167      POPS     H18T     HAL3     0.900000E-01   1.00800           0
     12619 MEMB     167      POPS     C33      CTL2    -0.180000       12.0110           0
     12620 MEMB     167      POPS     H3X      HAL2     0.900000E-01   1.00800           0
     12621 MEMB     167      POPS     H3Y      HAL2     0.900000E-01   1.00800           0
     12622 MEMB     167      POPS     C34      CTL2    -0.180000       12.0110           0
     12623 MEMB     167      POPS     H4X      HAL2     0.900000E-01   1.00800           0
     12624 MEMB     167      POPS     H4Y      HAL2     0.900000E-01   1.00800           0
     12625 MEMB     167      POPS     C35      CTL2    -0.180000       12.0110           0
     12626 MEMB     167      POPS     H5X      HAL2     0.900000E-01   1.00800           0
     12627 MEMB     167      POPS     H5Y      HAL2     0.900000E-01   1.00800           0
     12628 MEMB     167      POPS     C36      CTL2    -0.180000       12.0110           0
     12629 MEMB     167      POPS     H6X      HAL2     0.900000E-01   1.00800           0
     12630 MEMB     167      POPS     H6Y      HAL2     0.900000E-01   1.00800           0
     12631 MEMB     167      POPS     C37      CTL2    -0.180000       12.0110           0
     12632 MEMB     167      POPS     H7X      HAL2     0.900000E-01   1.00800           0
     12633 MEMB     167      POPS     H7Y      HAL2     0.900000E-01   1.00800           0
     12634 MEMB     167      POPS     C38      CTL2    -0.180000       12.0110           0
     12635 MEMB     167      POPS     H8X      HAL2     0.900000E-01   1.00800           0
     12636 MEMB     167      POPS     H8Y      HAL2     0.900000E-01   1.00800           0
     12637 MEMB     167      POPS     C39      CTL2    -0.180000       12.0110           0
     12638 MEMB     167      POPS     H9X      HAL2     0.900000E-01   1.00800           0
     12639 MEMB     167      POPS     H9Y      HAL2     0.900000E-01   1.00800           0
     12640 MEMB     167      POPS     C310     CTL2    -0.180000       12.0110           0
     12641 MEMB     167      POPS     H10X     HAL2     0.900000E-01   1.00800           0
     12642 MEMB     167      POPS     H10Y     HAL2     0.900000E-01   1.00800           0
     12643 MEMB     167      POPS     C311     CTL2    -0.180000       12.0110           0
     12644 MEMB     167      POPS     H11X     HAL2     0.900000E-01   1.00800           0
     12645 MEMB     167      POPS     H11Y     HAL2     0.900000E-01   1.00800           0
     12646 MEMB     167      POPS     C312     CTL2    -0.180000       12.0110           0
     12647 MEMB     167      POPS     H12X     HAL2     0.900000E-01   1.00800           0
     12648 MEMB     167      POPS     H12Y     HAL2     0.900000E-01   1.00800           0
     12649 MEMB     167      POPS     C313     CTL2    -0.180000       12.0110           0
     12650 MEMB     167      POPS     H13X     HAL2     0.900000E-01   1.00800           0
     12651 MEMB     167      POPS     H13Y     HAL2     0.900000E-01   1.00800           0
     12652 MEMB     167      POPS     C314     CTL2    -0.180000       12.0110           0
     12653 MEMB     167      POPS     H14X     HAL2     0.900000E-01   1.00800           0
     12654 MEMB     167      POPS     H14Y     HAL2     0.900000E-01   1.00800           0
     12655 MEMB     167      POPS     C315     CTL2    -0.180000       12.0110           0
     12656 MEMB     167      POPS     H15X     HAL2     0.900000E-01   1.00800           0
     12657 MEMB     167      POPS     H15Y     HAL2     0.900000E-01   1.00800           0
     12658 MEMB     167      POPS     C316     CTL3    -0.270000       12.0110           0
     12659 MEMB     167      POPS     H16X     HAL3     0.900000E-01   1.00800           0
     12660 MEMB     167      POPS     H16Y     HAL3     0.900000E-01   1.00800           0
     12661 MEMB     167      POPS     H16Z     HAL3     0.900000E-01   1.00800           0
     12662 MEMB     168      POPS     N        NH3L    -0.300000       14.0070           0
     12663 MEMB     168      POPS     HN1      HCL      0.330000       1.00800           0
     12664 MEMB     168      POPS     HN2      HCL      0.330000       1.00800           0
     12665 MEMB     168      POPS     HN3      HCL      0.330000       1.00800           0
     12666 MEMB     168      POPS     C12      CTL1     0.210000       12.0110           0
     12667 MEMB     168      POPS     H12A     HBL      0.100000       1.00800           0
     12668 MEMB     168      POPS     C13      CCL      0.340000       12.0110           0
     12669 MEMB     168      POPS     O13A     OCL     -0.670000       15.9994           0
     12670 MEMB     168      POPS     O13B     OCL     -0.670000       15.9994           0
     12671 MEMB     168      POPS     C11      CTL2    -0.800000E-01   12.0110           0
     12672 MEMB     168      POPS     H11A     HAL2     0.900000E-01   1.00800           0
     12673 MEMB     168      POPS     H11B     HAL2     0.900000E-01   1.00800           0
     12674 MEMB     168      POPS     P        PL       1.500000       30.9740           0
     12675 MEMB     168      POPS     O13      O2L     -0.780000       15.9994           0
     12676 MEMB     168      POPS     O14      O2L     -0.780000       15.9994           0
     12677 MEMB     168      POPS     O12      OSLP    -0.570000       15.9994           0
     12678 MEMB     168      POPS     O11      OSLP    -0.570000       15.9994           0
     12679 MEMB     168      POPS     C1       CTL2    -0.800000E-01   12.0110           0
     12680 MEMB     168      POPS     HA       HAL2     0.900000E-01   1.00800           0
     12681 MEMB     168      POPS     HB       HAL2     0.900000E-01   1.00800           0
     12682 MEMB     168      POPS     C2       CTL1     0.170000       12.0110           0
     12683 MEMB     168      POPS     HS       HAL1     0.900000E-01   1.00800           0
     12684 MEMB     168      POPS     O21      OSL     -0.490000       15.9994           0
     12685 MEMB     168      POPS     C21      CL       0.900000       12.0110           0
     12686 MEMB     168      POPS     O22      OBL     -0.630000       15.9994           0
     12687 MEMB     168      POPS     C22      CTL2    -0.220000       12.0110           0
     12688 MEMB     168      POPS     H2R      HAL2     0.900000E-01   1.00800           0
     12689 MEMB     168      POPS     H2S      HAL2     0.900000E-01   1.00800           0
     12690 MEMB     168      POPS     C3       CTL2     0.800000E-01   12.0110           0
     12691 MEMB     168      POPS     HX       HAL2     0.900000E-01   1.00800           0
     12692 MEMB     168      POPS     HY       HAL2     0.900000E-01   1.00800           0
     12693 MEMB     168      POPS     O31      OSL     -0.490000       15.9994           0
     12694 MEMB     168      POPS     C31      CL       0.900000       12.0110           0
     12695 MEMB     168      POPS     O32      OBL     -0.630000       15.9994           0
     12696 MEMB     168      POPS     C32      CTL2    -0.220000       12.0110           0
     12697 MEMB     168      POPS     H2X      HAL2     0.900000E-01   1.00800           0
     12698 MEMB     168      POPS     H2Y      HAL2     0.900000E-01   1.00800           0
     12699 MEMB     168      POPS     C23      CTL2    -0.180000       12.0110           0
     12700 MEMB     168      POPS     H3R      HAL2     0.900000E-01   1.00800           0
     12701 MEMB     168      POPS     H3S      HAL2     0.900000E-01   1.00800           0
     12702 MEMB     168      POPS     C24      CTL2    -0.180000       12.0110           0
     12703 MEMB     168      POPS     H4R      HAL2     0.900000E-01   1.00800           0
     12704 MEMB     168      POPS     H4S      HAL2     0.900000E-01   1.00800           0
     12705 MEMB     168      POPS     C25      CTL2    -0.180000       12.0110           0
     12706 MEMB     168      POPS     H5R      HAL2     0.900000E-01   1.00800           0
     12707 MEMB     168      POPS     H5S      HAL2     0.900000E-01   1.00800           0
     12708 MEMB     168      POPS     C26      CTL2    -0.180000       12.0110           0
     12709 MEMB     168      POPS     H6R      HAL2     0.900000E-01   1.00800           0
     12710 MEMB     168      POPS     H6S      HAL2     0.900000E-01   1.00800           0
     12711 MEMB     168      POPS     C27      CTL2    -0.180000       12.0110           0
     12712 MEMB     168      POPS     H7R      HAL2     0.900000E-01   1.00800           0
     12713 MEMB     168      POPS     H7S      HAL2     0.900000E-01   1.00800           0
     12714 MEMB     168      POPS     C28      CTL2    -0.180000       12.0110           0
     12715 MEMB     168      POPS     H8R      HAL2     0.900000E-01   1.00800           0
     12716 MEMB     168      POPS     H8S      HAL2     0.900000E-01   1.00800           0
     12717 MEMB     168      POPS     C29      CEL1    -0.150000       12.0110           0
     12718 MEMB     168      POPS     H91      HEL1     0.150000       1.00800           0
     12719 MEMB     168      POPS     C210     CEL1    -0.150000       12.0110           0
     12720 MEMB     168      POPS     H101     HEL1     0.150000       1.00800           0
     12721 MEMB     168      POPS     C211     CTL2    -0.180000       12.0110           0
     12722 MEMB     168      POPS     H11R     HAL2     0.900000E-01   1.00800           0
     12723 MEMB     168      POPS     H11S     HAL2     0.900000E-01   1.00800           0
     12724 MEMB     168      POPS     C212     CTL2    -0.180000       12.0110           0
     12725 MEMB     168      POPS     H12R     HAL2     0.900000E-01   1.00800           0
     12726 MEMB     168      POPS     H12S     HAL2     0.900000E-01   1.00800           0
     12727 MEMB     168      POPS     C213     CTL2    -0.180000       12.0110           0
     12728 MEMB     168      POPS     H13R     HAL2     0.900000E-01   1.00800           0
     12729 MEMB     168      POPS     H13S     HAL2     0.900000E-01   1.00800           0
     12730 MEMB     168      POPS     C214     CTL2    -0.180000       12.0110           0
     12731 MEMB     168      POPS     H14R     HAL2     0.900000E-01   1.00800           0
     12732 MEMB     168      POPS     H14S     HAL2     0.900000E-01   1.00800           0
     12733 MEMB     168      POPS     C215     CTL2    -0.180000       12.0110           0
     12734 MEMB     168      POPS     H15R     HAL2     0.900000E-01   1.00800           0
     12735 MEMB     168      POPS     H15S     HAL2     0.900000E-01   1.00800           0
     12736 MEMB     168      POPS     C216     CTL2    -0.180000       12.0110           0
     12737 MEMB     168      POPS     H16R     HAL2     0.900000E-01   1.00800           0
     12738 MEMB     168      POPS     H16S     HAL2     0.900000E-01   1.00800           0
     12739 MEMB     168      POPS     C217     CTL2    -0.180000       12.0110           0
     12740 MEMB     168      POPS     H17R     HAL2     0.900000E-01   1.00800           0
     12741 MEMB     168      POPS     H17S     HAL2     0.900000E-01   1.00800           0
     12742 MEMB     168      POPS     C218     CTL3    -0.270000       12.0110           0
     12743 MEMB     168      POPS     H18R     HAL3     0.900000E-01   1.00800           0
     12744 MEMB     168      POPS     H18S     HAL3     0.900000E-01   1.00800           0
     12745 MEMB     168      POPS     H18T     HAL3     0.900000E-01   1.00800           0
     12746 MEMB     168      POPS     C33      CTL2    -0.180000       12.0110           0
     12747 MEMB     168      POPS     H3X      HAL2     0.900000E-01   1.00800           0
     12748 MEMB     168      POPS     H3Y      HAL2     0.900000E-01   1.00800           0
     12749 MEMB     168      POPS     C34      CTL2    -0.180000       12.0110           0
     12750 MEMB     168      POPS     H4X      HAL2     0.900000E-01   1.00800           0
     12751 MEMB     168      POPS     H4Y      HAL2     0.900000E-01   1.00800           0
     12752 MEMB     168      POPS     C35      CTL2    -0.180000       12.0110           0
     12753 MEMB     168      POPS     H5X      HAL2     0.900000E-01   1.00800           0
     12754 MEMB     168      POPS     H5Y      HAL2     0.900000E-01   1.00800           0
     12755 MEMB     168      POPS     C36      CTL2    -0.180000       12.0110           0
     12756 MEMB     168      POPS     H6X      HAL2     0.900000E-01   1.00800           0
     12757 MEMB     168      POPS     H6Y      HAL2     0.900000E-01   1.00800           0
     12758 MEMB     168      POPS     C37      CTL2    -0.180000       12.0110           0
     12759 MEMB     168      POPS     H7X      HAL2     0.900000E-01   1.00800           0
     12760 MEMB     168      POPS     H7Y      HAL2     0.900000E-01   1.00800           0
     12761 MEMB     168      POPS     C38      CTL2    -0.180000       12.0110           0
     12762 MEMB     168      POPS     H8X      HAL2     0.900000E-01   1.00800           0
     12763 MEMB     168      POPS     H8Y      HAL2     0.900000E-01   1.00800           0
     12764 MEMB     168      POPS     C39      CTL2    -0.180000       12.0110           0
     12765 MEMB     168      POPS     H9X      HAL2     0.900000E-01   1.00800           0
     12766 MEMB     168      POPS     H9Y      HAL2     0.900000E-01   1.00800           0
     12767 MEMB     168      POPS     C310     CTL2    -0.180000       12.0110           0
     12768 MEMB     168      POPS     H10X     HAL2     0.900000E-01   1.00800           0
     12769 MEMB     168      POPS     H10Y     HAL2     0.900000E-01   1.00800           0
     12770 MEMB     168      POPS     C311     CTL2    -0.180000       12.0110           0
     12771 MEMB     168      POPS     H11X     HAL2     0.900000E-01   1.00800           0
     12772 MEMB     168      POPS     H11Y     HAL2     0.900000E-01   1.00800           0
     12773 MEMB     168      POPS     C312     CTL2    -0.180000       12.0110           0
     12774 MEMB     168      POPS     H12X     HAL2     0.900000E-01   1.00800           0
     12775 MEMB     168      POPS     H12Y     HAL2     0.900000E-01   1.00800           0
     12776 MEMB     168      POPS     C313     CTL2    -0.180000       12.0110           0
     12777 MEMB     168      POPS     H13X     HAL2     0.900000E-01   1.00800           0
     12778 MEMB     168      POPS     H13Y     HAL2     0.900000E-01   1.00800           0
     12779 MEMB     168      POPS     C314     CTL2    -0.180000       12.0110           0
     12780 MEMB     168      POPS     H14X     HAL2     0.900000E-01   1.00800           0
     12781 MEMB     168      POPS     H14Y     HAL2     0.900000E-01   1.00800           0
     12782 MEMB     168      POPS     C315     CTL2    -0.180000       12.0110           0
     12783 MEMB     168      POPS     H15X     HAL2     0.900000E-01   1.00800           0
     12784 MEMB     168      POPS     H15Y     HAL2     0.900000E-01   1.00800           0
     12785 MEMB     168      POPS     C316     CTL3    -0.270000       12.0110           0
     12786 MEMB     168      POPS     H16X     HAL3     0.900000E-01   1.00800           0
     12787 MEMB     168      POPS     H16Y     HAL3     0.900000E-01   1.00800           0
     12788 MEMB     168      POPS     H16Z     HAL3     0.900000E-01   1.00800           0
     12789 MEMB     172      POPS     N        NH3L    -0.300000       14.0070           0
     12790 MEMB     172      POPS     HN1      HCL      0.330000       1.00800           0
     12791 MEMB     172      POPS     HN2      HCL      0.330000       1.00800           0
     12792 MEMB     172      POPS     HN3      HCL      0.330000       1.00800           0
     12793 MEMB     172      POPS     C12      CTL1     0.210000       12.0110           0
     12794 MEMB     172      POPS     H12A     HBL      0.100000       1.00800           0
     12795 MEMB     172      POPS     C13      CCL      0.340000       12.0110           0
     12796 MEMB     172      POPS     O13A     OCL     -0.670000       15.9994           0
     12797 MEMB     172      POPS     O13B     OCL     -0.670000       15.9994           0
     12798 MEMB     172      POPS     C11      CTL2    -0.800000E-01   12.0110           0
     12799 MEMB     172      POPS     H11A     HAL2     0.900000E-01   1.00800           0
     12800 MEMB     172      POPS     H11B     HAL2     0.900000E-01   1.00800           0
     12801 MEMB     172      POPS     P        PL       1.500000       30.9740           0
     12802 MEMB     172      POPS     O13      O2L     -0.780000       15.9994           0
     12803 MEMB     172      POPS     O14      O2L     -0.780000       15.9994           0
     12804 MEMB     172      POPS     O12      OSLP    -0.570000       15.9994           0
     12805 MEMB     172      POPS     O11      OSLP    -0.570000       15.9994           0
     12806 MEMB     172      POPS     C1       CTL2    -0.800000E-01   12.0110           0
     12807 MEMB     172      POPS     HA       HAL2     0.900000E-01   1.00800           0
     12808 MEMB     172      POPS     HB       HAL2     0.900000E-01   1.00800           0
     12809 MEMB     172      POPS     C2       CTL1     0.170000       12.0110           0
     12810 MEMB     172      POPS     HS       HAL1     0.900000E-01   1.00800           0
     12811 MEMB     172      POPS     O21      OSL     -0.490000       15.9994           0
     12812 MEMB     172      POPS     C21      CL       0.900000       12.0110           0
     12813 MEMB     172      POPS     O22      OBL     -0.630000       15.9994           0
     12814 MEMB     172      POPS     C22      CTL2    -0.220000       12.0110           0
     12815 MEMB     172      POPS     H2R      HAL2     0.900000E-01   1.00800           0
     12816 MEMB     172      POPS     H2S      HAL2     0.900000E-01   1.00800           0
     12817 MEMB     172      POPS     C3       CTL2     0.800000E-01   12.0110           0
     12818 MEMB     172      POPS     HX       HAL2     0.900000E-01   1.00800           0
     12819 MEMB     172      POPS     HY       HAL2     0.900000E-01   1.00800           0
     12820 MEMB     172      POPS     O31      OSL     -0.490000       15.9994           0
     12821 MEMB     172      POPS     C31      CL       0.900000       12.0110           0
     12822 MEMB     172      POPS     O32      OBL     -0.630000       15.9994           0
     12823 MEMB     172      POPS     C32      CTL2    -0.220000       12.0110           0
     12824 MEMB     172      POPS     H2X      HAL2     0.900000E-01   1.00800           0
     12825 MEMB     172      POPS     H2Y      HAL2     0.900000E-01   1.00800           0
     12826 MEMB     172      POPS     C23      CTL2    -0.180000       12.0110           0
     12827 MEMB     172      POPS     H3R      HAL2     0.900000E-01   1.00800           0
     12828 MEMB     172      POPS     H3S      HAL2     0.900000E-01   1.00800           0
     12829 MEMB     172      POPS     C24      CTL2    -0.180000       12.0110           0
     12830 MEMB     172      POPS     H4R      HAL2     0.900000E-01   1.00800           0
     12831 MEMB     172      POPS     H4S      HAL2     0.900000E-01   1.00800           0
     12832 MEMB     172      POPS     C25      CTL2    -0.180000       12.0110           0
     12833 MEMB     172      POPS     H5R      HAL2     0.900000E-01   1.00800           0
     12834 MEMB     172      POPS     H5S      HAL2     0.900000E-01   1.00800           0
     12835 MEMB     172      POPS     C26      CTL2    -0.180000       12.0110           0
     12836 MEMB     172      POPS     H6R      HAL2     0.900000E-01   1.00800           0
     12837 MEMB     172      POPS     H6S      HAL2     0.900000E-01   1.00800           0
     12838 MEMB     172      POPS     C27      CTL2    -0.180000       12.0110           0
     12839 MEMB     172      POPS     H7R      HAL2     0.900000E-01   1.00800           0
     12840 MEMB     172      POPS     H7S      HAL2     0.900000E-01   1.00800           0
     12841 MEMB     172      POPS     C28      CTL2    -0.180000       12.0110           0
     12842 MEMB     172      POPS     H8R      HAL2     0.900000E-01   1.00800           0
     12843 MEMB     172      POPS     H8S      HAL2     0.900000E-01   1.00800           0
     12844 MEMB     172      POPS     C29      CEL1    -0.150000       12.0110           0
     12845 MEMB     172      POPS     H91      HEL1     0.150000       1.00800           0
     12846 MEMB     172      POPS     C210     CEL1    -0.150000       12.0110           0
     12847 MEMB     172      POPS     H101     HEL1     0.150000       1.00800           0
     12848 MEMB     172      POPS     C211     CTL2    -0.180000       12.0110           0
     12849 MEMB     172      POPS     H11R     HAL2     0.900000E-01   1.00800           0
     12850 MEMB     172      POPS     H11S     HAL2     0.900000E-01   1.00800           0
     12851 MEMB     172      POPS     C212     CTL2    -0.180000       12.0110           0
     12852 MEMB     172      POPS     H12R     HAL2     0.900000E-01   1.00800           0
     12853 MEMB     172      POPS     H12S     HAL2     0.900000E-01   1.00800           0
     12854 MEMB     172      POPS     C213     CTL2    -0.180000       12.0110           0
     12855 MEMB     172      POPS     H13R     HAL2     0.900000E-01   1.00800           0
     12856 MEMB     172      POPS     H13S     HAL2     0.900000E-01   1.00800           0
     12857 MEMB     172      POPS     C214     CTL2    -0.180000       12.0110           0
     12858 MEMB     172      POPS     H14R     HAL2     0.900000E-01   1.00800           0
     12859 MEMB     172      POPS     H14S     HAL2     0.900000E-01   1.00800           0
     12860 MEMB     172      POPS     C215     CTL2    -0.180000       12.0110           0
     12861 MEMB     172      POPS     H15R     HAL2     0.900000E-01   1.00800           0
     12862 MEMB     172      POPS     H15S     HAL2     0.900000E-01   1.00800           0
     12863 MEMB     172      POPS     C216     CTL2    -0.180000       12.0110           0
     12864 MEMB     172      POPS     H16R     HAL2     0.900000E-01   1.00800           0
     12865 MEMB     172      POPS     H16S     HAL2     0.900000E-01   1.00800           0
     12866 MEMB     172      POPS     C217     CTL2    -0.180000       12.0110           0
     12867 MEMB     172      POPS     H17R     HAL2     0.900000E-01   1.00800           0
     12868 MEMB     172      POPS     H17S     HAL2     0.900000E-01   1.00800           0
     12869 MEMB     172      POPS     C218     CTL3    -0.270000       12.0110           0
     12870 MEMB     172      POPS     H18R     HAL3     0.900000E-01   1.00800           0
     12871 MEMB     172      POPS     H18S     HAL3     0.900000E-01   1.00800           0
     12872 MEMB     172      POPS     H18T     HAL3     0.900000E-01   1.00800           0
     12873 MEMB     172      POPS     C33      CTL2    -0.180000       12.0110           0
     12874 MEMB     172      POPS     H3X      HAL2     0.900000E-01   1.00800           0
     12875 MEMB     172      POPS     H3Y      HAL2     0.900000E-01   1.00800           0
     12876 MEMB     172      POPS     C34      CTL2    -0.180000       12.0110           0
     12877 MEMB     172      POPS     H4X      HAL2     0.900000E-01   1.00800           0
     12878 MEMB     172      POPS     H4Y      HAL2     0.900000E-01   1.00800           0
     12879 MEMB     172      POPS     C35      CTL2    -0.180000       12.0110           0
     12880 MEMB     172      POPS     H5X      HAL2     0.900000E-01   1.00800           0
     12881 MEMB     172      POPS     H5Y      HAL2     0.900000E-01   1.00800           0
     12882 MEMB     172      POPS     C36      CTL2    -0.180000       12.0110           0
     12883 MEMB     172      POPS     H6X      HAL2     0.900000E-01   1.00800           0
     12884 MEMB     172      POPS     H6Y      HAL2     0.900000E-01   1.00800           0
     12885 MEMB     172      POPS     C37      CTL2    -0.180000       12.0110           0
     12886 MEMB     172      POPS     H7X      HAL2     0.900000E-01   1.00800           0
     12887 MEMB     172      POPS     H7Y      HAL2     0.900000E-01   1.00800           0
     12888 MEMB     172      POPS     C38      CTL2    -0.180000       12.0110           0
     12889 MEMB     172      POPS     H8X      HAL2     0.900000E-01   1.00800           0
     12890 MEMB     172      POPS     H8Y      HAL2     0.900000E-01   1.00800           0
     12891 MEMB     172      POPS     C39      CTL2    -0.180000       12.0110           0
     12892 MEMB     172      POPS     H9X      HAL2     0.900000E-01   1.00800           0
     12893 MEMB     172      POPS     H9Y      HAL2     0.900000E-01   1.00800           0
     12894 MEMB     172      POPS     C310     CTL2    -0.180000       12.0110           0
     12895 MEMB     172      POPS     H10X     HAL2     0.900000E-01   1.00800           0
     12896 MEMB     172      POPS     H10Y     HAL2     0.900000E-01   1.00800           0
     12897 MEMB     172      POPS     C311     CTL2    -0.180000       12.0110           0
     12898 MEMB     172      POPS     H11X     HAL2     0.900000E-01   1.00800           0
     12899 MEMB     172      POPS     H11Y     HAL2     0.900000E-01   1.00800           0
     12900 MEMB     172      POPS     C312     CTL2    -0.180000       12.0110           0
     12901 MEMB     172      POPS     H12X     HAL2     0.900000E-01   1.00800           0
     12902 MEMB     172      POPS     H12Y     HAL2     0.900000E-01   1.00800           0
     12903 MEMB     172      POPS     C313     CTL2    -0.180000       12.0110           0
     12904 MEMB     172      POPS     H13X     HAL2     0.900000E-01   1.00800           0
     12905 MEMB     172      POPS     H13Y     HAL2     0.900000E-01   1.00800           0
     12906 MEMB     172      POPS     C314     CTL2    -0.180000       12.0110           0
     12907 MEMB     172      POPS     H14X     HAL2     0.900000E-01   1.00800           0
     12908 MEMB     172      POPS     H14Y     HAL2     0.900000E-01   1.00800           0
     12909 MEMB     172      POPS     C315     CTL2    -0.180000       12.0110           0
     12910 MEMB     172      POPS     H15X     HAL2     0.900000E-01   1.00800           0
     12911 MEMB     172      POPS     H15Y     HAL2     0.900000E-01   1.00800           0
     12912 MEMB     172      POPS     C316     CTL3    -0.270000       12.0110           0
     12913 MEMB     172      POPS     H16X     HAL3     0.900000E-01   1.00800           0
     12914 MEMB     172      POPS     H16Y     HAL3     0.900000E-01   1.00800           0
     12915 MEMB     172      POPS     H16Z     HAL3     0.900000E-01   1.00800           0
     12916 MEMB     177      POPS     N        NH3L    -0.300000       14.0070           0
     12917 MEMB     177      POPS     HN1      HCL      0.330000       1.00800           0
     12918 MEMB     177      POPS     HN2      HCL      0.330000       1.00800           0
     12919 MEMB     177      POPS     HN3      HCL      0.330000       1.00800           0
     12920 MEMB     177      POPS     C12      CTL1     0.210000       12.0110           0
     12921 MEMB     177      POPS     H12A     HBL      0.100000       1.00800           0
     12922 MEMB     177      POPS     C13      CCL      0.340000       12.0110           0
     12923 MEMB     177      POPS     O13A     OCL     -0.670000       15.9994           0
     12924 MEMB     177      POPS     O13B     OCL     -0.670000       15.9994           0
     12925 MEMB     177      POPS     C11      CTL2    -0.800000E-01   12.0110           0
     12926 MEMB     177      POPS     H11A     HAL2     0.900000E-01   1.00800           0
     12927 MEMB     177      POPS     H11B     HAL2     0.900000E-01   1.00800           0
     12928 MEMB     177      POPS     P        PL       1.500000       30.9740           0
     12929 MEMB     177      POPS     O13      O2L     -0.780000       15.9994           0
     12930 MEMB     177      POPS     O14      O2L     -0.780000       15.9994           0
     12931 MEMB     177      POPS     O12      OSLP    -0.570000       15.9994           0
     12932 MEMB     177      POPS     O11      OSLP    -0.570000       15.9994           0
     12933 MEMB     177      POPS     C1       CTL2    -0.800000E-01   12.0110           0
     12934 MEMB     177      POPS     HA       HAL2     0.900000E-01   1.00800           0
     12935 MEMB     177      POPS     HB       HAL2     0.900000E-01   1.00800           0
     12936 MEMB     177      POPS     C2       CTL1     0.170000       12.0110           0
     12937 MEMB     177      POPS     HS       HAL1     0.900000E-01   1.00800           0
     12938 MEMB     177      POPS     O21      OSL     -0.490000       15.9994           0
     12939 MEMB     177      POPS     C21      CL       0.900000       12.0110           0
     12940 MEMB     177      POPS     O22      OBL     -0.630000       15.9994           0
     12941 MEMB     177      POPS     C22      CTL2    -0.220000       12.0110           0
     12942 MEMB     177      POPS     H2R      HAL2     0.900000E-01   1.00800           0
     12943 MEMB     177      POPS     H2S      HAL2     0.900000E-01   1.00800           0
     12944 MEMB     177      POPS     C3       CTL2     0.800000E-01   12.0110           0
     12945 MEMB     177      POPS     HX       HAL2     0.900000E-01   1.00800           0
     12946 MEMB     177      POPS     HY       HAL2     0.900000E-01   1.00800           0
     12947 MEMB     177      POPS     O31      OSL     -0.490000       15.9994           0
     12948 MEMB     177      POPS     C31      CL       0.900000       12.0110           0
     12949 MEMB     177      POPS     O32      OBL     -0.630000       15.9994           0
     12950 MEMB     177      POPS     C32      CTL2    -0.220000       12.0110           0
     12951 MEMB     177      POPS     H2X      HAL2     0.900000E-01   1.00800           0
     12952 MEMB     177      POPS     H2Y      HAL2     0.900000E-01   1.00800           0
     12953 MEMB     177      POPS     C23      CTL2    -0.180000       12.0110           0
     12954 MEMB     177      POPS     H3R      HAL2     0.900000E-01   1.00800           0
     12955 MEMB     177      POPS     H3S      HAL2     0.900000E-01   1.00800           0
     12956 MEMB     177      POPS     C24      CTL2    -0.180000       12.0110           0
     12957 MEMB     177      POPS     H4R      HAL2     0.900000E-01   1.00800           0
     12958 MEMB     177      POPS     H4S      HAL2     0.900000E-01   1.00800           0
     12959 MEMB     177      POPS     C25      CTL2    -0.180000       12.0110           0
     12960 MEMB     177      POPS     H5R      HAL2     0.900000E-01   1.00800           0
     12961 MEMB     177      POPS     H5S      HAL2     0.900000E-01   1.00800           0
     12962 MEMB     177      POPS     C26      CTL2    -0.180000       12.0110           0
     12963 MEMB     177      POPS     H6R      HAL2     0.900000E-01   1.00800           0
     12964 MEMB     177      POPS     H6S      HAL2     0.900000E-01   1.00800           0
     12965 MEMB     177      POPS     C27      CTL2    -0.180000       12.0110           0
     12966 MEMB     177      POPS     H7R      HAL2     0.900000E-01   1.00800           0
     12967 MEMB     177      POPS     H7S      HAL2     0.900000E-01   1.00800           0
     12968 MEMB     177      POPS     C28      CTL2    -0.180000       12.0110           0
     12969 MEMB     177      POPS     H8R      HAL2     0.900000E-01   1.00800           0
     12970 MEMB     177      POPS     H8S      HAL2     0.900000E-01   1.00800           0
     12971 MEMB     177      POPS     C29      CEL1    -0.150000       12.0110           0
     12972 MEMB     177      POPS     H91      HEL1     0.150000       1.00800           0
     12973 MEMB     177      POPS     C210     CEL1    -0.150000       12.0110           0
     12974 MEMB     177      POPS     H101     HEL1     0.150000       1.00800           0
     12975 MEMB     177      POPS     C211     CTL2    -0.180000       12.0110           0
     12976 MEMB     177      POPS     H11R     HAL2     0.900000E-01   1.00800           0
     12977 MEMB     177      POPS     H11S     HAL2     0.900000E-01   1.00800           0
     12978 MEMB     177      POPS     C212     CTL2    -0.180000       12.0110           0
     12979 MEMB     177      POPS     H12R     HAL2     0.900000E-01   1.00800           0
     12980 MEMB     177      POPS     H12S     HAL2     0.900000E-01   1.00800           0
     12981 MEMB     177      POPS     C213     CTL2    -0.180000       12.0110           0
     12982 MEMB     177      POPS     H13R     HAL2     0.900000E-01   1.00800           0
     12983 MEMB     177      POPS     H13S     HAL2     0.900000E-01   1.00800           0
     12984 MEMB     177      POPS     C214     CTL2    -0.180000       12.0110           0
     12985 MEMB     177      POPS     H14R     HAL2     0.900000E-01   1.00800           0
     12986 MEMB     177      POPS     H14S     HAL2     0.900000E-01   1.00800           0
     12987 MEMB     177      POPS     C215     CTL2    -0.180000       12.0110           0
     12988 MEMB     177      POPS     H15R     HAL2     0.900000E-01   1.00800           0
     12989 MEMB     177      POPS     H15S     HAL2     0.900000E-01   1.00800           0
     12990 MEMB     177      POPS     C216     CTL2    -0.180000       12.0110           0
     12991 MEMB     177      POPS     H16R     HAL2     0.900000E-01   1.00800           0
     12992 MEMB     177      POPS     H16S     HAL2     0.900000E-01   1.00800           0
     12993 MEMB     177      POPS     C217     CTL2    -0.180000       12.0110           0
     12994 MEMB     177      POPS     H17R     HAL2     0.900000E-01   1.00800           0
     12995 MEMB     177      POPS     H17S     HAL2     0.900000E-01   1.00800           0
     12996 MEMB     177      POPS     C218     CTL3    -0.270000       12.0110           0
     12997 MEMB     177      POPS     H18R     HAL3     0.900000E-01   1.00800           0
     12998 MEMB     177      POPS     H18S     HAL3     0.900000E-01   1.00800           0
     12999 MEMB     177      POPS     H18T     HAL3     0.900000E-01   1.00800           0
     13000 MEMB     177      POPS     C33      CTL2    -0.180000       12.0110           0
     13001 MEMB     177      POPS     H3X      HAL2     0.900000E-01   1.00800           0
     13002 MEMB     177      POPS     H3Y      HAL2     0.900000E-01   1.00800           0
     13003 MEMB     177      POPS     C34      CTL2    -0.180000       12.0110           0
     13004 MEMB     177      POPS     H4X      HAL2     0.900000E-01   1.00800           0
     13005 MEMB     177      POPS     H4Y      HAL2     0.900000E-01   1.00800           0
     13006 MEMB     177      POPS     C35      CTL2    -0.180000       12.0110           0
     13007 MEMB     177      POPS     H5X      HAL2     0.900000E-01   1.00800           0
     13008 MEMB     177      POPS     H5Y      HAL2     0.900000E-01   1.00800           0
     13009 MEMB     177      POPS     C36      CTL2    -0.180000       12.0110           0
     13010 MEMB     177      POPS     H6X      HAL2     0.900000E-01   1.00800           0
     13011 MEMB     177      POPS     H6Y      HAL2     0.900000E-01   1.00800           0
     13012 MEMB     177      POPS     C37      CTL2    -0.180000       12.0110           0
     13013 MEMB     177      POPS     H7X      HAL2     0.900000E-01   1.00800           0
     13014 MEMB     177      POPS     H7Y      HAL2     0.900000E-01   1.00800           0
     13015 MEMB     177      POPS     C38      CTL2    -0.180000       12.0110           0
     13016 MEMB     177      POPS     H8X      HAL2     0.900000E-01   1.00800           0
     13017 MEMB     177      POPS     H8Y      HAL2     0.900000E-01   1.00800           0
     13018 MEMB     177      POPS     C39      CTL2    -0.180000       12.0110           0
     13019 MEMB     177      POPS     H9X      HAL2     0.900000E-01   1.00800           0
     13020 MEMB     177      POPS     H9Y      HAL2     0.900000E-01   1.00800           0
     13021 MEMB     177      POPS     C310     CTL2    -0.180000       12.0110           0
     13022 MEMB     177      POPS     H10X     HAL2     0.900000E-01   1.00800           0
     13023 MEMB     177      POPS     H10Y     HAL2     0.900000E-01   1.00800           0
     13024 MEMB     177      POPS     C311     CTL2    -0.180000       12.0110           0
     13025 MEMB     177      POPS     H11X     HAL2     0.900000E-01   1.00800           0
     13026 MEMB     177      POPS     H11Y     HAL2     0.900000E-01   1.00800           0
     13027 MEMB     177      POPS     C312     CTL2    -0.180000       12.0110           0
     13028 MEMB     177      POPS     H12X     HAL2     0.900000E-01   1.00800           0
     13029 MEMB     177      POPS     H12Y     HAL2     0.900000E-01   1.00800           0
     13030 MEMB     177      POPS     C313     CTL2    -0.180000       12.0110           0
     13031 MEMB     177      POPS     H13X     HAL2     0.900000E-01   1.00800           0
     13032 MEMB     177      POPS     H13Y     HAL2     0.900000E-01   1.00800           0
     13033 MEMB     177      POPS     C314     CTL2    -0.180000       12.0110           0
     13034 MEMB     177      POPS     H14X     HAL2     0.900000E-01   1.00800           0
     13035 MEMB     177      POPS     H14Y     HAL2     0.900000E-01   1.00800           0
     13036 MEMB     177      POPS     C315     CTL2    -0.180000       12.0110           0
     13037 MEMB     177      POPS     H15X     HAL2     0.900000E-01   1.00800           0
     13038 MEMB     177      POPS     H15Y     HAL2     0.900000E-01   1.00800           0
     13039 MEMB     177      POPS     C316     CTL3    -0.270000       12.0110           0
     13040 MEMB     177      POPS     H16X     HAL3     0.900000E-01   1.00800           0
     13041 MEMB     177      POPS     H16Y     HAL3     0.900000E-01   1.00800           0
     13042 MEMB     177      POPS     H16Z     HAL3     0.900000E-01   1.00800           0
     13043 MEMB     179      POPS     N        NH3L    -0.300000       14.0070           0
     13044 MEMB     179      POPS     HN1      HCL      0.330000       1.00800           0
     13045 MEMB     179      POPS     HN2      HCL      0.330000       1.00800           0
     13046 MEMB     179      POPS     HN3      HCL      0.330000       1.00800           0
     13047 MEMB     179      POPS     C12      CTL1     0.210000       12.0110           0
     13048 MEMB     179      POPS     H12A     HBL      0.100000       1.00800           0
     13049 MEMB     179      POPS     C13      CCL      0.340000       12.0110           0
     13050 MEMB     179      POPS     O13A     OCL     -0.670000       15.9994           0
     13051 MEMB     179      POPS     O13B     OCL     -0.670000       15.9994           0
     13052 MEMB     179      POPS     C11      CTL2    -0.800000E-01   12.0110           0
     13053 MEMB     179      POPS     H11A     HAL2     0.900000E-01   1.00800           0
     13054 MEMB     179      POPS     H11B     HAL2     0.900000E-01   1.00800           0
     13055 MEMB     179      POPS     P        PL       1.500000       30.9740           0
     13056 MEMB     179      POPS     O13      O2L     -0.780000       15.9994           0
     13057 MEMB     179      POPS     O14      O2L     -0.780000       15.9994           0
     13058 MEMB     179      POPS     O12      OSLP    -0.570000       15.9994           0
     13059 MEMB     179      POPS     O11      OSLP    -0.570000       15.9994           0
     13060 MEMB     179      POPS     C1       CTL2    -0.800000E-01   12.0110           0
     13061 MEMB     179      POPS     HA       HAL2     0.900000E-01   1.00800           0
     13062 MEMB     179      POPS     HB       HAL2     0.900000E-01   1.00800           0
     13063 MEMB     179      POPS     C2       CTL1     0.170000       12.0110           0
     13064 MEMB     179      POPS     HS       HAL1     0.900000E-01   1.00800           0
     13065 MEMB     179      POPS     O21      OSL     -0.490000       15.9994           0
     13066 MEMB     179      POPS     C21      CL       0.900000       12.0110           0
     13067 MEMB     179      POPS     O22      OBL     -0.630000       15.9994           0
     13068 MEMB     179      POPS     C22      CTL2    -0.220000       12.0110           0
     13069 MEMB     179      POPS     H2R      HAL2     0.900000E-01   1.00800           0
     13070 MEMB     179      POPS     H2S      HAL2     0.900000E-01   1.00800           0
     13071 MEMB     179      POPS     C3       CTL2     0.800000E-01   12.0110           0
     13072 MEMB     179      POPS     HX       HAL2     0.900000E-01   1.00800           0
     13073 MEMB     179      POPS     HY       HAL2     0.900000E-01   1.00800           0
     13074 MEMB     179      POPS     O31      OSL     -0.490000       15.9994           0
     13075 MEMB     179      POPS     C31      CL       0.900000       12.0110           0
     13076 MEMB     179      POPS     O32      OBL     -0.630000       15.9994           0
     13077 MEMB     179      POPS     C32      CTL2    -0.220000       12.0110           0
     13078 MEMB     179      POPS     H2X      HAL2     0.900000E-01   1.00800           0
     13079 MEMB     179      POPS     H2Y      HAL2     0.900000E-01   1.00800           0
     13080 MEMB     179      POPS     C23      CTL2    -0.180000       12.0110           0
     13081 MEMB     179      POPS     H3R      HAL2     0.900000E-01   1.00800           0
     13082 MEMB     179      POPS     H3S      HAL2     0.900000E-01   1.00800           0
     13083 MEMB     179      POPS     C24      CTL2    -0.180000       12.0110           0
     13084 MEMB     179      POPS     H4R      HAL2     0.900000E-01   1.00800           0
     13085 MEMB     179      POPS     H4S      HAL2     0.900000E-01   1.00800           0
     13086 MEMB     179      POPS     C25      CTL2    -0.180000       12.0110           0
     13087 MEMB     179      POPS     H5R      HAL2     0.900000E-01   1.00800           0
     13088 MEMB     179      POPS     H5S      HAL2     0.900000E-01   1.00800           0
     13089 MEMB     179      POPS     C26      CTL2    -0.180000       12.0110           0
     13090 MEMB     179      POPS     H6R      HAL2     0.900000E-01   1.00800           0
     13091 MEMB     179      POPS     H6S      HAL2     0.900000E-01   1.00800           0
     13092 MEMB     179      POPS     C27      CTL2    -0.180000       12.0110           0
     13093 MEMB     179      POPS     H7R      HAL2     0.900000E-01   1.00800           0
     13094 MEMB     179      POPS     H7S      HAL2     0.900000E-01   1.00800           0
     13095 MEMB     179      POPS     C28      CTL2    -0.180000       12.0110           0
     13096 MEMB     179      POPS     H8R      HAL2     0.900000E-01   1.00800           0
     13097 MEMB     179      POPS     H8S      HAL2     0.900000E-01   1.00800           0
     13098 MEMB     179      POPS     C29      CEL1    -0.150000       12.0110           0
     13099 MEMB     179      POPS     H91      HEL1     0.150000       1.00800           0
     13100 MEMB     179      POPS     C210     CEL1    -0.150000       12.0110           0
     13101 MEMB     179      POPS     H101     HEL1     0.150000       1.00800           0
     13102 MEMB     179      POPS     C211     CTL2    -0.180000       12.0110           0
     13103 MEMB     179      POPS     H11R     HAL2     0.900000E-01   1.00800           0
     13104 MEMB     179      POPS     H11S     HAL2     0.900000E-01   1.00800           0
     13105 MEMB     179      POPS     C212     CTL2    -0.180000       12.0110           0
     13106 MEMB     179      POPS     H12R     HAL2     0.900000E-01   1.00800           0
     13107 MEMB     179      POPS     H12S     HAL2     0.900000E-01   1.00800           0
     13108 MEMB     179      POPS     C213     CTL2    -0.180000       12.0110           0
     13109 MEMB     179      POPS     H13R     HAL2     0.900000E-01   1.00800           0
     13110 MEMB     179      POPS     H13S     HAL2     0.900000E-01   1.00800           0
     13111 MEMB     179      POPS     C214     CTL2    -0.180000       12.0110           0
     13112 MEMB     179      POPS     H14R     HAL2     0.900000E-01   1.00800           0
     13113 MEMB     179      POPS     H14S     HAL2     0.900000E-01   1.00800           0
     13114 MEMB     179      POPS     C215     CTL2    -0.180000       12.0110           0
     13115 MEMB     179      POPS     H15R     HAL2     0.900000E-01   1.00800           0
     13116 MEMB     179      POPS     H15S     HAL2     0.900000E-01   1.00800           0
     13117 MEMB     179      POPS     C216     CTL2    -0.180000       12.0110           0
     13118 MEMB     179      POPS     H16R     HAL2     0.900000E-01   1.00800           0
     13119 MEMB     179      POPS     H16S     HAL2     0.900000E-01   1.00800           0
     13120 MEMB     179      POPS     C217     CTL2    -0.180000       12.0110           0
     13121 MEMB     179      POPS     H17R     HAL2     0.900000E-01   1.00800           0
     13122 MEMB     179      POPS     H17S     HAL2     0.900000E-01   1.00800           0
     13123 MEMB     179      POPS     C218     CTL3    -0.270000       12.0110           0
     13124 MEMB     179      POPS     H18R     HAL3     0.900000E-01   1.00800           0
     13125 MEMB     179      POPS     H18S     HAL3     0.900000E-01   1.00800           0
     13126 MEMB     179      POPS     H18T     HAL3     0.900000E-01   1.00800           0
     13127 MEMB     179      POPS     C33      CTL2    -0.180000       12.0110           0
     13128 MEMB     179      POPS     H3X      HAL2     0.900000E-01   1.00800           0
     13129 MEMB     179      POPS     H3Y      HAL2     0.900000E-01   1.00800           0
     13130 MEMB     179      POPS     C34      CTL2    -0.180000       12.0110           0
     13131 MEMB     179      POPS     H4X      HAL2     0.900000E-01   1.00800           0
     13132 MEMB     179      POPS     H4Y      HAL2     0.900000E-01   1.00800           0
     13133 MEMB     179      POPS     C35      CTL2    -0.180000       12.0110           0
     13134 MEMB     179      POPS     H5X      HAL2     0.900000E-01   1.00800           0
     13135 MEMB     179      POPS     H5Y      HAL2     0.900000E-01   1.00800           0
     13136 MEMB     179      POPS     C36      CTL2    -0.180000       12.0110           0
     13137 MEMB     179      POPS     H6X      HAL2     0.900000E-01   1.00800           0
     13138 MEMB     179      POPS     H6Y      HAL2     0.900000E-01   1.00800           0
     13139 MEMB     179      POPS     C37      CTL2    -0.180000       12.0110           0
     13140 MEMB     179      POPS     H7X      HAL2     0.900000E-01   1.00800           0
     13141 MEMB     179      POPS     H7Y      HAL2     0.900000E-01   1.00800           0
     13142 MEMB     179      POPS     C38      CTL2    -0.180000       12.0110           0
     13143 MEMB     179      POPS     H8X      HAL2     0.900000E-01   1.00800           0
     13144 MEMB     179      POPS     H8Y      HAL2     0.900000E-01   1.00800           0
     13145 MEMB     179      POPS     C39      CTL2    -0.180000       12.0110           0
     13146 MEMB     179      POPS     H9X      HAL2     0.900000E-01   1.00800           0
     13147 MEMB     179      POPS     H9Y      HAL2     0.900000E-01   1.00800           0
     13148 MEMB     179      POPS     C310     CTL2    -0.180000       12.0110           0
     13149 MEMB     179      POPS     H10X     HAL2     0.900000E-01   1.00800           0
     13150 MEMB     179      POPS     H10Y     HAL2     0.900000E-01   1.00800           0
     13151 MEMB     179      POPS     C311     CTL2    -0.180000       12.0110           0
     13152 MEMB     179      POPS     H11X     HAL2     0.900000E-01   1.00800           0
     13153 MEMB     179      POPS     H11Y     HAL2     0.900000E-01   1.00800           0
     13154 MEMB     179      POPS     C312     CTL2    -0.180000       12.0110           0
     13155 MEMB     179      POPS     H12X     HAL2     0.900000E-01   1.00800           0
     13156 MEMB     179      POPS     H12Y     HAL2     0.900000E-01   1.00800           0
     13157 MEMB     179      POPS     C313     CTL2    -0.180000       12.0110           0
     13158 MEMB     179      POPS     H13X     HAL2     0.900000E-01   1.00800           0
     13159 MEMB     179      POPS     H13Y     HAL2     0.900000E-01   1.00800           0
     13160 MEMB     179      POPS     C314     CTL2    -0.180000       12.0110           0
     13161 MEMB     179      POPS     H14X     HAL2     0.900000E-01   1.00800           0
     13162 MEMB     179      POPS     H14Y     HAL2     0.900000E-01   1.00800           0
     13163 MEMB     179      POPS     C315     CTL2    -0.180000       12.0110           0
     13164 MEMB     179      POPS     H15X     HAL2     0.900000E-01   1.00800           0
     13165 MEMB     179      POPS     H15Y     HAL2     0.900000E-01   1.00800           0
     13166 MEMB     179      POPS     C316     CTL3    -0.270000       12.0110           0
     13167 MEMB     179      POPS     H16X     HAL3     0.900000E-01   1.00800           0
     13168 MEMB     179      POPS     H16Y     HAL3     0.900000E-01   1.00800           0
     13169 MEMB     179      POPS     H16Z     HAL3     0.900000E-01   1.00800           0
     13170 MEMB     185      POPS     N        NH3L    -0.300000       14.0070           0
     13171 MEMB     185      POPS     HN1      HCL      0.330000       1.00800           0
     13172 MEMB     185      POPS     HN2      HCL      0.330000       1.00800           0
     13173 MEMB     185      POPS     HN3      HCL      0.330000       1.00800           0
     13174 MEMB     185      POPS     C12      CTL1     0.210000       12.0110           0
     13175 MEMB     185      POPS     H12A     HBL      0.100000       1.00800           0
     13176 MEMB     185      POPS     C13      CCL      0.340000       12.0110           0
     13177 MEMB     185      POPS     O13A     OCL     -0.670000       15.9994           0
     13178 MEMB     185      POPS     O13B     OCL     -0.670000       15.9994           0
     13179 MEMB     185      POPS     C11      CTL2    -0.800000E-01   12.0110           0
     13180 MEMB     185      POPS     H11A     HAL2     0.900000E-01   1.00800           0
     13181 MEMB     185      POPS     H11B     HAL2     0.900000E-01   1.00800           0
     13182 MEMB     185      POPS     P        PL       1.500000       30.9740           0
     13183 MEMB     185      POPS     O13      O2L     -0.780000       15.9994           0
     13184 MEMB     185      POPS     O14      O2L     -0.780000       15.9994           0
     13185 MEMB     185      POPS     O12      OSLP    -0.570000       15.9994           0
     13186 MEMB     185      POPS     O11      OSLP    -0.570000       15.9994           0
     13187 MEMB     185      POPS     C1       CTL2    -0.800000E-01   12.0110           0
     13188 MEMB     185      POPS     HA       HAL2     0.900000E-01   1.00800           0
     13189 MEMB     185      POPS     HB       HAL2     0.900000E-01   1.00800           0
     13190 MEMB     185      POPS     C2       CTL1     0.170000       12.0110           0
     13191 MEMB     185      POPS     HS       HAL1     0.900000E-01   1.00800           0
     13192 MEMB     185      POPS     O21      OSL     -0.490000       15.9994           0
     13193 MEMB     185      POPS     C21      CL       0.900000       12.0110           0
     13194 MEMB     185      POPS     O22      OBL     -0.630000       15.9994           0
     13195 MEMB     185      POPS     C22      CTL2    -0.220000       12.0110           0
     13196 MEMB     185      POPS     H2R      HAL2     0.900000E-01   1.00800           0
     13197 MEMB     185      POPS     H2S      HAL2     0.900000E-01   1.00800           0
     13198 MEMB     185      POPS     C3       CTL2     0.800000E-01   12.0110           0
     13199 MEMB     185      POPS     HX       HAL2     0.900000E-01   1.00800           0
     13200 MEMB     185      POPS     HY       HAL2     0.900000E-01   1.00800           0
     13201 MEMB     185      POPS     O31      OSL     -0.490000       15.9994           0
     13202 MEMB     185      POPS     C31      CL       0.900000       12.0110           0
     13203 MEMB     185      POPS     O32      OBL     -0.630000       15.9994           0
     13204 MEMB     185      POPS     C32      CTL2    -0.220000       12.0110           0
     13205 MEMB     185      POPS     H2X      HAL2     0.900000E-01   1.00800           0
     13206 MEMB     185      POPS     H2Y      HAL2     0.900000E-01   1.00800           0
     13207 MEMB     185      POPS     C23      CTL2    -0.180000       12.0110           0
     13208 MEMB     185      POPS     H3R      HAL2     0.900000E-01   1.00800           0
     13209 MEMB     185      POPS     H3S      HAL2     0.900000E-01   1.00800           0
     13210 MEMB     185      POPS     C24      CTL2    -0.180000       12.0110           0
     13211 MEMB     185      POPS     H4R      HAL2     0.900000E-01   1.00800           0
     13212 MEMB     185      POPS     H4S      HAL2     0.900000E-01   1.00800           0
     13213 MEMB     185      POPS     C25      CTL2    -0.180000       12.0110           0
     13214 MEMB     185      POPS     H5R      HAL2     0.900000E-01   1.00800           0
     13215 MEMB     185      POPS     H5S      HAL2     0.900000E-01   1.00800           0
     13216 MEMB     185      POPS     C26      CTL2    -0.180000       12.0110           0
     13217 MEMB     185      POPS     H6R      HAL2     0.900000E-01   1.00800           0
     13218 MEMB     185      POPS     H6S      HAL2     0.900000E-01   1.00800           0
     13219 MEMB     185      POPS     C27      CTL2    -0.180000       12.0110           0
     13220 MEMB     185      POPS     H7R      HAL2     0.900000E-01   1.00800           0
     13221 MEMB     185      POPS     H7S      HAL2     0.900000E-01   1.00800           0
     13222 MEMB     185      POPS     C28      CTL2    -0.180000       12.0110           0
     13223 MEMB     185      POPS     H8R      HAL2     0.900000E-01   1.00800           0
     13224 MEMB     185      POPS     H8S      HAL2     0.900000E-01   1.00800           0
     13225 MEMB     185      POPS     C29      CEL1    -0.150000       12.0110           0
     13226 MEMB     185      POPS     H91      HEL1     0.150000       1.00800           0
     13227 MEMB     185      POPS     C210     CEL1    -0.150000       12.0110           0
     13228 MEMB     185      POPS     H101     HEL1     0.150000       1.00800           0
     13229 MEMB     185      POPS     C211     CTL2    -0.180000       12.0110           0
     13230 MEMB     185      POPS     H11R     HAL2     0.900000E-01   1.00800           0
     13231 MEMB     185      POPS     H11S     HAL2     0.900000E-01   1.00800           0
     13232 MEMB     185      POPS     C212     CTL2    -0.180000       12.0110           0
     13233 MEMB     185      POPS     H12R     HAL2     0.900000E-01   1.00800           0
     13234 MEMB     185      POPS     H12S     HAL2     0.900000E-01   1.00800           0
     13235 MEMB     185      POPS     C213     CTL2    -0.180000       12.0110           0
     13236 MEMB     185      POPS     H13R     HAL2     0.900000E-01   1.00800           0
     13237 MEMB     185      POPS     H13S     HAL2     0.900000E-01   1.00800           0
     13238 MEMB     185      POPS     C214     CTL2    -0.180000       12.0110           0
     13239 MEMB     185      POPS     H14R     HAL2     0.900000E-01   1.00800           0
     13240 MEMB     185      POPS     H14S     HAL2     0.900000E-01   1.00800           0
     13241 MEMB     185      POPS     C215     CTL2    -0.180000       12.0110           0
     13242 MEMB     185      POPS     H15R     HAL2     0.900000E-01   1.00800           0
     13243 MEMB     185      POPS     H15S     HAL2     0.900000E-01   1.00800           0
     13244 MEMB     185      POPS     C216     CTL2    -0.180000       12.0110           0
     13245 MEMB     185      POPS     H16R     HAL2     0.900000E-01   1.00800           0
     13246 MEMB     185      POPS     H16S     HAL2     0.900000E-01   1.00800           0
     13247 MEMB     185      POPS     C217     CTL2    -0.180000       12.0110           0
     13248 MEMB     185      POPS     H17R     HAL2     0.900000E-01   1.00800           0
     13249 MEMB     185      POPS     H17S     HAL2     0.900000E-01   1.00800           0
     13250 MEMB     185      POPS     C218     CTL3    -0.270000       12.0110           0
     13251 MEMB     185      POPS     H18R     HAL3     0.900000E-01   1.00800           0
     13252 MEMB     185      POPS     H18S     HAL3     0.900000E-01   1.00800           0
     13253 MEMB     185      POPS     H18T     HAL3     0.900000E-01   1.00800           0
     13254 MEMB     185      POPS     C33      CTL2    -0.180000       12.0110           0
     13255 MEMB     185      POPS     H3X      HAL2     0.900000E-01   1.00800           0
     13256 MEMB     185      POPS     H3Y      HAL2     0.900000E-01   1.00800           0
     13257 MEMB     185      POPS     C34      CTL2    -0.180000       12.0110           0
     13258 MEMB     185      POPS     H4X      HAL2     0.900000E-01   1.00800           0
     13259 MEMB     185      POPS     H4Y      HAL2     0.900000E-01   1.00800           0
     13260 MEMB     185      POPS     C35      CTL2    -0.180000       12.0110           0
     13261 MEMB     185      POPS     H5X      HAL2     0.900000E-01   1.00800           0
     13262 MEMB     185      POPS     H5Y      HAL2     0.900000E-01   1.00800           0
     13263 MEMB     185      POPS     C36      CTL2    -0.180000       12.0110           0
     13264 MEMB     185      POPS     H6X      HAL2     0.900000E-01   1.00800           0
     13265 MEMB     185      POPS     H6Y      HAL2     0.900000E-01   1.00800           0
     13266 MEMB     185      POPS     C37      CTL2    -0.180000       12.0110           0
     13267 MEMB     185      POPS     H7X      HAL2     0.900000E-01   1.00800           0
     13268 MEMB     185      POPS     H7Y      HAL2     0.900000E-01   1.00800           0
     13269 MEMB     185      POPS     C38      CTL2    -0.180000       12.0110           0
     13270 MEMB     185      POPS     H8X      HAL2     0.900000E-01   1.00800           0
     13271 MEMB     185      POPS     H8Y      HAL2     0.900000E-01   1.00800           0
     13272 MEMB     185      POPS     C39      CTL2    -0.180000       12.0110           0
     13273 MEMB     185      POPS     H9X      HAL2     0.900000E-01   1.00800           0
     13274 MEMB     185      POPS     H9Y      HAL2     0.900000E-01   1.00800           0
     13275 MEMB     185      POPS     C310     CTL2    -0.180000       12.0110           0
     13276 MEMB     185      POPS     H10X     HAL2     0.900000E-01   1.00800           0
     13277 MEMB     185      POPS     H10Y     HAL2     0.900000E-01   1.00800           0
     13278 MEMB     185      POPS     C311     CTL2    -0.180000       12.0110           0
     13279 MEMB     185      POPS     H11X     HAL2     0.900000E-01   1.00800           0
     13280 MEMB     185      POPS     H11Y     HAL2     0.900000E-01   1.00800           0
     13281 MEMB     185      POPS     C312     CTL2    -0.180000       12.0110           0
     13282 MEMB     185      POPS     H12X     HAL2     0.900000E-01   1.00800           0
     13283 MEMB     185      POPS     H12Y     HAL2     0.900000E-01   1.00800           0
     13284 MEMB     185      POPS     C313     CTL2    -0.180000       12.0110           0
     13285 MEMB     185      POPS     H13X     HAL2     0.900000E-01   1.00800           0
     13286 MEMB     185      POPS     H13Y     HAL2     0.900000E-01   1.00800           0
     13287 MEMB     185      POPS     C314     CTL2    -0.180000       12.0110           0
     13288 MEMB     185      POPS     H14X     HAL2     0.900000E-01   1.00800           0
     13289 MEMB     185      POPS     H14Y     HAL2     0.900000E-01   1.00800           0
     13290 MEMB     185      POPS     C315     CTL2    -0.180000       12.0110           0
     13291 MEMB     185      POPS     H15X     HAL2     0.900000E-01   1.00800           0
     13292 MEMB     185      POPS     H15Y     HAL2     0.900000E-01   1.00800           0
     13293 MEMB     185      POPS     C316     CTL3    -0.270000       12.0110           0
     13294 MEMB     185      POPS     H16X     HAL3     0.900000E-01   1.00800           0
     13295 MEMB     185      POPS     H16Y     HAL3     0.900000E-01   1.00800           0
     13296 MEMB     185      POPS     H16Z     HAL3     0.900000E-01   1.00800           0
     13297 MEMB     197      POPS     N        NH3L    -0.300000       14.0070           0
     13298 MEMB     197      POPS     HN1      HCL      0.330000       1.00800           0
     13299 MEMB     197      POPS     HN2      HCL      0.330000       1.00800           0
     13300 MEMB     197      POPS     HN3      HCL      0.330000       1.00800           0
     13301 MEMB     197      POPS     C12      CTL1     0.210000       12.0110           0
     13302 MEMB     197      POPS     H12A     HBL      0.100000       1.00800           0
     13303 MEMB     197      POPS     C13      CCL      0.340000       12.0110           0
     13304 MEMB     197      POPS     O13A     OCL     -0.670000       15.9994           0
     13305 MEMB     197      POPS     O13B     OCL     -0.670000       15.9994           0
     13306 MEMB     197      POPS     C11      CTL2    -0.800000E-01   12.0110           0
     13307 MEMB     197      POPS     H11A     HAL2     0.900000E-01   1.00800           0
     13308 MEMB     197      POPS     H11B     HAL2     0.900000E-01   1.00800           0
     13309 MEMB     197      POPS     P        PL       1.500000       30.9740           0
     13310 MEMB     197      POPS     O13      O2L     -0.780000       15.9994           0
     13311 MEMB     197      POPS     O14      O2L     -0.780000       15.9994           0
     13312 MEMB     197      POPS     O12      OSLP    -0.570000       15.9994           0
     13313 MEMB     197      POPS     O11      OSLP    -0.570000       15.9994           0
     13314 MEMB     197      POPS     C1       CTL2    -0.800000E-01   12.0110           0
     13315 MEMB     197      POPS     HA       HAL2     0.900000E-01   1.00800           0
     13316 MEMB     197      POPS     HB       HAL2     0.900000E-01   1.00800           0
     13317 MEMB     197      POPS     C2       CTL1     0.170000       12.0110           0
     13318 MEMB     197      POPS     HS       HAL1     0.900000E-01   1.00800           0
     13319 MEMB     197      POPS     O21      OSL     -0.490000       15.9994           0
     13320 MEMB     197      POPS     C21      CL       0.900000       12.0110           0
     13321 MEMB     197      POPS     O22      OBL     -0.630000       15.9994           0
     13322 MEMB     197      POPS     C22      CTL2    -0.220000       12.0110           0
     13323 MEMB     197      POPS     H2R      HAL2     0.900000E-01   1.00800           0
     13324 MEMB     197      POPS     H2S      HAL2     0.900000E-01   1.00800           0
     13325 MEMB     197      POPS     C3       CTL2     0.800000E-01   12.0110           0
     13326 MEMB     197      POPS     HX       HAL2     0.900000E-01   1.00800           0
     13327 MEMB     197      POPS     HY       HAL2     0.900000E-01   1.00800           0
     13328 MEMB     197      POPS     O31      OSL     -0.490000       15.9994           0
     13329 MEMB     197      POPS     C31      CL       0.900000       12.0110           0
     13330 MEMB     197      POPS     O32      OBL     -0.630000       15.9994           0
     13331 MEMB     197      POPS     C32      CTL2    -0.220000       12.0110           0
     13332 MEMB     197      POPS     H2X      HAL2     0.900000E-01   1.00800           0
     13333 MEMB     197      POPS     H2Y      HAL2     0.900000E-01   1.00800           0
     13334 MEMB     197      POPS     C23      CTL2    -0.180000       12.0110           0
     13335 MEMB     197      POPS     H3R      HAL2     0.900000E-01   1.00800           0
     13336 MEMB     197      POPS     H3S      HAL2     0.900000E-01   1.00800           0
     13337 MEMB     197      POPS     C24      CTL2    -0.180000       12.0110           0
     13338 MEMB     197      POPS     H4R      HAL2     0.900000E-01   1.00800           0
     13339 MEMB     197      POPS     H4S      HAL2     0.900000E-01   1.00800           0
     13340 MEMB     197      POPS     C25      CTL2    -0.180000       12.0110           0
     13341 MEMB     197      POPS     H5R      HAL2     0.900000E-01   1.00800           0
     13342 MEMB     197      POPS     H5S      HAL2     0.900000E-01   1.00800           0
     13343 MEMB     197      POPS     C26      CTL2    -0.180000       12.0110           0
     13344 MEMB     197      POPS     H6R      HAL2     0.900000E-01   1.00800           0
     13345 MEMB     197      POPS     H6S      HAL2     0.900000E-01   1.00800           0
     13346 MEMB     197      POPS     C27      CTL2    -0.180000       12.0110           0
     13347 MEMB     197      POPS     H7R      HAL2     0.900000E-01   1.00800           0
     13348 MEMB     197      POPS     H7S      HAL2     0.900000E-01   1.00800           0
     13349 MEMB     197      POPS     C28      CTL2    -0.180000       12.0110           0
     13350 MEMB     197      POPS     H8R      HAL2     0.900000E-01   1.00800           0
     13351 MEMB     197      POPS     H8S      HAL2     0.900000E-01   1.00800           0
     13352 MEMB     197      POPS     C29      CEL1    -0.150000       12.0110           0
     13353 MEMB     197      POPS     H91      HEL1     0.150000       1.00800           0
     13354 MEMB     197      POPS     C210     CEL1    -0.150000       12.0110           0
     13355 MEMB     197      POPS     H101     HEL1     0.150000       1.00800           0
     13356 MEMB     197      POPS     C211     CTL2    -0.180000       12.0110           0
     13357 MEMB     197      POPS     H11R     HAL2     0.900000E-01   1.00800           0
     13358 MEMB     197      POPS     H11S     HAL2     0.900000E-01   1.00800           0
     13359 MEMB     197      POPS     C212     CTL2    -0.180000       12.0110           0
     13360 MEMB     197      POPS     H12R     HAL2     0.900000E-01   1.00800           0
     13361 MEMB     197      POPS     H12S     HAL2     0.900000E-01   1.00800           0
     13362 MEMB     197      POPS     C213     CTL2    -0.180000       12.0110           0
     13363 MEMB     197      POPS     H13R     HAL2     0.900000E-01   1.00800           0
     13364 MEMB     197      POPS     H13S     HAL2     0.900000E-01   1.00800           0
     13365 MEMB     197      POPS     C214     CTL2    -0.180000       12.0110           0
     13366 MEMB     197      POPS     H14R     HAL2     0.900000E-01   1.00800           0
     13367 MEMB     197      POPS     H14S     HAL2     0.900000E-01   1.00800           0
     13368 MEMB     197      POPS     C215     CTL2    -0.180000       12.0110           0
     13369 MEMB     197      POPS     H15R     HAL2     0.900000E-01   1.00800           0
     13370 MEMB     197      POPS     H15S     HAL2     0.900000E-01   1.00800           0
     13371 MEMB     197      POPS     C216     CTL2    -0.180000       12.0110           0
     13372 MEMB     197      POPS     H16R     HAL2     0.900000E-01   1.00800           0
     13373 MEMB     197      POPS     H16S     HAL2     0.900000E-01   1.00800           0
     13374 MEMB     197      POPS     C217     CTL2    -0.180000       12.0110           0
     13375 MEMB     197      POPS     H17R     HAL2     0.900000E-01   1.00800           0
     13376 MEMB     197      POPS     H17S     HAL2     0.900000E-01   1.00800           0
     13377 MEMB     197      POPS     C218     CTL3    -0.270000       12.0110           0
     13378 MEMB     197      POPS     H18R     HAL3     0.900000E-01   1.00800           0
     13379 MEMB     197      POPS     H18S     HAL3     0.900000E-01   1.00800           0
     13380 MEMB     197      POPS     H18T     HAL3     0.900000E-01   1.00800           0
     13381 MEMB     197      POPS     C33      CTL2    -0.180000       12.0110           0
     13382 MEMB     197      POPS     H3X      HAL2     0.900000E-01   1.00800           0
     13383 MEMB     197      POPS     H3Y      HAL2     0.900000E-01   1.00800           0
     13384 MEMB     197      POPS     C34      CTL2    -0.180000       12.0110           0
     13385 MEMB     197      POPS     H4X      HAL2     0.900000E-01   1.00800           0
     13386 MEMB     197      POPS     H4Y      HAL2     0.900000E-01   1.00800           0
     13387 MEMB     197      POPS     C35      CTL2    -0.180000       12.0110           0
     13388 MEMB     197      POPS     H5X      HAL2     0.900000E-01   1.00800           0
     13389 MEMB     197      POPS     H5Y      HAL2     0.900000E-01   1.00800           0
     13390 MEMB     197      POPS     C36      CTL2    -0.180000       12.0110           0
     13391 MEMB     197      POPS     H6X      HAL2     0.900000E-01   1.00800           0
     13392 MEMB     197      POPS     H6Y      HAL2     0.900000E-01   1.00800           0
     13393 MEMB     197      POPS     C37      CTL2    -0.180000       12.0110           0
     13394 MEMB     197      POPS     H7X      HAL2     0.900000E-01   1.00800           0
     13395 MEMB     197      POPS     H7Y      HAL2     0.900000E-01   1.00800           0
     13396 MEMB     197      POPS     C38      CTL2    -0.180000       12.0110           0
     13397 MEMB     197      POPS     H8X      HAL2     0.900000E-01   1.00800           0
     13398 MEMB     197      POPS     H8Y      HAL2     0.900000E-01   1.00800           0
     13399 MEMB     197      POPS     C39      CTL2    -0.180000       12.0110           0
     13400 MEMB     197      POPS     H9X      HAL2     0.900000E-01   1.00800           0
     13401 MEMB     197      POPS     H9Y      HAL2     0.900000E-01   1.00800           0
     13402 MEMB     197      POPS     C310     CTL2    -0.180000       12.0110           0
     13403 MEMB     197      POPS     H10X     HAL2     0.900000E-01   1.00800           0
     13404 MEMB     197      POPS     H10Y     HAL2     0.900000E-01   1.00800           0
     13405 MEMB     197      POPS     C311     CTL2    -0.180000       12.0110           0
     13406 MEMB     197      POPS     H11X     HAL2     0.900000E-01   1.00800           0
     13407 MEMB     197      POPS     H11Y     HAL2     0.900000E-01   1.00800           0
     13408 MEMB     197      POPS     C312     CTL2    -0.180000       12.0110           0
     13409 MEMB     197      POPS     H12X     HAL2     0.900000E-01   1.00800           0
     13410 MEMB     197      POPS     H12Y     HAL2     0.900000E-01   1.00800           0
     13411 MEMB     197      POPS     C313     CTL2    -0.180000       12.0110           0
     13412 MEMB     197      POPS     H13X     HAL2     0.900000E-01   1.00800           0
     13413 MEMB     197      POPS     H13Y     HAL2     0.900000E-01   1.00800           0
     13414 MEMB     197      POPS     C314     CTL2    -0.180000       12.0110           0
     13415 MEMB     197      POPS     H14X     HAL2     0.900000E-01   1.00800           0
     13416 MEMB     197      POPS     H14Y     HAL2     0.900000E-01   1.00800           0
     13417 MEMB     197      POPS     C315     CTL2    -0.180000       12.0110           0
     13418 MEMB     197      POPS     H15X     HAL2     0.900000E-01   1.00800           0
     13419 MEMB     197      POPS     H15Y     HAL2     0.900000E-01   1.00800           0
     13420 MEMB     197      POPS     C316     CTL3    -0.270000       12.0110           0
     13421 MEMB     197      POPS     H16X     HAL3     0.900000E-01   1.00800           0
     13422 MEMB     197      POPS     H16Y     HAL3     0.900000E-01   1.00800           0
     13423 MEMB     197      POPS     H16Z     HAL3     0.900000E-01   1.00800           0
     13424 MEMB     198      POPS     N        NH3L    -0.300000       14.0070           0
     13425 MEMB     198      POPS     HN1      HCL      0.330000       1.00800           0
     13426 MEMB     198      POPS     HN2      HCL      0.330000       1.00800           0
     13427 MEMB     198      POPS     HN3      HCL      0.330000       1.00800           0
     13428 MEMB     198      POPS     C12      CTL1     0.210000       12.0110           0
     13429 MEMB     198      POPS     H12A     HBL      0.100000       1.00800           0
     13430 MEMB     198      POPS     C13      CCL      0.340000       12.0110           0
     13431 MEMB     198      POPS     O13A     OCL     -0.670000       15.9994           0
     13432 MEMB     198      POPS     O13B     OCL     -0.670000       15.9994           0
     13433 MEMB     198      POPS     C11      CTL2    -0.800000E-01   12.0110           0
     13434 MEMB     198      POPS     H11A     HAL2     0.900000E-01   1.00800           0
     13435 MEMB     198      POPS     H11B     HAL2     0.900000E-01   1.00800           0
     13436 MEMB     198      POPS     P        PL       1.500000       30.9740           0
     13437 MEMB     198      POPS     O13      O2L     -0.780000       15.9994           0
     13438 MEMB     198      POPS     O14      O2L     -0.780000       15.9994           0
     13439 MEMB     198      POPS     O12      OSLP    -0.570000       15.9994           0
     13440 MEMB     198      POPS     O11      OSLP    -0.570000       15.9994           0
     13441 MEMB     198      POPS     C1       CTL2    -0.800000E-01   12.0110           0
     13442 MEMB     198      POPS     HA       HAL2     0.900000E-01   1.00800           0
     13443 MEMB     198      POPS     HB       HAL2     0.900000E-01   1.00800           0
     13444 MEMB     198      POPS     C2       CTL1     0.170000       12.0110           0
     13445 MEMB     198      POPS     HS       HAL1     0.900000E-01   1.00800           0
     13446 MEMB     198      POPS     O21      OSL     -0.490000       15.9994           0
     13447 MEMB     198      POPS     C21      CL       0.900000       12.0110           0
     13448 MEMB     198      POPS     O22      OBL     -0.630000       15.9994           0
     13449 MEMB     198      POPS     C22      CTL2    -0.220000       12.0110           0
     13450 MEMB     198      POPS     H2R      HAL2     0.900000E-01   1.00800           0
     13451 MEMB     198      POPS     H2S      HAL2     0.900000E-01   1.00800           0
     13452 MEMB     198      POPS     C3       CTL2     0.800000E-01   12.0110           0
     13453 MEMB     198      POPS     HX       HAL2     0.900000E-01   1.00800           0
     13454 MEMB     198      POPS     HY       HAL2     0.900000E-01   1.00800           0
     13455 MEMB     198      POPS     O31      OSL     -0.490000       15.9994           0
     13456 MEMB     198      POPS     C31      CL       0.900000       12.0110           0
     13457 MEMB     198      POPS     O32      OBL     -0.630000       15.9994           0
     13458 MEMB     198      POPS     C32      CTL2    -0.220000       12.0110           0
     13459 MEMB     198      POPS     H2X      HAL2     0.900000E-01   1.00800           0
     13460 MEMB     198      POPS     H2Y      HAL2     0.900000E-01   1.00800           0
     13461 MEMB     198      POPS     C23      CTL2    -0.180000       12.0110           0
     13462 MEMB     198      POPS     H3R      HAL2     0.900000E-01   1.00800           0
     13463 MEMB     198      POPS     H3S      HAL2     0.900000E-01   1.00800           0
     13464 MEMB     198      POPS     C24      CTL2    -0.180000       12.0110           0
     13465 MEMB     198      POPS     H4R      HAL2     0.900000E-01   1.00800           0
     13466 MEMB     198      POPS     H4S      HAL2     0.900000E-01   1.00800           0
     13467 MEMB     198      POPS     C25      CTL2    -0.180000       12.0110           0
     13468 MEMB     198      POPS     H5R      HAL2     0.900000E-01   1.00800           0
     13469 MEMB     198      POPS     H5S      HAL2     0.900000E-01   1.00800           0
     13470 MEMB     198      POPS     C26      CTL2    -0.180000       12.0110           0
     13471 MEMB     198      POPS     H6R      HAL2     0.900000E-01   1.00800           0
     13472 MEMB     198      POPS     H6S      HAL2     0.900000E-01   1.00800           0
     13473 MEMB     198      POPS     C27      CTL2    -0.180000       12.0110           0
     13474 MEMB     198      POPS     H7R      HAL2     0.900000E-01   1.00800           0
     13475 MEMB     198      POPS     H7S      HAL2     0.900000E-01   1.00800           0
     13476 MEMB     198      POPS     C28      CTL2    -0.180000       12.0110           0
     13477 MEMB     198      POPS     H8R      HAL2     0.900000E-01   1.00800           0
     13478 MEMB     198      POPS     H8S      HAL2     0.900000E-01   1.00800           0
     13479 MEMB     198      POPS     C29      CEL1    -0.150000       12.0110           0
     13480 MEMB     198      POPS     H91      HEL1     0.150000       1.00800           0
     13481 MEMB     198      POPS     C210     CEL1    -0.150000       12.0110           0
     13482 MEMB     198      POPS     H101     HEL1     0.150000       1.00800           0
     13483 MEMB     198      POPS     C211     CTL2    -0.180000       12.0110           0
     13484 MEMB     198      POPS     H11R     HAL2     0.900000E-01   1.00800           0
     13485 MEMB     198      POPS     H11S     HAL2     0.900000E-01   1.00800           0
     13486 MEMB     198      POPS     C212     CTL2    -0.180000       12.0110           0
     13487 MEMB     198      POPS     H12R     HAL2     0.900000E-01   1.00800           0
     13488 MEMB     198      POPS     H12S     HAL2     0.900000E-01   1.00800           0
     13489 MEMB     198      POPS     C213     CTL2    -0.180000       12.0110           0
     13490 MEMB     198      POPS     H13R     HAL2     0.900000E-01   1.00800           0
     13491 MEMB     198      POPS     H13S     HAL2     0.900000E-01   1.00800           0
     13492 MEMB     198      POPS     C214     CTL2    -0.180000       12.0110           0
     13493 MEMB     198      POPS     H14R     HAL2     0.900000E-01   1.00800           0
     13494 MEMB     198      POPS     H14S     HAL2     0.900000E-01   1.00800           0
     13495 MEMB     198      POPS     C215     CTL2    -0.180000       12.0110           0
     13496 MEMB     198      POPS     H15R     HAL2     0.900000E-01   1.00800           0
     13497 MEMB     198      POPS     H15S     HAL2     0.900000E-01   1.00800           0
     13498 MEMB     198      POPS     C216     CTL2    -0.180000       12.0110           0
     13499 MEMB     198      POPS     H16R     HAL2     0.900000E-01   1.00800           0
     13500 MEMB     198      POPS     H16S     HAL2     0.900000E-01   1.00800           0
     13501 MEMB     198      POPS     C217     CTL2    -0.180000       12.0110           0
     13502 MEMB     198      POPS     H17R     HAL2     0.900000E-01   1.00800           0
     13503 MEMB     198      POPS     H17S     HAL2     0.900000E-01   1.00800           0
     13504 MEMB     198      POPS     C218     CTL3    -0.270000       12.0110           0
     13505 MEMB     198      POPS     H18R     HAL3     0.900000E-01   1.00800           0
     13506 MEMB     198      POPS     H18S     HAL3     0.900000E-01   1.00800           0
     13507 MEMB     198      POPS     H18T     HAL3     0.900000E-01   1.00800           0
     13508 MEMB     198      POPS     C33      CTL2    -0.180000       12.0110           0
     13509 MEMB     198      POPS     H3X      HAL2     0.900000E-01   1.00800           0
     13510 MEMB     198      POPS     H3Y      HAL2     0.900000E-01   1.00800           0
     13511 MEMB     198      POPS     C34      CTL2    -0.180000       12.0110           0
     13512 MEMB     198      POPS     H4X      HAL2     0.900000E-01   1.00800           0
     13513 MEMB     198      POPS     H4Y      HAL2     0.900000E-01   1.00800           0
     13514 MEMB     198      POPS     C35      CTL2    -0.180000       12.0110           0
     13515 MEMB     198      POPS     H5X      HAL2     0.900000E-01   1.00800           0
     13516 MEMB     198      POPS     H5Y      HAL2     0.900000E-01   1.00800           0
     13517 MEMB     198      POPS     C36      CTL2    -0.180000       12.0110           0
     13518 MEMB     198      POPS     H6X      HAL2     0.900000E-01   1.00800           0
     13519 MEMB     198      POPS     H6Y      HAL2     0.900000E-01   1.00800           0
     13520 MEMB     198      POPS     C37      CTL2    -0.180000       12.0110           0
     13521 MEMB     198      POPS     H7X      HAL2     0.900000E-01   1.00800           0
     13522 MEMB     198      POPS     H7Y      HAL2     0.900000E-01   1.00800           0
     13523 MEMB     198      POPS     C38      CTL2    -0.180000       12.0110           0
     13524 MEMB     198      POPS     H8X      HAL2     0.900000E-01   1.00800           0
     13525 MEMB     198      POPS     H8Y      HAL2     0.900000E-01   1.00800           0
     13526 MEMB     198      POPS     C39      CTL2    -0.180000       12.0110           0
     13527 MEMB     198      POPS     H9X      HAL2     0.900000E-01   1.00800           0
     13528 MEMB     198      POPS     H9Y      HAL2     0.900000E-01   1.00800           0
     13529 MEMB     198      POPS     C310     CTL2    -0.180000       12.0110           0
     13530 MEMB     198      POPS     H10X     HAL2     0.900000E-01   1.00800           0
     13531 MEMB     198      POPS     H10Y     HAL2     0.900000E-01   1.00800           0
     13532 MEMB     198      POPS     C311     CTL2    -0.180000       12.0110           0
     13533 MEMB     198      POPS     H11X     HAL2     0.900000E-01   1.00800           0
     13534 MEMB     198      POPS     H11Y     HAL2     0.900000E-01   1.00800           0
     13535 MEMB     198      POPS     C312     CTL2    -0.180000       12.0110           0
     13536 MEMB     198      POPS     H12X     HAL2     0.900000E-01   1.00800           0
     13537 MEMB     198      POPS     H12Y     HAL2     0.900000E-01   1.00800           0
     13538 MEMB     198      POPS     C313     CTL2    -0.180000       12.0110           0
     13539 MEMB     198      POPS     H13X     HAL2     0.900000E-01   1.00800           0
     13540 MEMB     198      POPS     H13Y     HAL2     0.900000E-01   1.00800           0
     13541 MEMB     198      POPS     C314     CTL2    -0.180000       12.0110           0
     13542 MEMB     198      POPS     H14X     HAL2     0.900000E-01   1.00800           0
     13543 MEMB     198      POPS     H14Y     HAL2     0.900000E-01   1.00800           0
     13544 MEMB     198      POPS     C315     CTL2    -0.180000       12.0110           0
     13545 MEMB     198      POPS     H15X     HAL2     0.900000E-01   1.00800           0
     13546 MEMB     198      POPS     H15Y     HAL2     0.900000E-01   1.00800           0
     13547 MEMB     198      POPS     C316     CTL3    -0.270000       12.0110           0
     13548 MEMB     198      POPS     H16X     HAL3     0.900000E-01   1.00800           0
     13549 MEMB     198      POPS     H16Y     HAL3     0.900000E-01   1.00800           0
     13550 MEMB     198      POPS     H16Z     HAL3     0.900000E-01   1.00800           0
     13551 MEMB     5        POPC     N        NTL     -0.600000       14.0070           0
     13552 MEMB     5        POPC     C12      CTL2    -0.100000       12.0110           0
     13553 MEMB     5        POPC     H12A     HL       0.250000       1.00800           0
     13554 MEMB     5        POPC     H12B     HL       0.250000       1.00800           0
     13555 MEMB     5        POPC     C13      CTL5    -0.350000       12.0110           0
     13556 MEMB     5        POPC     H13A     HL       0.250000       1.00800           0
     13557 MEMB     5        POPC     H13B     HL       0.250000       1.00800           0
     13558 MEMB     5        POPC     H13C     HL       0.250000       1.00800           0
     13559 MEMB     5        POPC     C14      CTL5    -0.350000       12.0110           0
     13560 MEMB     5        POPC     H14A     HL       0.250000       1.00800           0
     13561 MEMB     5        POPC     H14B     HL       0.250000       1.00800           0
     13562 MEMB     5        POPC     H14C     HL       0.250000       1.00800           0
     13563 MEMB     5        POPC     C15      CTL5    -0.350000       12.0110           0
     13564 MEMB     5        POPC     H15A     HL       0.250000       1.00800           0
     13565 MEMB     5        POPC     H15B     HL       0.250000       1.00800           0
     13566 MEMB     5        POPC     H15C     HL       0.250000       1.00800           0
     13567 MEMB     5        POPC     C11      CTL2    -0.800000E-01   12.0110           0
     13568 MEMB     5        POPC     H11A     HAL2     0.900000E-01   1.00800           0
     13569 MEMB     5        POPC     H11B     HAL2     0.900000E-01   1.00800           0
     13570 MEMB     5        POPC     P        PL       1.500000       30.9740           0
     13571 MEMB     5        POPC     O13      O2L     -0.780000       15.9994           0
     13572 MEMB     5        POPC     O14      O2L     -0.780000       15.9994           0
     13573 MEMB     5        POPC     O12      OSLP    -0.570000       15.9994           0
     13574 MEMB     5        POPC     O11      OSLP    -0.570000       15.9994           0
     13575 MEMB     5        POPC     C1       CTL2    -0.800000E-01   12.0110           0
     13576 MEMB     5        POPC     HA       HAL2     0.900000E-01   1.00800           0
     13577 MEMB     5        POPC     HB       HAL2     0.900000E-01   1.00800           0
     13578 MEMB     5        POPC     C2       CTL1     0.170000       12.0110           0
     13579 MEMB     5        POPC     HS       HAL1     0.900000E-01   1.00800           0
     13580 MEMB     5        POPC     O21      OSL     -0.490000       15.9994           0
     13581 MEMB     5        POPC     C21      CL       0.900000       12.0110           0
     13582 MEMB     5        POPC     O22      OBL     -0.630000       15.9994           0
     13583 MEMB     5        POPC     C22      CTL2    -0.220000       12.0110           0
     13584 MEMB     5        POPC     H2R      HAL2     0.900000E-01   1.00800           0
     13585 MEMB     5        POPC     H2S      HAL2     0.900000E-01   1.00800           0
     13586 MEMB     5        POPC     C3       CTL2     0.800000E-01   12.0110           0
     13587 MEMB     5        POPC     HX       HAL2     0.900000E-01   1.00800           0
     13588 MEMB     5        POPC     HY       HAL2     0.900000E-01   1.00800           0
     13589 MEMB     5        POPC     O31      OSL     -0.490000       15.9994           0
     13590 MEMB     5        POPC     C31      CL       0.900000       12.0110           0
     13591 MEMB     5        POPC     O32      OBL     -0.630000       15.9994           0
     13592 MEMB     5        POPC     C32      CTL2    -0.220000       12.0110           0
     13593 MEMB     5        POPC     H2X      HAL2     0.900000E-01   1.00800           0
     13594 MEMB     5        POPC     H2Y      HAL2     0.900000E-01   1.00800           0
     13595 MEMB     5        POPC     C23      CTL2    -0.180000       12.0110           0
     13596 MEMB     5        POPC     H3R      HAL2     0.900000E-01   1.00800           0
     13597 MEMB     5        POPC     H3S      HAL2     0.900000E-01   1.00800           0
     13598 MEMB     5        POPC     C24      CTL2    -0.180000       12.0110           0
     13599 MEMB     5        POPC     H4R      HAL2     0.900000E-01   1.00800           0
     13600 MEMB     5        POPC     H4S      HAL2     0.900000E-01   1.00800           0
     13601 MEMB     5        POPC     C25      CTL2    -0.180000       12.0110           0
     13602 MEMB     5        POPC     H5R      HAL2     0.900000E-01   1.00800           0
     13603 MEMB     5        POPC     H5S      HAL2     0.900000E-01   1.00800           0
     13604 MEMB     5        POPC     C26      CTL2    -0.180000       12.0110           0
     13605 MEMB     5        POPC     H6R      HAL2     0.900000E-01   1.00800           0
     13606 MEMB     5        POPC     H6S      HAL2     0.900000E-01   1.00800           0
     13607 MEMB     5        POPC     C27      CTL2    -0.180000       12.0110           0
     13608 MEMB     5        POPC     H7R      HAL2     0.900000E-01   1.00800           0
     13609 MEMB     5        POPC     H7S      HAL2     0.900000E-01   1.00800           0
     13610 MEMB     5        POPC     C28      CTL2    -0.180000       12.0110           0
     13611 MEMB     5        POPC     H8R      HAL2     0.900000E-01   1.00800           0
     13612 MEMB     5        POPC     H8S      HAL2     0.900000E-01   1.00800           0
     13613 MEMB     5        POPC     C29      CEL1    -0.150000       12.0110           0
     13614 MEMB     5        POPC     H91      HEL1     0.150000       1.00800           0
     13615 MEMB     5        POPC     C210     CEL1    -0.150000       12.0110           0
     13616 MEMB     5        POPC     H101     HEL1     0.150000       1.00800           0
     13617 MEMB     5        POPC     C211     CTL2    -0.180000       12.0110           0
     13618 MEMB     5        POPC     H11R     HAL2     0.900000E-01   1.00800           0
     13619 MEMB     5        POPC     H11S     HAL2     0.900000E-01   1.00800           0
     13620 MEMB     5        POPC     C212     CTL2    -0.180000       12.0110           0
     13621 MEMB     5        POPC     H12R     HAL2     0.900000E-01   1.00800           0
     13622 MEMB     5        POPC     H12S     HAL2     0.900000E-01   1.00800           0
     13623 MEMB     5        POPC     C213     CTL2    -0.180000       12.0110           0
     13624 MEMB     5        POPC     H13R     HAL2     0.900000E-01   1.00800           0
     13625 MEMB     5        POPC     H13S     HAL2     0.900000E-01   1.00800           0
     13626 MEMB     5        POPC     C214     CTL2    -0.180000       12.0110           0
     13627 MEMB     5        POPC     H14R     HAL2     0.900000E-01   1.00800           0
     13628 MEMB     5        POPC     H14S     HAL2     0.900000E-01   1.00800           0
     13629 MEMB     5        POPC     C215     CTL2    -0.180000       12.0110           0
     13630 MEMB     5        POPC     H15R     HAL2     0.900000E-01   1.00800           0
     13631 MEMB     5        POPC     H15S     HAL2     0.900000E-01   1.00800           0
     13632 MEMB     5        POPC     C216     CTL2    -0.180000       12.0110           0
     13633 MEMB     5        POPC     H16R     HAL2     0.900000E-01   1.00800           0
     13634 MEMB     5        POPC     H16S     HAL2     0.900000E-01   1.00800           0
     13635 MEMB     5        POPC     C217     CTL2    -0.180000       12.0110           0
     13636 MEMB     5        POPC     H17R     HAL2     0.900000E-01   1.00800           0
     13637 MEMB     5        POPC     H17S     HAL2     0.900000E-01   1.00800           0
     13638 MEMB     5        POPC     C218     CTL3    -0.270000       12.0110           0
     13639 MEMB     5        POPC     H18R     HAL3     0.900000E-01   1.00800           0
     13640 MEMB     5        POPC     H18S     HAL3     0.900000E-01   1.00800           0
     13641 MEMB     5        POPC     H18T     HAL3     0.900000E-01   1.00800           0
     13642 MEMB     5        POPC     C33      CTL2    -0.180000       12.0110           0
     13643 MEMB     5        POPC     H3X      HAL2     0.900000E-01   1.00800           0
     13644 MEMB     5        POPC     H3Y      HAL2     0.900000E-01   1.00800           0
     13645 MEMB     5        POPC     C34      CTL2    -0.180000       12.0110           0
     13646 MEMB     5        POPC     H4X      HAL2     0.900000E-01   1.00800           0
     13647 MEMB     5        POPC     H4Y      HAL2     0.900000E-01   1.00800           0
     13648 MEMB     5        POPC     C35      CTL2    -0.180000       12.0110           0
     13649 MEMB     5        POPC     H5X      HAL2     0.900000E-01   1.00800           0
     13650 MEMB     5        POPC     H5Y      HAL2     0.900000E-01   1.00800           0
     13651 MEMB     5        POPC     C36      CTL2    -0.180000       12.0110           0
     13652 MEMB     5        POPC     H6X      HAL2     0.900000E-01   1.00800           0
     13653 MEMB     5        POPC     H6Y      HAL2     0.900000E-01   1.00800           0
     13654 MEMB     5        POPC     C37      CTL2    -0.180000       12.0110           0
     13655 MEMB     5        POPC     H7X      HAL2     0.900000E-01   1.00800           0
     13656 MEMB     5        POPC     H7Y      HAL2     0.900000E-01   1.00800           0
     13657 MEMB     5        POPC     C38      CTL2    -0.180000       12.0110           0
     13658 MEMB     5        POPC     H8X      HAL2     0.900000E-01   1.00800           0
     13659 MEMB     5        POPC     H8Y      HAL2     0.900000E-01   1.00800           0
     13660 MEMB     5        POPC     C39      CTL2    -0.180000       12.0110           0
     13661 MEMB     5        POPC     H9X      HAL2     0.900000E-01   1.00800           0
     13662 MEMB     5        POPC     H9Y      HAL2     0.900000E-01   1.00800           0
     13663 MEMB     5        POPC     C310     CTL2    -0.180000       12.0110           0
     13664 MEMB     5        POPC     H10X     HAL2     0.900000E-01   1.00800           0
     13665 MEMB     5        POPC     H10Y     HAL2     0.900000E-01   1.00800           0
     13666 MEMB     5        POPC     C311     CTL2    -0.180000       12.0110           0
     13667 MEMB     5        POPC     H11X     HAL2     0.900000E-01   1.00800           0
     13668 MEMB     5        POPC     H11Y     HAL2     0.900000E-01   1.00800           0
     13669 MEMB     5        POPC     C312     CTL2    -0.180000       12.0110           0
     13670 MEMB     5        POPC     H12X     HAL2     0.900000E-01   1.00800           0
     13671 MEMB     5        POPC     H12Y     HAL2     0.900000E-01   1.00800           0
     13672 MEMB     5        POPC     C313     CTL2    -0.180000       12.0110           0
     13673 MEMB     5        POPC     H13X     HAL2     0.900000E-01   1.00800           0
     13674 MEMB     5        POPC     H13Y     HAL2     0.900000E-01   1.00800           0
     13675 MEMB     5        POPC     C314     CTL2    -0.180000       12.0110           0
     13676 MEMB     5        POPC     H14X     HAL2     0.900000E-01   1.00800           0
     13677 MEMB     5        POPC     H14Y     HAL2     0.900000E-01   1.00800           0
     13678 MEMB     5        POPC     C315     CTL2    -0.180000       12.0110           0
     13679 MEMB     5        POPC     H15X     HAL2     0.900000E-01   1.00800           0
     13680 MEMB     5        POPC     H15Y     HAL2     0.900000E-01   1.00800           0
     13681 MEMB     5        POPC     C316     CTL3    -0.270000       12.0110           0
     13682 MEMB     5        POPC     H16X     HAL3     0.900000E-01   1.00800           0
     13683 MEMB     5        POPC     H16Y     HAL3     0.900000E-01   1.00800           0
     13684 MEMB     5        POPC     H16Z     HAL3     0.900000E-01   1.00800           0
     13685 MEMB     11       POPC     N        NTL     -0.600000       14.0070           0
     13686 MEMB     11       POPC     C12      CTL2    -0.100000       12.0110           0
     13687 MEMB     11       POPC     H12A     HL       0.250000       1.00800           0
     13688 MEMB     11       POPC     H12B     HL       0.250000       1.00800           0
     13689 MEMB     11       POPC     C13      CTL5    -0.350000       12.0110           0
     13690 MEMB     11       POPC     H13A     HL       0.250000       1.00800           0
     13691 MEMB     11       POPC     H13B     HL       0.250000       1.00800           0
     13692 MEMB     11       POPC     H13C     HL       0.250000       1.00800           0
     13693 MEMB     11       POPC     C14      CTL5    -0.350000       12.0110           0
     13694 MEMB     11       POPC     H14A     HL       0.250000       1.00800           0
     13695 MEMB     11       POPC     H14B     HL       0.250000       1.00800           0
     13696 MEMB     11       POPC     H14C     HL       0.250000       1.00800           0
     13697 MEMB     11       POPC     C15      CTL5    -0.350000       12.0110           0
     13698 MEMB     11       POPC     H15A     HL       0.250000       1.00800           0
     13699 MEMB     11       POPC     H15B     HL       0.250000       1.00800           0
     13700 MEMB     11       POPC     H15C     HL       0.250000       1.00800           0
     13701 MEMB     11       POPC     C11      CTL2    -0.800000E-01   12.0110           0
     13702 MEMB     11       POPC     H11A     HAL2     0.900000E-01   1.00800           0
     13703 MEMB     11       POPC     H11B     HAL2     0.900000E-01   1.00800           0
     13704 MEMB     11       POPC     P        PL       1.500000       30.9740           0
     13705 MEMB     11       POPC     O13      O2L     -0.780000       15.9994           0
     13706 MEMB     11       POPC     O14      O2L     -0.780000       15.9994           0
     13707 MEMB     11       POPC     O12      OSLP    -0.570000       15.9994           0
     13708 MEMB     11       POPC     O11      OSLP    -0.570000       15.9994           0
     13709 MEMB     11       POPC     C1       CTL2    -0.800000E-01   12.0110           0
     13710 MEMB     11       POPC     HA       HAL2     0.900000E-01   1.00800           0
     13711 MEMB     11       POPC     HB       HAL2     0.900000E-01   1.00800           0
     13712 MEMB     11       POPC     C2       CTL1     0.170000       12.0110           0
     13713 MEMB     11       POPC     HS       HAL1     0.900000E-01   1.00800           0
     13714 MEMB     11       POPC     O21      OSL     -0.490000       15.9994           0
     13715 MEMB     11       POPC     C21      CL       0.900000       12.0110           0
     13716 MEMB     11       POPC     O22      OBL     -0.630000       15.9994           0
     13717 MEMB     11       POPC     C22      CTL2    -0.220000       12.0110           0
     13718 MEMB     11       POPC     H2R      HAL2     0.900000E-01   1.00800           0
     13719 MEMB     11       POPC     H2S      HAL2     0.900000E-01   1.00800           0
     13720 MEMB     11       POPC     C3       CTL2     0.800000E-01   12.0110           0
     13721 MEMB     11       POPC     HX       HAL2     0.900000E-01   1.00800           0
     13722 MEMB     11       POPC     HY       HAL2     0.900000E-01   1.00800           0
     13723 MEMB     11       POPC     O31      OSL     -0.490000       15.9994           0
     13724 MEMB     11       POPC     C31      CL       0.900000       12.0110           0
     13725 MEMB     11       POPC     O32      OBL     -0.630000       15.9994           0
     13726 MEMB     11       POPC     C32      CTL2    -0.220000       12.0110           0
     13727 MEMB     11       POPC     H2X      HAL2     0.900000E-01   1.00800           0
     13728 MEMB     11       POPC     H2Y      HAL2     0.900000E-01   1.00800           0
     13729 MEMB     11       POPC     C23      CTL2    -0.180000       12.0110           0
     13730 MEMB     11       POPC     H3R      HAL2     0.900000E-01   1.00800           0
     13731 MEMB     11       POPC     H3S      HAL2     0.900000E-01   1.00800           0
     13732 MEMB     11       POPC     C24      CTL2    -0.180000       12.0110           0
     13733 MEMB     11       POPC     H4R      HAL2     0.900000E-01   1.00800           0
     13734 MEMB     11       POPC     H4S      HAL2     0.900000E-01   1.00800           0
     13735 MEMB     11       POPC     C25      CTL2    -0.180000       12.0110           0
     13736 MEMB     11       POPC     H5R      HAL2     0.900000E-01   1.00800           0
     13737 MEMB     11       POPC     H5S      HAL2     0.900000E-01   1.00800           0
     13738 MEMB     11       POPC     C26      CTL2    -0.180000       12.0110           0
     13739 MEMB     11       POPC     H6R      HAL2     0.900000E-01   1.00800           0
     13740 MEMB     11       POPC     H6S      HAL2     0.900000E-01   1.00800           0
     13741 MEMB     11       POPC     C27      CTL2    -0.180000       12.0110           0
     13742 MEMB     11       POPC     H7R      HAL2     0.900000E-01   1.00800           0
     13743 MEMB     11       POPC     H7S      HAL2     0.900000E-01   1.00800           0
     13744 MEMB     11       POPC     C28      CTL2    -0.180000       12.0110           0
     13745 MEMB     11       POPC     H8R      HAL2     0.900000E-01   1.00800           0
     13746 MEMB     11       POPC     H8S      HAL2     0.900000E-01   1.00800           0
     13747 MEMB     11       POPC     C29      CEL1    -0.150000       12.0110           0
     13748 MEMB     11       POPC     H91      HEL1     0.150000       1.00800           0
     13749 MEMB     11       POPC     C210     CEL1    -0.150000       12.0110           0
     13750 MEMB     11       POPC     H101     HEL1     0.150000       1.00800           0
     13751 MEMB     11       POPC     C211     CTL2    -0.180000       12.0110           0
     13752 MEMB     11       POPC     H11R     HAL2     0.900000E-01   1.00800           0
     13753 MEMB     11       POPC     H11S     HAL2     0.900000E-01   1.00800           0
     13754 MEMB     11       POPC     C212     CTL2    -0.180000       12.0110           0
     13755 MEMB     11       POPC     H12R     HAL2     0.900000E-01   1.00800           0
     13756 MEMB     11       POPC     H12S     HAL2     0.900000E-01   1.00800           0
     13757 MEMB     11       POPC     C213     CTL2    -0.180000       12.0110           0
     13758 MEMB     11       POPC     H13R     HAL2     0.900000E-01   1.00800           0
     13759 MEMB     11       POPC     H13S     HAL2     0.900000E-01   1.00800           0
     13760 MEMB     11       POPC     C214     CTL2    -0.180000       12.0110           0
     13761 MEMB     11       POPC     H14R     HAL2     0.900000E-01   1.00800           0
     13762 MEMB     11       POPC     H14S     HAL2     0.900000E-01   1.00800           0
     13763 MEMB     11       POPC     C215     CTL2    -0.180000       12.0110           0
     13764 MEMB     11       POPC     H15R     HAL2     0.900000E-01   1.00800           0
     13765 MEMB     11       POPC     H15S     HAL2     0.900000E-01   1.00800           0
     13766 MEMB     11       POPC     C216     CTL2    -0.180000       12.0110           0
     13767 MEMB     11       POPC     H16R     HAL2     0.900000E-01   1.00800           0
     13768 MEMB     11       POPC     H16S     HAL2     0.900000E-01   1.00800           0
     13769 MEMB     11       POPC     C217     CTL2    -0.180000       12.0110           0
     13770 MEMB     11       POPC     H17R     HAL2     0.900000E-01   1.00800           0
     13771 MEMB     11       POPC     H17S     HAL2     0.900000E-01   1.00800           0
     13772 MEMB     11       POPC     C218     CTL3    -0.270000       12.0110           0
     13773 MEMB     11       POPC     H18R     HAL3     0.900000E-01   1.00800           0
     13774 MEMB     11       POPC     H18S     HAL3     0.900000E-01   1.00800           0
     13775 MEMB     11       POPC     H18T     HAL3     0.900000E-01   1.00800           0
     13776 MEMB     11       POPC     C33      CTL2    -0.180000       12.0110           0
     13777 MEMB     11       POPC     H3X      HAL2     0.900000E-01   1.00800           0
     13778 MEMB     11       POPC     H3Y      HAL2     0.900000E-01   1.00800           0
     13779 MEMB     11       POPC     C34      CTL2    -0.180000       12.0110           0
     13780 MEMB     11       POPC     H4X      HAL2     0.900000E-01   1.00800           0
     13781 MEMB     11       POPC     H4Y      HAL2     0.900000E-01   1.00800           0
     13782 MEMB     11       POPC     C35      CTL2    -0.180000       12.0110           0
     13783 MEMB     11       POPC     H5X      HAL2     0.900000E-01   1.00800           0
     13784 MEMB     11       POPC     H5Y      HAL2     0.900000E-01   1.00800           0
     13785 MEMB     11       POPC     C36      CTL2    -0.180000       12.0110           0
     13786 MEMB     11       POPC     H6X      HAL2     0.900000E-01   1.00800           0
     13787 MEMB     11       POPC     H6Y      HAL2     0.900000E-01   1.00800           0
     13788 MEMB     11       POPC     C37      CTL2    -0.180000       12.0110           0
     13789 MEMB     11       POPC     H7X      HAL2     0.900000E-01   1.00800           0
     13790 MEMB     11       POPC     H7Y      HAL2     0.900000E-01   1.00800           0
     13791 MEMB     11       POPC     C38      CTL2    -0.180000       12.0110           0
     13792 MEMB     11       POPC     H8X      HAL2     0.900000E-01   1.00800           0
     13793 MEMB     11       POPC     H8Y      HAL2     0.900000E-01   1.00800           0
     13794 MEMB     11       POPC     C39      CTL2    -0.180000       12.0110           0
     13795 MEMB     11       POPC     H9X      HAL2     0.900000E-01   1.00800           0
     13796 MEMB     11       POPC     H9Y      HAL2     0.900000E-01   1.00800           0
     13797 MEMB     11       POPC     C310     CTL2    -0.180000       12.0110           0
     13798 MEMB     11       POPC     H10X     HAL2     0.900000E-01   1.00800           0
     13799 MEMB     11       POPC     H10Y     HAL2     0.900000E-01   1.00800           0
     13800 MEMB     11       POPC     C311     CTL2    -0.180000       12.0110           0
     13801 MEMB     11       POPC     H11X     HAL2     0.900000E-01   1.00800           0
     13802 MEMB     11       POPC     H11Y     HAL2     0.900000E-01   1.00800           0
     13803 MEMB     11       POPC     C312     CTL2    -0.180000       12.0110           0
     13804 MEMB     11       POPC     H12X     HAL2     0.900000E-01   1.00800           0
     13805 MEMB     11       POPC     H12Y     HAL2     0.900000E-01   1.00800           0
     13806 MEMB     11       POPC     C313     CTL2    -0.180000       12.0110           0
     13807 MEMB     11       POPC     H13X     HAL2     0.900000E-01   1.00800           0
     13808 MEMB     11       POPC     H13Y     HAL2     0.900000E-01   1.00800           0
     13809 MEMB     11       POPC     C314     CTL2    -0.180000       12.0110           0
     13810 MEMB     11       POPC     H14X     HAL2     0.900000E-01   1.00800           0
     13811 MEMB     11       POPC     H14Y     HAL2     0.900000E-01   1.00800           0
     13812 MEMB     11       POPC     C315     CTL2    -0.180000       12.0110           0
     13813 MEMB     11       POPC     H15X     HAL2     0.900000E-01   1.00800           0
     13814 MEMB     11       POPC     H15Y     HAL2     0.900000E-01   1.00800           0
     13815 MEMB     11       POPC     C316     CTL3    -0.270000       12.0110           0
     13816 MEMB     11       POPC     H16X     HAL3     0.900000E-01   1.00800           0
     13817 MEMB     11       POPC     H16Y     HAL3     0.900000E-01   1.00800           0
     13818 MEMB     11       POPC     H16Z     HAL3     0.900000E-01   1.00800           0
     13819 MEMB     12       POPC     N        NTL     -0.600000       14.0070           0
     13820 MEMB     12       POPC     C12      CTL2    -0.100000       12.0110           0
     13821 MEMB     12       POPC     H12A     HL       0.250000       1.00800           0
     13822 MEMB     12       POPC     H12B     HL       0.250000       1.00800           0
     13823 MEMB     12       POPC     C13      CTL5    -0.350000       12.0110           0
     13824 MEMB     12       POPC     H13A     HL       0.250000       1.00800           0
     13825 MEMB     12       POPC     H13B     HL       0.250000       1.00800           0
     13826 MEMB     12       POPC     H13C     HL       0.250000       1.00800           0
     13827 MEMB     12       POPC     C14      CTL5    -0.350000       12.0110           0
     13828 MEMB     12       POPC     H14A     HL       0.250000       1.00800           0
     13829 MEMB     12       POPC     H14B     HL       0.250000       1.00800           0
     13830 MEMB     12       POPC     H14C     HL       0.250000       1.00800           0
     13831 MEMB     12       POPC     C15      CTL5    -0.350000       12.0110           0
     13832 MEMB     12       POPC     H15A     HL       0.250000       1.00800           0
     13833 MEMB     12       POPC     H15B     HL       0.250000       1.00800           0
     13834 MEMB     12       POPC     H15C     HL       0.250000       1.00800           0
     13835 MEMB     12       POPC     C11      CTL2    -0.800000E-01   12.0110           0
     13836 MEMB     12       POPC     H11A     HAL2     0.900000E-01   1.00800           0
     13837 MEMB     12       POPC     H11B     HAL2     0.900000E-01   1.00800           0
     13838 MEMB     12       POPC     P        PL       1.500000       30.9740           0
     13839 MEMB     12       POPC     O13      O2L     -0.780000       15.9994           0
     13840 MEMB     12       POPC     O14      O2L     -0.780000       15.9994           0
     13841 MEMB     12       POPC     O12      OSLP    -0.570000       15.9994           0
     13842 MEMB     12       POPC     O11      OSLP    -0.570000       15.9994           0
     13843 MEMB     12       POPC     C1       CTL2    -0.800000E-01   12.0110           0
     13844 MEMB     12       POPC     HA       HAL2     0.900000E-01   1.00800           0
     13845 MEMB     12       POPC     HB       HAL2     0.900000E-01   1.00800           0
     13846 MEMB     12       POPC     C2       CTL1     0.170000       12.0110           0
     13847 MEMB     12       POPC     HS       HAL1     0.900000E-01   1.00800           0
     13848 MEMB     12       POPC     O21      OSL     -0.490000       15.9994           0
     13849 MEMB     12       POPC     C21      CL       0.900000       12.0110           0
     13850 MEMB     12       POPC     O22      OBL     -0.630000       15.9994           0
     13851 MEMB     12       POPC     C22      CTL2    -0.220000       12.0110           0
     13852 MEMB     12       POPC     H2R      HAL2     0.900000E-01   1.00800           0
     13853 MEMB     12       POPC     H2S      HAL2     0.900000E-01   1.00800           0
     13854 MEMB     12       POPC     C3       CTL2     0.800000E-01   12.0110           0
     13855 MEMB     12       POPC     HX       HAL2     0.900000E-01   1.00800           0
     13856 MEMB     12       POPC     HY       HAL2     0.900000E-01   1.00800           0
     13857 MEMB     12       POPC     O31      OSL     -0.490000       15.9994           0
     13858 MEMB     12       POPC     C31      CL       0.900000       12.0110           0
     13859 MEMB     12       POPC     O32      OBL     -0.630000       15.9994           0
     13860 MEMB     12       POPC     C32      CTL2    -0.220000       12.0110           0
     13861 MEMB     12       POPC     H2X      HAL2     0.900000E-01   1.00800           0
     13862 MEMB     12       POPC     H2Y      HAL2     0.900000E-01   1.00800           0
     13863 MEMB     12       POPC     C23      CTL2    -0.180000       12.0110           0
     13864 MEMB     12       POPC     H3R      HAL2     0.900000E-01   1.00800           0
     13865 MEMB     12       POPC     H3S      HAL2     0.900000E-01   1.00800           0
     13866 MEMB     12       POPC     C24      CTL2    -0.180000       12.0110           0
     13867 MEMB     12       POPC     H4R      HAL2     0.900000E-01   1.00800           0
     13868 MEMB     12       POPC     H4S      HAL2     0.900000E-01   1.00800           0
     13869 MEMB     12       POPC     C25      CTL2    -0.180000       12.0110           0
     13870 MEMB     12       POPC     H5R      HAL2     0.900000E-01   1.00800           0
     13871 MEMB     12       POPC     H5S      HAL2     0.900000E-01   1.00800           0
     13872 MEMB     12       POPC     C26      CTL2    -0.180000       12.0110           0
     13873 MEMB     12       POPC     H6R      HAL2     0.900000E-01   1.00800           0
     13874 MEMB     12       POPC     H6S      HAL2     0.900000E-01   1.00800           0
     13875 MEMB     12       POPC     C27      CTL2    -0.180000       12.0110           0
     13876 MEMB     12       POPC     H7R      HAL2     0.900000E-01   1.00800           0
     13877 MEMB     12       POPC     H7S      HAL2     0.900000E-01   1.00800           0
     13878 MEMB     12       POPC     C28      CTL2    -0.180000       12.0110           0
     13879 MEMB     12       POPC     H8R      HAL2     0.900000E-01   1.00800           0
     13880 MEMB     12       POPC     H8S      HAL2     0.900000E-01   1.00800           0
     13881 MEMB     12       POPC     C29      CEL1    -0.150000       12.0110           0
     13882 MEMB     12       POPC     H91      HEL1     0.150000       1.00800           0
     13883 MEMB     12       POPC     C210     CEL1    -0.150000       12.0110           0
     13884 MEMB     12       POPC     H101     HEL1     0.150000       1.00800           0
     13885 MEMB     12       POPC     C211     CTL2    -0.180000       12.0110           0
     13886 MEMB     12       POPC     H11R     HAL2     0.900000E-01   1.00800           0
     13887 MEMB     12       POPC     H11S     HAL2     0.900000E-01   1.00800           0
     13888 MEMB     12       POPC     C212     CTL2    -0.180000       12.0110           0
     13889 MEMB     12       POPC     H12R     HAL2     0.900000E-01   1.00800           0
     13890 MEMB     12       POPC     H12S     HAL2     0.900000E-01   1.00800           0
     13891 MEMB     12       POPC     C213     CTL2    -0.180000       12.0110           0
     13892 MEMB     12       POPC     H13R     HAL2     0.900000E-01   1.00800           0
     13893 MEMB     12       POPC     H13S     HAL2     0.900000E-01   1.00800           0
     13894 MEMB     12       POPC     C214     CTL2    -0.180000       12.0110           0
     13895 MEMB     12       POPC     H14R     HAL2     0.900000E-01   1.00800           0
     13896 MEMB     12       POPC     H14S     HAL2     0.900000E-01   1.00800           0
     13897 MEMB     12       POPC     C215     CTL2    -0.180000       12.0110           0
     13898 MEMB     12       POPC     H15R     HAL2     0.900000E-01   1.00800           0
     13899 MEMB     12       POPC     H15S     HAL2     0.900000E-01   1.00800           0
     13900 MEMB     12       POPC     C216     CTL2    -0.180000       12.0110           0
     13901 MEMB     12       POPC     H16R     HAL2     0.900000E-01   1.00800           0
     13902 MEMB     12       POPC     H16S     HAL2     0.900000E-01   1.00800           0
     13903 MEMB     12       POPC     C217     CTL2    -0.180000       12.0110           0
     13904 MEMB     12       POPC     H17R     HAL2     0.900000E-01   1.00800           0
     13905 MEMB     12       POPC     H17S     HAL2     0.900000E-01   1.00800           0
     13906 MEMB     12       POPC     C218     CTL3    -0.270000       12.0110           0
     13907 MEMB     12       POPC     H18R     HAL3     0.900000E-01   1.00800           0
     13908 MEMB     12       POPC     H18S     HAL3     0.900000E-01   1.00800           0
     13909 MEMB     12       POPC     H18T     HAL3     0.900000E-01   1.00800           0
     13910 MEMB     12       POPC     C33      CTL2    -0.180000       12.0110           0
     13911 MEMB     12       POPC     H3X      HAL2     0.900000E-01   1.00800           0
     13912 MEMB     12       POPC     H3Y      HAL2     0.900000E-01   1.00800           0
     13913 MEMB     12       POPC     C34      CTL2    -0.180000       12.0110           0
     13914 MEMB     12       POPC     H4X      HAL2     0.900000E-01   1.00800           0
     13915 MEMB     12       POPC     H4Y      HAL2     0.900000E-01   1.00800           0
     13916 MEMB     12       POPC     C35      CTL2    -0.180000       12.0110           0
     13917 MEMB     12       POPC     H5X      HAL2     0.900000E-01   1.00800           0
     13918 MEMB     12       POPC     H5Y      HAL2     0.900000E-01   1.00800           0
     13919 MEMB     12       POPC     C36      CTL2    -0.180000       12.0110           0
     13920 MEMB     12       POPC     H6X      HAL2     0.900000E-01   1.00800           0
     13921 MEMB     12       POPC     H6Y      HAL2     0.900000E-01   1.00800           0
     13922 MEMB     12       POPC     C37      CTL2    -0.180000       12.0110           0
     13923 MEMB     12       POPC     H7X      HAL2     0.900000E-01   1.00800           0
     13924 MEMB     12       POPC     H7Y      HAL2     0.900000E-01   1.00800           0
     13925 MEMB     12       POPC     C38      CTL2    -0.180000       12.0110           0
     13926 MEMB     12       POPC     H8X      HAL2     0.900000E-01   1.00800           0
     13927 MEMB     12       POPC     H8Y      HAL2     0.900000E-01   1.00800           0
     13928 MEMB     12       POPC     C39      CTL2    -0.180000       12.0110           0
     13929 MEMB     12       POPC     H9X      HAL2     0.900000E-01   1.00800           0
     13930 MEMB     12       POPC     H9Y      HAL2     0.900000E-01   1.00800           0
     13931 MEMB     12       POPC     C310     CTL2    -0.180000       12.0110           0
     13932 MEMB     12       POPC     H10X     HAL2     0.900000E-01   1.00800           0
     13933 MEMB     12       POPC     H10Y     HAL2     0.900000E-01   1.00800           0
     13934 MEMB     12       POPC     C311     CTL2    -0.180000       12.0110           0
     13935 MEMB     12       POPC     H11X     HAL2     0.900000E-01   1.00800           0
     13936 MEMB     12       POPC     H11Y     HAL2     0.900000E-01   1.00800           0
     13937 MEMB     12       POPC     C312     CTL2    -0.180000       12.0110           0
     13938 MEMB     12       POPC     H12X     HAL2     0.900000E-01   1.00800           0
     13939 MEMB     12       POPC     H12Y     HAL2     0.900000E-01   1.00800           0
     13940 MEMB     12       POPC     C313     CTL2    -0.180000       12.0110           0
     13941 MEMB     12       POPC     H13X     HAL2     0.900000E-01   1.00800           0
     13942 MEMB     12       POPC     H13Y     HAL2     0.900000E-01   1.00800           0
     13943 MEMB     12       POPC     C314     CTL2    -0.180000       12.0110           0
     13944 MEMB     12       POPC     H14X     HAL2     0.900000E-01   1.00800           0
     13945 MEMB     12       POPC     H14Y     HAL2     0.900000E-01   1.00800           0
     13946 MEMB     12       POPC     C315     CTL2    -0.180000       12.0110           0
     13947 MEMB     12       POPC     H15X     HAL2     0.900000E-01   1.00800           0
     13948 MEMB     12       POPC     H15Y     HAL2     0.900000E-01   1.00800           0
     13949 MEMB     12       POPC     C316     CTL3    -0.270000       12.0110           0
     13950 MEMB     12       POPC     H16X     HAL3     0.900000E-01   1.00800           0
     13951 MEMB     12       POPC     H16Y     HAL3     0.900000E-01   1.00800           0
     13952 MEMB     12       POPC     H16Z     HAL3     0.900000E-01   1.00800           0
     13953 MEMB     15       POPC     N        NTL     -0.600000       14.0070           0
     13954 MEMB     15       POPC     C12      CTL2    -0.100000       12.0110           0
     13955 MEMB     15       POPC     H12A     HL       0.250000       1.00800           0
     13956 MEMB     15       POPC     H12B     HL       0.250000       1.00800           0
     13957 MEMB     15       POPC     C13      CTL5    -0.350000       12.0110           0
     13958 MEMB     15       POPC     H13A     HL       0.250000       1.00800           0
     13959 MEMB     15       POPC     H13B     HL       0.250000       1.00800           0
     13960 MEMB     15       POPC     H13C     HL       0.250000       1.00800           0
     13961 MEMB     15       POPC     C14      CTL5    -0.350000       12.0110           0
     13962 MEMB     15       POPC     H14A     HL       0.250000       1.00800           0
     13963 MEMB     15       POPC     H14B     HL       0.250000       1.00800           0
     13964 MEMB     15       POPC     H14C     HL       0.250000       1.00800           0
     13965 MEMB     15       POPC     C15      CTL5    -0.350000       12.0110           0
     13966 MEMB     15       POPC     H15A     HL       0.250000       1.00800           0
     13967 MEMB     15       POPC     H15B     HL       0.250000       1.00800           0
     13968 MEMB     15       POPC     H15C     HL       0.250000       1.00800           0
     13969 MEMB     15       POPC     C11      CTL2    -0.800000E-01   12.0110           0
     13970 MEMB     15       POPC     H11A     HAL2     0.900000E-01   1.00800           0
     13971 MEMB     15       POPC     H11B     HAL2     0.900000E-01   1.00800           0
     13972 MEMB     15       POPC     P        PL       1.500000       30.9740           0
     13973 MEMB     15       POPC     O13      O2L     -0.780000       15.9994           0
     13974 MEMB     15       POPC     O14      O2L     -0.780000       15.9994           0
     13975 MEMB     15       POPC     O12      OSLP    -0.570000       15.9994           0
     13976 MEMB     15       POPC     O11      OSLP    -0.570000       15.9994           0
     13977 MEMB     15       POPC     C1       CTL2    -0.800000E-01   12.0110           0
     13978 MEMB     15       POPC     HA       HAL2     0.900000E-01   1.00800           0
     13979 MEMB     15       POPC     HB       HAL2     0.900000E-01   1.00800           0
     13980 MEMB     15       POPC     C2       CTL1     0.170000       12.0110           0
     13981 MEMB     15       POPC     HS       HAL1     0.900000E-01   1.00800           0
     13982 MEMB     15       POPC     O21      OSL     -0.490000       15.9994           0
     13983 MEMB     15       POPC     C21      CL       0.900000       12.0110           0
     13984 MEMB     15       POPC     O22      OBL     -0.630000       15.9994           0
     13985 MEMB     15       POPC     C22      CTL2    -0.220000       12.0110           0
     13986 MEMB     15       POPC     H2R      HAL2     0.900000E-01   1.00800           0
     13987 MEMB     15       POPC     H2S      HAL2     0.900000E-01   1.00800           0
     13988 MEMB     15       POPC     C3       CTL2     0.800000E-01   12.0110           0
     13989 MEMB     15       POPC     HX       HAL2     0.900000E-01   1.00800           0
     13990 MEMB     15       POPC     HY       HAL2     0.900000E-01   1.00800           0
     13991 MEMB     15       POPC     O31      OSL     -0.490000       15.9994           0
     13992 MEMB     15       POPC     C31      CL       0.900000       12.0110           0
     13993 MEMB     15       POPC     O32      OBL     -0.630000       15.9994           0
     13994 MEMB     15       POPC     C32      CTL2    -0.220000       12.0110           0
     13995 MEMB     15       POPC     H2X      HAL2     0.900000E-01   1.00800           0
     13996 MEMB     15       POPC     H2Y      HAL2     0.900000E-01   1.00800           0
     13997 MEMB     15       POPC     C23      CTL2    -0.180000       12.0110           0
     13998 MEMB     15       POPC     H3R      HAL2     0.900000E-01   1.00800           0
     13999 MEMB     15       POPC     H3S      HAL2     0.900000E-01   1.00800           0
     14000 MEMB     15       POPC     C24      CTL2    -0.180000       12.0110           0
     14001 MEMB     15       POPC     H4R      HAL2     0.900000E-01   1.00800           0
     14002 MEMB     15       POPC     H4S      HAL2     0.900000E-01   1.00800           0
     14003 MEMB     15       POPC     C25      CTL2    -0.180000       12.0110           0
     14004 MEMB     15       POPC     H5R      HAL2     0.900000E-01   1.00800           0
     14005 MEMB     15       POPC     H5S      HAL2     0.900000E-01   1.00800           0
     14006 MEMB     15       POPC     C26      CTL2    -0.180000       12.0110           0
     14007 MEMB     15       POPC     H6R      HAL2     0.900000E-01   1.00800           0
     14008 MEMB     15       POPC     H6S      HAL2     0.900000E-01   1.00800           0
     14009 MEMB     15       POPC     C27      CTL2    -0.180000       12.0110           0
     14010 MEMB     15       POPC     H7R      HAL2     0.900000E-01   1.00800           0
     14011 MEMB     15       POPC     H7S      HAL2     0.900000E-01   1.00800           0
     14012 MEMB     15       POPC     C28      CTL2    -0.180000       12.0110           0
     14013 MEMB     15       POPC     H8R      HAL2     0.900000E-01   1.00800           0
     14014 MEMB     15       POPC     H8S      HAL2     0.900000E-01   1.00800           0
     14015 MEMB     15       POPC     C29      CEL1    -0.150000       12.0110           0
     14016 MEMB     15       POPC     H91      HEL1     0.150000       1.00800           0
     14017 MEMB     15       POPC     C210     CEL1    -0.150000       12.0110           0
     14018 MEMB     15       POPC     H101     HEL1     0.150000       1.00800           0
     14019 MEMB     15       POPC     C211     CTL2    -0.180000       12.0110           0
     14020 MEMB     15       POPC     H11R     HAL2     0.900000E-01   1.00800           0
     14021 MEMB     15       POPC     H11S     HAL2     0.900000E-01   1.00800           0
     14022 MEMB     15       POPC     C212     CTL2    -0.180000       12.0110           0
     14023 MEMB     15       POPC     H12R     HAL2     0.900000E-01   1.00800           0
     14024 MEMB     15       POPC     H12S     HAL2     0.900000E-01   1.00800           0
     14025 MEMB     15       POPC     C213     CTL2    -0.180000       12.0110           0
     14026 MEMB     15       POPC     H13R     HAL2     0.900000E-01   1.00800           0
     14027 MEMB     15       POPC     H13S     HAL2     0.900000E-01   1.00800           0
     14028 MEMB     15       POPC     C214     CTL2    -0.180000       12.0110           0
     14029 MEMB     15       POPC     H14R     HAL2     0.900000E-01   1.00800           0
     14030 MEMB     15       POPC     H14S     HAL2     0.900000E-01   1.00800           0
     14031 MEMB     15       POPC     C215     CTL2    -0.180000       12.0110           0
     14032 MEMB     15       POPC     H15R     HAL2     0.900000E-01   1.00800           0
     14033 MEMB     15       POPC     H15S     HAL2     0.900000E-01   1.00800           0
     14034 MEMB     15       POPC     C216     CTL2    -0.180000       12.0110           0
     14035 MEMB     15       POPC     H16R     HAL2     0.900000E-01   1.00800           0
     14036 MEMB     15       POPC     H16S     HAL2     0.900000E-01   1.00800           0
     14037 MEMB     15       POPC     C217     CTL2    -0.180000       12.0110           0
     14038 MEMB     15       POPC     H17R     HAL2     0.900000E-01   1.00800           0
     14039 MEMB     15       POPC     H17S     HAL2     0.900000E-01   1.00800           0
     14040 MEMB     15       POPC     C218     CTL3    -0.270000       12.0110           0
     14041 MEMB     15       POPC     H18R     HAL3     0.900000E-01   1.00800           0
     14042 MEMB     15       POPC     H18S     HAL3     0.900000E-01   1.00800           0
     14043 MEMB     15       POPC     H18T     HAL3     0.900000E-01   1.00800           0
     14044 MEMB     15       POPC     C33      CTL2    -0.180000       12.0110           0
     14045 MEMB     15       POPC     H3X      HAL2     0.900000E-01   1.00800           0
     14046 MEMB     15       POPC     H3Y      HAL2     0.900000E-01   1.00800           0
     14047 MEMB     15       POPC     C34      CTL2    -0.180000       12.0110           0
     14048 MEMB     15       POPC     H4X      HAL2     0.900000E-01   1.00800           0
     14049 MEMB     15       POPC     H4Y      HAL2     0.900000E-01   1.00800           0
     14050 MEMB     15       POPC     C35      CTL2    -0.180000       12.0110           0
     14051 MEMB     15       POPC     H5X      HAL2     0.900000E-01   1.00800           0
     14052 MEMB     15       POPC     H5Y      HAL2     0.900000E-01   1.00800           0
     14053 MEMB     15       POPC     C36      CTL2    -0.180000       12.0110           0
     14054 MEMB     15       POPC     H6X      HAL2     0.900000E-01   1.00800           0
     14055 MEMB     15       POPC     H6Y      HAL2     0.900000E-01   1.00800           0
     14056 MEMB     15       POPC     C37      CTL2    -0.180000       12.0110           0
     14057 MEMB     15       POPC     H7X      HAL2     0.900000E-01   1.00800           0
     14058 MEMB     15       POPC     H7Y      HAL2     0.900000E-01   1.00800           0
     14059 MEMB     15       POPC     C38      CTL2    -0.180000       12.0110           0
     14060 MEMB     15       POPC     H8X      HAL2     0.900000E-01   1.00800           0
     14061 MEMB     15       POPC     H8Y      HAL2     0.900000E-01   1.00800           0
     14062 MEMB     15       POPC     C39      CTL2    -0.180000       12.0110           0
     14063 MEMB     15       POPC     H9X      HAL2     0.900000E-01   1.00800           0
     14064 MEMB     15       POPC     H9Y      HAL2     0.900000E-01   1.00800           0
     14065 MEMB     15       POPC     C310     CTL2    -0.180000       12.0110           0
     14066 MEMB     15       POPC     H10X     HAL2     0.900000E-01   1.00800           0
     14067 MEMB     15       POPC     H10Y     HAL2     0.900000E-01   1.00800           0
     14068 MEMB     15       POPC     C311     CTL2    -0.180000       12.0110           0
     14069 MEMB     15       POPC     H11X     HAL2     0.900000E-01   1.00800           0
     14070 MEMB     15       POPC     H11Y     HAL2     0.900000E-01   1.00800           0
     14071 MEMB     15       POPC     C312     CTL2    -0.180000       12.0110           0
     14072 MEMB     15       POPC     H12X     HAL2     0.900000E-01   1.00800           0
     14073 MEMB     15       POPC     H12Y     HAL2     0.900000E-01   1.00800           0
     14074 MEMB     15       POPC     C313     CTL2    -0.180000       12.0110           0
     14075 MEMB     15       POPC     H13X     HAL2     0.900000E-01   1.00800           0
     14076 MEMB     15       POPC     H13Y     HAL2     0.900000E-01   1.00800           0
     14077 MEMB     15       POPC     C314     CTL2    -0.180000       12.0110           0
     14078 MEMB     15       POPC     H14X     HAL2     0.900000E-01   1.00800           0
     14079 MEMB     15       POPC     H14Y     HAL2     0.900000E-01   1.00800           0
     14080 MEMB     15       POPC     C315     CTL2    -0.180000       12.0110           0
     14081 MEMB     15       POPC     H15X     HAL2     0.900000E-01   1.00800           0
     14082 MEMB     15       POPC     H15Y     HAL2     0.900000E-01   1.00800           0
     14083 MEMB     15       POPC     C316     CTL3    -0.270000       12.0110           0
     14084 MEMB     15       POPC     H16X     HAL3     0.900000E-01   1.00800           0
     14085 MEMB     15       POPC     H16Y     HAL3     0.900000E-01   1.00800           0
     14086 MEMB     15       POPC     H16Z     HAL3     0.900000E-01   1.00800           0
     14087 MEMB     17       POPC     N        NTL     -0.600000       14.0070           0
     14088 MEMB     17       POPC     C12      CTL2    -0.100000       12.0110           0
     14089 MEMB     17       POPC     H12A     HL       0.250000       1.00800           0
     14090 MEMB     17       POPC     H12B     HL       0.250000       1.00800           0
     14091 MEMB     17       POPC     C13      CTL5    -0.350000       12.0110           0
     14092 MEMB     17       POPC     H13A     HL       0.250000       1.00800           0
     14093 MEMB     17       POPC     H13B     HL       0.250000       1.00800           0
     14094 MEMB     17       POPC     H13C     HL       0.250000       1.00800           0
     14095 MEMB     17       POPC     C14      CTL5    -0.350000       12.0110           0
     14096 MEMB     17       POPC     H14A     HL       0.250000       1.00800           0
     14097 MEMB     17       POPC     H14B     HL       0.250000       1.00800           0
     14098 MEMB     17       POPC     H14C     HL       0.250000       1.00800           0
     14099 MEMB     17       POPC     C15      CTL5    -0.350000       12.0110           0
     14100 MEMB     17       POPC     H15A     HL       0.250000       1.00800           0
     14101 MEMB     17       POPC     H15B     HL       0.250000       1.00800           0
     14102 MEMB     17       POPC     H15C     HL       0.250000       1.00800           0
     14103 MEMB     17       POPC     C11      CTL2    -0.800000E-01   12.0110           0
     14104 MEMB     17       POPC     H11A     HAL2     0.900000E-01   1.00800           0
     14105 MEMB     17       POPC     H11B     HAL2     0.900000E-01   1.00800           0
     14106 MEMB     17       POPC     P        PL       1.500000       30.9740           0
     14107 MEMB     17       POPC     O13      O2L     -0.780000       15.9994           0
     14108 MEMB     17       POPC     O14      O2L     -0.780000       15.9994           0
     14109 MEMB     17       POPC     O12      OSLP    -0.570000       15.9994           0
     14110 MEMB     17       POPC     O11      OSLP    -0.570000       15.9994           0
     14111 MEMB     17       POPC     C1       CTL2    -0.800000E-01   12.0110           0
     14112 MEMB     17       POPC     HA       HAL2     0.900000E-01   1.00800           0
     14113 MEMB     17       POPC     HB       HAL2     0.900000E-01   1.00800           0
     14114 MEMB     17       POPC     C2       CTL1     0.170000       12.0110           0
     14115 MEMB     17       POPC     HS       HAL1     0.900000E-01   1.00800           0
     14116 MEMB     17       POPC     O21      OSL     -0.490000       15.9994           0
     14117 MEMB     17       POPC     C21      CL       0.900000       12.0110           0
     14118 MEMB     17       POPC     O22      OBL     -0.630000       15.9994           0
     14119 MEMB     17       POPC     C22      CTL2    -0.220000       12.0110           0
     14120 MEMB     17       POPC     H2R      HAL2     0.900000E-01   1.00800           0
     14121 MEMB     17       POPC     H2S      HAL2     0.900000E-01   1.00800           0
     14122 MEMB     17       POPC     C3       CTL2     0.800000E-01   12.0110           0
     14123 MEMB     17       POPC     HX       HAL2     0.900000E-01   1.00800           0
     14124 MEMB     17       POPC     HY       HAL2     0.900000E-01   1.00800           0
     14125 MEMB     17       POPC     O31      OSL     -0.490000       15.9994           0
     14126 MEMB     17       POPC     C31      CL       0.900000       12.0110           0
     14127 MEMB     17       POPC     O32      OBL     -0.630000       15.9994           0
     14128 MEMB     17       POPC     C32      CTL2    -0.220000       12.0110           0
     14129 MEMB     17       POPC     H2X      HAL2     0.900000E-01   1.00800           0
     14130 MEMB     17       POPC     H2Y      HAL2     0.900000E-01   1.00800           0
     14131 MEMB     17       POPC     C23      CTL2    -0.180000       12.0110           0
     14132 MEMB     17       POPC     H3R      HAL2     0.900000E-01   1.00800           0
     14133 MEMB     17       POPC     H3S      HAL2     0.900000E-01   1.00800           0
     14134 MEMB     17       POPC     C24      CTL2    -0.180000       12.0110           0
     14135 MEMB     17       POPC     H4R      HAL2     0.900000E-01   1.00800           0
     14136 MEMB     17       POPC     H4S      HAL2     0.900000E-01   1.00800           0
     14137 MEMB     17       POPC     C25      CTL2    -0.180000       12.0110           0
     14138 MEMB     17       POPC     H5R      HAL2     0.900000E-01   1.00800           0
     14139 MEMB     17       POPC     H5S      HAL2     0.900000E-01   1.00800           0
     14140 MEMB     17       POPC     C26      CTL2    -0.180000       12.0110           0
     14141 MEMB     17       POPC     H6R      HAL2     0.900000E-01   1.00800           0
     14142 MEMB     17       POPC     H6S      HAL2     0.900000E-01   1.00800           0
     14143 MEMB     17       POPC     C27      CTL2    -0.180000       12.0110           0
     14144 MEMB     17       POPC     H7R      HAL2     0.900000E-01   1.00800           0
     14145 MEMB     17       POPC     H7S      HAL2     0.900000E-01   1.00800           0
     14146 MEMB     17       POPC     C28      CTL2    -0.180000       12.0110           0
     14147 MEMB     17       POPC     H8R      HAL2     0.900000E-01   1.00800           0
     14148 MEMB     17       POPC     H8S      HAL2     0.900000E-01   1.00800           0
     14149 MEMB     17       POPC     C29      CEL1    -0.150000       12.0110           0
     14150 MEMB     17       POPC     H91      HEL1     0.150000       1.00800           0
     14151 MEMB     17       POPC     C210     CEL1    -0.150000       12.0110           0
     14152 MEMB     17       POPC     H101     HEL1     0.150000       1.00800           0
     14153 MEMB     17       POPC     C211     CTL2    -0.180000       12.0110           0
     14154 MEMB     17       POPC     H11R     HAL2     0.900000E-01   1.00800           0
     14155 MEMB     17       POPC     H11S     HAL2     0.900000E-01   1.00800           0
     14156 MEMB     17       POPC     C212     CTL2    -0.180000       12.0110           0
     14157 MEMB     17       POPC     H12R     HAL2     0.900000E-01   1.00800           0
     14158 MEMB     17       POPC     H12S     HAL2     0.900000E-01   1.00800           0
     14159 MEMB     17       POPC     C213     CTL2    -0.180000       12.0110           0
     14160 MEMB     17       POPC     H13R     HAL2     0.900000E-01   1.00800           0
     14161 MEMB     17       POPC     H13S     HAL2     0.900000E-01   1.00800           0
     14162 MEMB     17       POPC     C214     CTL2    -0.180000       12.0110           0
     14163 MEMB     17       POPC     H14R     HAL2     0.900000E-01   1.00800           0
     14164 MEMB     17       POPC     H14S     HAL2     0.900000E-01   1.00800           0
     14165 MEMB     17       POPC     C215     CTL2    -0.180000       12.0110           0
     14166 MEMB     17       POPC     H15R     HAL2     0.900000E-01   1.00800           0
     14167 MEMB     17       POPC     H15S     HAL2     0.900000E-01   1.00800           0
     14168 MEMB     17       POPC     C216     CTL2    -0.180000       12.0110           0
     14169 MEMB     17       POPC     H16R     HAL2     0.900000E-01   1.00800           0
     14170 MEMB     17       POPC     H16S     HAL2     0.900000E-01   1.00800           0
     14171 MEMB     17       POPC     C217     CTL2    -0.180000       12.0110           0
     14172 MEMB     17       POPC     H17R     HAL2     0.900000E-01   1.00800           0
     14173 MEMB     17       POPC     H17S     HAL2     0.900000E-01   1.00800           0
     14174 MEMB     17       POPC     C218     CTL3    -0.270000       12.0110           0
     14175 MEMB     17       POPC     H18R     HAL3     0.900000E-01   1.00800           0
     14176 MEMB     17       POPC     H18S     HAL3     0.900000E-01   1.00800           0
     14177 MEMB     17       POPC     H18T     HAL3     0.900000E-01   1.00800           0
     14178 MEMB     17       POPC     C33      CTL2    -0.180000       12.0110           0
     14179 MEMB     17       POPC     H3X      HAL2     0.900000E-01   1.00800           0
     14180 MEMB     17       POPC     H3Y      HAL2     0.900000E-01   1.00800           0
     14181 MEMB     17       POPC     C34      CTL2    -0.180000       12.0110           0
     14182 MEMB     17       POPC     H4X      HAL2     0.900000E-01   1.00800           0
     14183 MEMB     17       POPC     H4Y      HAL2     0.900000E-01   1.00800           0
     14184 MEMB     17       POPC     C35      CTL2    -0.180000       12.0110           0
     14185 MEMB     17       POPC     H5X      HAL2     0.900000E-01   1.00800           0
     14186 MEMB     17       POPC     H5Y      HAL2     0.900000E-01   1.00800           0
     14187 MEMB     17       POPC     C36      CTL2    -0.180000       12.0110           0
     14188 MEMB     17       POPC     H6X      HAL2     0.900000E-01   1.00800           0
     14189 MEMB     17       POPC     H6Y      HAL2     0.900000E-01   1.00800           0
     14190 MEMB     17       POPC     C37      CTL2    -0.180000       12.0110           0
     14191 MEMB     17       POPC     H7X      HAL2     0.900000E-01   1.00800           0
     14192 MEMB     17       POPC     H7Y      HAL2     0.900000E-01   1.00800           0
     14193 MEMB     17       POPC     C38      CTL2    -0.180000       12.0110           0
     14194 MEMB     17       POPC     H8X      HAL2     0.900000E-01   1.00800           0
     14195 MEMB     17       POPC     H8Y      HAL2     0.900000E-01   1.00800           0
     14196 MEMB     17       POPC     C39      CTL2    -0.180000       12.0110           0
     14197 MEMB     17       POPC     H9X      HAL2     0.900000E-01   1.00800           0
     14198 MEMB     17       POPC     H9Y      HAL2     0.900000E-01   1.00800           0
     14199 MEMB     17       POPC     C310     CTL2    -0.180000       12.0110           0
     14200 MEMB     17       POPC     H10X     HAL2     0.900000E-01   1.00800           0
     14201 MEMB     17       POPC     H10Y     HAL2     0.900000E-01   1.00800           0
     14202 MEMB     17       POPC     C311     CTL2    -0.180000       12.0110           0
     14203 MEMB     17       POPC     H11X     HAL2     0.900000E-01   1.00800           0
     14204 MEMB     17       POPC     H11Y     HAL2     0.900000E-01   1.00800           0
     14205 MEMB     17       POPC     C312     CTL2    -0.180000       12.0110           0
     14206 MEMB     17       POPC     H12X     HAL2     0.900000E-01   1.00800           0
     14207 MEMB     17       POPC     H12Y     HAL2     0.900000E-01   1.00800           0
     14208 MEMB     17       POPC     C313     CTL2    -0.180000       12.0110           0
     14209 MEMB     17       POPC     H13X     HAL2     0.900000E-01   1.00800           0
     14210 MEMB     17       POPC     H13Y     HAL2     0.900000E-01   1.00800           0
     14211 MEMB     17       POPC     C314     CTL2    -0.180000       12.0110           0
     14212 MEMB     17       POPC     H14X     HAL2     0.900000E-01   1.00800           0
     14213 MEMB     17       POPC     H14Y     HAL2     0.900000E-01   1.00800           0
     14214 MEMB     17       POPC     C315     CTL2    -0.180000       12.0110           0
     14215 MEMB     17       POPC     H15X     HAL2     0.900000E-01   1.00800           0
     14216 MEMB     17       POPC     H15Y     HAL2     0.900000E-01   1.00800           0
     14217 MEMB     17       POPC     C316     CTL3    -0.270000       12.0110           0
     14218 MEMB     17       POPC     H16X     HAL3     0.900000E-01   1.00800           0
     14219 MEMB     17       POPC     H16Y     HAL3     0.900000E-01   1.00800           0
     14220 MEMB     17       POPC     H16Z     HAL3     0.900000E-01   1.00800           0
     14221 MEMB     19       POPC     N        NTL     -0.600000       14.0070           0
     14222 MEMB     19       POPC     C12      CTL2    -0.100000       12.0110           0
     14223 MEMB     19       POPC     H12A     HL       0.250000       1.00800           0
     14224 MEMB     19       POPC     H12B     HL       0.250000       1.00800           0
     14225 MEMB     19       POPC     C13      CTL5    -0.350000       12.0110           0
     14226 MEMB     19       POPC     H13A     HL       0.250000       1.00800           0
     14227 MEMB     19       POPC     H13B     HL       0.250000       1.00800           0
     14228 MEMB     19       POPC     H13C     HL       0.250000       1.00800           0
     14229 MEMB     19       POPC     C14      CTL5    -0.350000       12.0110           0
     14230 MEMB     19       POPC     H14A     HL       0.250000       1.00800           0
     14231 MEMB     19       POPC     H14B     HL       0.250000       1.00800           0
     14232 MEMB     19       POPC     H14C     HL       0.250000       1.00800           0
     14233 MEMB     19       POPC     C15      CTL5    -0.350000       12.0110           0
     14234 MEMB     19       POPC     H15A     HL       0.250000       1.00800           0
     14235 MEMB     19       POPC     H15B     HL       0.250000       1.00800           0
     14236 MEMB     19       POPC     H15C     HL       0.250000       1.00800           0
     14237 MEMB     19       POPC     C11      CTL2    -0.800000E-01   12.0110           0
     14238 MEMB     19       POPC     H11A     HAL2     0.900000E-01   1.00800           0
     14239 MEMB     19       POPC     H11B     HAL2     0.900000E-01   1.00800           0
     14240 MEMB     19       POPC     P        PL       1.500000       30.9740           0
     14241 MEMB     19       POPC     O13      O2L     -0.780000       15.9994           0
     14242 MEMB     19       POPC     O14      O2L     -0.780000       15.9994           0
     14243 MEMB     19       POPC     O12      OSLP    -0.570000       15.9994           0
     14244 MEMB     19       POPC     O11      OSLP    -0.570000       15.9994           0
     14245 MEMB     19       POPC     C1       CTL2    -0.800000E-01   12.0110           0
     14246 MEMB     19       POPC     HA       HAL2     0.900000E-01   1.00800           0
     14247 MEMB     19       POPC     HB       HAL2     0.900000E-01   1.00800           0
     14248 MEMB     19       POPC     C2       CTL1     0.170000       12.0110           0
     14249 MEMB     19       POPC     HS       HAL1     0.900000E-01   1.00800           0
     14250 MEMB     19       POPC     O21      OSL     -0.490000       15.9994           0
     14251 MEMB     19       POPC     C21      CL       0.900000       12.0110           0
     14252 MEMB     19       POPC     O22      OBL     -0.630000       15.9994           0
     14253 MEMB     19       POPC     C22      CTL2    -0.220000       12.0110           0
     14254 MEMB     19       POPC     H2R      HAL2     0.900000E-01   1.00800           0
     14255 MEMB     19       POPC     H2S      HAL2     0.900000E-01   1.00800           0
     14256 MEMB     19       POPC     C3       CTL2     0.800000E-01   12.0110           0
     14257 MEMB     19       POPC     HX       HAL2     0.900000E-01   1.00800           0
     14258 MEMB     19       POPC     HY       HAL2     0.900000E-01   1.00800           0
     14259 MEMB     19       POPC     O31      OSL     -0.490000       15.9994           0
     14260 MEMB     19       POPC     C31      CL       0.900000       12.0110           0
     14261 MEMB     19       POPC     O32      OBL     -0.630000       15.9994           0
     14262 MEMB     19       POPC     C32      CTL2    -0.220000       12.0110           0
     14263 MEMB     19       POPC     H2X      HAL2     0.900000E-01   1.00800           0
     14264 MEMB     19       POPC     H2Y      HAL2     0.900000E-01   1.00800           0
     14265 MEMB     19       POPC     C23      CTL2    -0.180000       12.0110           0
     14266 MEMB     19       POPC     H3R      HAL2     0.900000E-01   1.00800           0
     14267 MEMB     19       POPC     H3S      HAL2     0.900000E-01   1.00800           0
     14268 MEMB     19       POPC     C24      CTL2    -0.180000       12.0110           0
     14269 MEMB     19       POPC     H4R      HAL2     0.900000E-01   1.00800           0
     14270 MEMB     19       POPC     H4S      HAL2     0.900000E-01   1.00800           0
     14271 MEMB     19       POPC     C25      CTL2    -0.180000       12.0110           0
     14272 MEMB     19       POPC     H5R      HAL2     0.900000E-01   1.00800           0
     14273 MEMB     19       POPC     H5S      HAL2     0.900000E-01   1.00800           0
     14274 MEMB     19       POPC     C26      CTL2    -0.180000       12.0110           0
     14275 MEMB     19       POPC     H6R      HAL2     0.900000E-01   1.00800           0
     14276 MEMB     19       POPC     H6S      HAL2     0.900000E-01   1.00800           0
     14277 MEMB     19       POPC     C27      CTL2    -0.180000       12.0110           0
     14278 MEMB     19       POPC     H7R      HAL2     0.900000E-01   1.00800           0
     14279 MEMB     19       POPC     H7S      HAL2     0.900000E-01   1.00800           0
     14280 MEMB     19       POPC     C28      CTL2    -0.180000       12.0110           0
     14281 MEMB     19       POPC     H8R      HAL2     0.900000E-01   1.00800           0
     14282 MEMB     19       POPC     H8S      HAL2     0.900000E-01   1.00800           0
     14283 MEMB     19       POPC     C29      CEL1    -0.150000       12.0110           0
     14284 MEMB     19       POPC     H91      HEL1     0.150000       1.00800           0
     14285 MEMB     19       POPC     C210     CEL1    -0.150000       12.0110           0
     14286 MEMB     19       POPC     H101     HEL1     0.150000       1.00800           0
     14287 MEMB     19       POPC     C211     CTL2    -0.180000       12.0110           0
     14288 MEMB     19       POPC     H11R     HAL2     0.900000E-01   1.00800           0
     14289 MEMB     19       POPC     H11S     HAL2     0.900000E-01   1.00800           0
     14290 MEMB     19       POPC     C212     CTL2    -0.180000       12.0110           0
     14291 MEMB     19       POPC     H12R     HAL2     0.900000E-01   1.00800           0
     14292 MEMB     19       POPC     H12S     HAL2     0.900000E-01   1.00800           0
     14293 MEMB     19       POPC     C213     CTL2    -0.180000       12.0110           0
     14294 MEMB     19       POPC     H13R     HAL2     0.900000E-01   1.00800           0
     14295 MEMB     19       POPC     H13S     HAL2     0.900000E-01   1.00800           0
     14296 MEMB     19       POPC     C214     CTL2    -0.180000       12.0110           0
     14297 MEMB     19       POPC     H14R     HAL2     0.900000E-01   1.00800           0
     14298 MEMB     19       POPC     H14S     HAL2     0.900000E-01   1.00800           0
     14299 MEMB     19       POPC     C215     CTL2    -0.180000       12.0110           0
     14300 MEMB     19       POPC     H15R     HAL2     0.900000E-01   1.00800           0
     14301 MEMB     19       POPC     H15S     HAL2     0.900000E-01   1.00800           0
     14302 MEMB     19       POPC     C216     CTL2    -0.180000       12.0110           0
     14303 MEMB     19       POPC     H16R     HAL2     0.900000E-01   1.00800           0
     14304 MEMB     19       POPC     H16S     HAL2     0.900000E-01   1.00800           0
     14305 MEMB     19       POPC     C217     CTL2    -0.180000       12.0110           0
     14306 MEMB     19       POPC     H17R     HAL2     0.900000E-01   1.00800           0
     14307 MEMB     19       POPC     H17S     HAL2     0.900000E-01   1.00800           0
     14308 MEMB     19       POPC     C218     CTL3    -0.270000       12.0110           0
     14309 MEMB     19       POPC     H18R     HAL3     0.900000E-01   1.00800           0
     14310 MEMB     19       POPC     H18S     HAL3     0.900000E-01   1.00800           0
     14311 MEMB     19       POPC     H18T     HAL3     0.900000E-01   1.00800           0
     14312 MEMB     19       POPC     C33      CTL2    -0.180000       12.0110           0
     14313 MEMB     19       POPC     H3X      HAL2     0.900000E-01   1.00800           0
     14314 MEMB     19       POPC     H3Y      HAL2     0.900000E-01   1.00800           0
     14315 MEMB     19       POPC     C34      CTL2    -0.180000       12.0110           0
     14316 MEMB     19       POPC     H4X      HAL2     0.900000E-01   1.00800           0
     14317 MEMB     19       POPC     H4Y      HAL2     0.900000E-01   1.00800           0
     14318 MEMB     19       POPC     C35      CTL2    -0.180000       12.0110           0
     14319 MEMB     19       POPC     H5X      HAL2     0.900000E-01   1.00800           0
     14320 MEMB     19       POPC     H5Y      HAL2     0.900000E-01   1.00800           0
     14321 MEMB     19       POPC     C36      CTL2    -0.180000       12.0110           0
     14322 MEMB     19       POPC     H6X      HAL2     0.900000E-01   1.00800           0
     14323 MEMB     19       POPC     H6Y      HAL2     0.900000E-01   1.00800           0
     14324 MEMB     19       POPC     C37      CTL2    -0.180000       12.0110           0
     14325 MEMB     19       POPC     H7X      HAL2     0.900000E-01   1.00800           0
     14326 MEMB     19       POPC     H7Y      HAL2     0.900000E-01   1.00800           0
     14327 MEMB     19       POPC     C38      CTL2    -0.180000       12.0110           0
     14328 MEMB     19       POPC     H8X      HAL2     0.900000E-01   1.00800           0
     14329 MEMB     19       POPC     H8Y      HAL2     0.900000E-01   1.00800           0
     14330 MEMB     19       POPC     C39      CTL2    -0.180000       12.0110           0
     14331 MEMB     19       POPC     H9X      HAL2     0.900000E-01   1.00800           0
     14332 MEMB     19       POPC     H9Y      HAL2     0.900000E-01   1.00800           0
     14333 MEMB     19       POPC     C310     CTL2    -0.180000       12.0110           0
     14334 MEMB     19       POPC     H10X     HAL2     0.900000E-01   1.00800           0
     14335 MEMB     19       POPC     H10Y     HAL2     0.900000E-01   1.00800           0
     14336 MEMB     19       POPC     C311     CTL2    -0.180000       12.0110           0
     14337 MEMB     19       POPC     H11X     HAL2     0.900000E-01   1.00800           0
     14338 MEMB     19       POPC     H11Y     HAL2     0.900000E-01   1.00800           0
     14339 MEMB     19       POPC     C312     CTL2    -0.180000       12.0110           0
     14340 MEMB     19       POPC     H12X     HAL2     0.900000E-01   1.00800           0
     14341 MEMB     19       POPC     H12Y     HAL2     0.900000E-01   1.00800           0
     14342 MEMB     19       POPC     C313     CTL2    -0.180000       12.0110           0
     14343 MEMB     19       POPC     H13X     HAL2     0.900000E-01   1.00800           0
     14344 MEMB     19       POPC     H13Y     HAL2     0.900000E-01   1.00800           0
     14345 MEMB     19       POPC     C314     CTL2    -0.180000       12.0110           0
     14346 MEMB     19       POPC     H14X     HAL2     0.900000E-01   1.00800           0
     14347 MEMB     19       POPC     H14Y     HAL2     0.900000E-01   1.00800           0
     14348 MEMB     19       POPC     C315     CTL2    -0.180000       12.0110           0
     14349 MEMB     19       POPC     H15X     HAL2     0.900000E-01   1.00800           0
     14350 MEMB     19       POPC     H15Y     HAL2     0.900000E-01   1.00800           0
     14351 MEMB     19       POPC     C316     CTL3    -0.270000       12.0110           0
     14352 MEMB     19       POPC     H16X     HAL3     0.900000E-01   1.00800           0
     14353 MEMB     19       POPC     H16Y     HAL3     0.900000E-01   1.00800           0
     14354 MEMB     19       POPC     H16Z     HAL3     0.900000E-01   1.00800           0
     14355 MEMB     23       POPC     N        NTL     -0.600000       14.0070           0
     14356 MEMB     23       POPC     C12      CTL2    -0.100000       12.0110           0
     14357 MEMB     23       POPC     H12A     HL       0.250000       1.00800           0
     14358 MEMB     23       POPC     H12B     HL       0.250000       1.00800           0
     14359 MEMB     23       POPC     C13      CTL5    -0.350000       12.0110           0
     14360 MEMB     23       POPC     H13A     HL       0.250000       1.00800           0
     14361 MEMB     23       POPC     H13B     HL       0.250000       1.00800           0
     14362 MEMB     23       POPC     H13C     HL       0.250000       1.00800           0
     14363 MEMB     23       POPC     C14      CTL5    -0.350000       12.0110           0
     14364 MEMB     23       POPC     H14A     HL       0.250000       1.00800           0
     14365 MEMB     23       POPC     H14B     HL       0.250000       1.00800           0
     14366 MEMB     23       POPC     H14C     HL       0.250000       1.00800           0
     14367 MEMB     23       POPC     C15      CTL5    -0.350000       12.0110           0
     14368 MEMB     23       POPC     H15A     HL       0.250000       1.00800           0
     14369 MEMB     23       POPC     H15B     HL       0.250000       1.00800           0
     14370 MEMB     23       POPC     H15C     HL       0.250000       1.00800           0
     14371 MEMB     23       POPC     C11      CTL2    -0.800000E-01   12.0110           0
     14372 MEMB     23       POPC     H11A     HAL2     0.900000E-01   1.00800           0
     14373 MEMB     23       POPC     H11B     HAL2     0.900000E-01   1.00800           0
     14374 MEMB     23       POPC     P        PL       1.500000       30.9740           0
     14375 MEMB     23       POPC     O13      O2L     -0.780000       15.9994           0
     14376 MEMB     23       POPC     O14      O2L     -0.780000       15.9994           0
     14377 MEMB     23       POPC     O12      OSLP    -0.570000       15.9994           0
     14378 MEMB     23       POPC     O11      OSLP    -0.570000       15.9994           0
     14379 MEMB     23       POPC     C1       CTL2    -0.800000E-01   12.0110           0
     14380 MEMB     23       POPC     HA       HAL2     0.900000E-01   1.00800           0
     14381 MEMB     23       POPC     HB       HAL2     0.900000E-01   1.00800           0
     14382 MEMB     23       POPC     C2       CTL1     0.170000       12.0110           0
     14383 MEMB     23       POPC     HS       HAL1     0.900000E-01   1.00800           0
     14384 MEMB     23       POPC     O21      OSL     -0.490000       15.9994           0
     14385 MEMB     23       POPC     C21      CL       0.900000       12.0110           0
     14386 MEMB     23       POPC     O22      OBL     -0.630000       15.9994           0
     14387 MEMB     23       POPC     C22      CTL2    -0.220000       12.0110           0
     14388 MEMB     23       POPC     H2R      HAL2     0.900000E-01   1.00800           0
     14389 MEMB     23       POPC     H2S      HAL2     0.900000E-01   1.00800           0
     14390 MEMB     23       POPC     C3       CTL2     0.800000E-01   12.0110           0
     14391 MEMB     23       POPC     HX       HAL2     0.900000E-01   1.00800           0
     14392 MEMB     23       POPC     HY       HAL2     0.900000E-01   1.00800           0
     14393 MEMB     23       POPC     O31      OSL     -0.490000       15.9994           0
     14394 MEMB     23       POPC     C31      CL       0.900000       12.0110           0
     14395 MEMB     23       POPC     O32      OBL     -0.630000       15.9994           0
     14396 MEMB     23       POPC     C32      CTL2    -0.220000       12.0110           0
     14397 MEMB     23       POPC     H2X      HAL2     0.900000E-01   1.00800           0
     14398 MEMB     23       POPC     H2Y      HAL2     0.900000E-01   1.00800           0
     14399 MEMB     23       POPC     C23      CTL2    -0.180000       12.0110           0
     14400 MEMB     23       POPC     H3R      HAL2     0.900000E-01   1.00800           0
     14401 MEMB     23       POPC     H3S      HAL2     0.900000E-01   1.00800           0
     14402 MEMB     23       POPC     C24      CTL2    -0.180000       12.0110           0
     14403 MEMB     23       POPC     H4R      HAL2     0.900000E-01   1.00800           0
     14404 MEMB     23       POPC     H4S      HAL2     0.900000E-01   1.00800           0
     14405 MEMB     23       POPC     C25      CTL2    -0.180000       12.0110           0
     14406 MEMB     23       POPC     H5R      HAL2     0.900000E-01   1.00800           0
     14407 MEMB     23       POPC     H5S      HAL2     0.900000E-01   1.00800           0
     14408 MEMB     23       POPC     C26      CTL2    -0.180000       12.0110           0
     14409 MEMB     23       POPC     H6R      HAL2     0.900000E-01   1.00800           0
     14410 MEMB     23       POPC     H6S      HAL2     0.900000E-01   1.00800           0
     14411 MEMB     23       POPC     C27      CTL2    -0.180000       12.0110           0
     14412 MEMB     23       POPC     H7R      HAL2     0.900000E-01   1.00800           0
     14413 MEMB     23       POPC     H7S      HAL2     0.900000E-01   1.00800           0
     14414 MEMB     23       POPC     C28      CTL2    -0.180000       12.0110           0
     14415 MEMB     23       POPC     H8R      HAL2     0.900000E-01   1.00800           0
     14416 MEMB     23       POPC     H8S      HAL2     0.900000E-01   1.00800           0
     14417 MEMB     23       POPC     C29      CEL1    -0.150000       12.0110           0
     14418 MEMB     23       POPC     H91      HEL1     0.150000       1.00800           0
     14419 MEMB     23       POPC     C210     CEL1    -0.150000       12.0110           0
     14420 MEMB     23       POPC     H101     HEL1     0.150000       1.00800           0
     14421 MEMB     23       POPC     C211     CTL2    -0.180000       12.0110           0
     14422 MEMB     23       POPC     H11R     HAL2     0.900000E-01   1.00800           0
     14423 MEMB     23       POPC     H11S     HAL2     0.900000E-01   1.00800           0
     14424 MEMB     23       POPC     C212     CTL2    -0.180000       12.0110           0
     14425 MEMB     23       POPC     H12R     HAL2     0.900000E-01   1.00800           0
     14426 MEMB     23       POPC     H12S     HAL2     0.900000E-01   1.00800           0
     14427 MEMB     23       POPC     C213     CTL2    -0.180000       12.0110           0
     14428 MEMB     23       POPC     H13R     HAL2     0.900000E-01   1.00800           0
     14429 MEMB     23       POPC     H13S     HAL2     0.900000E-01   1.00800           0
     14430 MEMB     23       POPC     C214     CTL2    -0.180000       12.0110           0
     14431 MEMB     23       POPC     H14R     HAL2     0.900000E-01   1.00800           0
     14432 MEMB     23       POPC     H14S     HAL2     0.900000E-01   1.00800           0
     14433 MEMB     23       POPC     C215     CTL2    -0.180000       12.0110           0
     14434 MEMB     23       POPC     H15R     HAL2     0.900000E-01   1.00800           0
     14435 MEMB     23       POPC     H15S     HAL2     0.900000E-01   1.00800           0
     14436 MEMB     23       POPC     C216     CTL2    -0.180000       12.0110           0
     14437 MEMB     23       POPC     H16R     HAL2     0.900000E-01   1.00800           0
     14438 MEMB     23       POPC     H16S     HAL2     0.900000E-01   1.00800           0
     14439 MEMB     23       POPC     C217     CTL2    -0.180000       12.0110           0
     14440 MEMB     23       POPC     H17R     HAL2     0.900000E-01   1.00800           0
     14441 MEMB     23       POPC     H17S     HAL2     0.900000E-01   1.00800           0
     14442 MEMB     23       POPC     C218     CTL3    -0.270000       12.0110           0
     14443 MEMB     23       POPC     H18R     HAL3     0.900000E-01   1.00800           0
     14444 MEMB     23       POPC     H18S     HAL3     0.900000E-01   1.00800           0
     14445 MEMB     23       POPC     H18T     HAL3     0.900000E-01   1.00800           0
     14446 MEMB     23       POPC     C33      CTL2    -0.180000       12.0110           0
     14447 MEMB     23       POPC     H3X      HAL2     0.900000E-01   1.00800           0
     14448 MEMB     23       POPC     H3Y      HAL2     0.900000E-01   1.00800           0
     14449 MEMB     23       POPC     C34      CTL2    -0.180000       12.0110           0
     14450 MEMB     23       POPC     H4X      HAL2     0.900000E-01   1.00800           0
     14451 MEMB     23       POPC     H4Y      HAL2     0.900000E-01   1.00800           0
     14452 MEMB     23       POPC     C35      CTL2    -0.180000       12.0110           0
     14453 MEMB     23       POPC     H5X      HAL2     0.900000E-01   1.00800           0
     14454 MEMB     23       POPC     H5Y      HAL2     0.900000E-01   1.00800           0
     14455 MEMB     23       POPC     C36      CTL2    -0.180000       12.0110           0
     14456 MEMB     23       POPC     H6X      HAL2     0.900000E-01   1.00800           0
     14457 MEMB     23       POPC     H6Y      HAL2     0.900000E-01   1.00800           0
     14458 MEMB     23       POPC     C37      CTL2    -0.180000       12.0110           0
     14459 MEMB     23       POPC     H7X      HAL2     0.900000E-01   1.00800           0
     14460 MEMB     23       POPC     H7Y      HAL2     0.900000E-01   1.00800           0
     14461 MEMB     23       POPC     C38      CTL2    -0.180000       12.0110           0
     14462 MEMB     23       POPC     H8X      HAL2     0.900000E-01   1.00800           0
     14463 MEMB     23       POPC     H8Y      HAL2     0.900000E-01   1.00800           0
     14464 MEMB     23       POPC     C39      CTL2    -0.180000       12.0110           0
     14465 MEMB     23       POPC     H9X      HAL2     0.900000E-01   1.00800           0
     14466 MEMB     23       POPC     H9Y      HAL2     0.900000E-01   1.00800           0
     14467 MEMB     23       POPC     C310     CTL2    -0.180000       12.0110           0
     14468 MEMB     23       POPC     H10X     HAL2     0.900000E-01   1.00800           0
     14469 MEMB     23       POPC     H10Y     HAL2     0.900000E-01   1.00800           0
     14470 MEMB     23       POPC     C311     CTL2    -0.180000       12.0110           0
     14471 MEMB     23       POPC     H11X     HAL2     0.900000E-01   1.00800           0
     14472 MEMB     23       POPC     H11Y     HAL2     0.900000E-01   1.00800           0
     14473 MEMB     23       POPC     C312     CTL2    -0.180000       12.0110           0
     14474 MEMB     23       POPC     H12X     HAL2     0.900000E-01   1.00800           0
     14475 MEMB     23       POPC     H12Y     HAL2     0.900000E-01   1.00800           0
     14476 MEMB     23       POPC     C313     CTL2    -0.180000       12.0110           0
     14477 MEMB     23       POPC     H13X     HAL2     0.900000E-01   1.00800           0
     14478 MEMB     23       POPC     H13Y     HAL2     0.900000E-01   1.00800           0
     14479 MEMB     23       POPC     C314     CTL2    -0.180000       12.0110           0
     14480 MEMB     23       POPC     H14X     HAL2     0.900000E-01   1.00800           0
     14481 MEMB     23       POPC     H14Y     HAL2     0.900000E-01   1.00800           0
     14482 MEMB     23       POPC     C315     CTL2    -0.180000       12.0110           0
     14483 MEMB     23       POPC     H15X     HAL2     0.900000E-01   1.00800           0
     14484 MEMB     23       POPC     H15Y     HAL2     0.900000E-01   1.00800           0
     14485 MEMB     23       POPC     C316     CTL3    -0.270000       12.0110           0
     14486 MEMB     23       POPC     H16X     HAL3     0.900000E-01   1.00800           0
     14487 MEMB     23       POPC     H16Y     HAL3     0.900000E-01   1.00800           0
     14488 MEMB     23       POPC     H16Z     HAL3     0.900000E-01   1.00800           0
     14489 MEMB     29       POPC     N        NTL     -0.600000       14.0070           0
     14490 MEMB     29       POPC     C12      CTL2    -0.100000       12.0110           0
     14491 MEMB     29       POPC     H12A     HL       0.250000       1.00800           0
     14492 MEMB     29       POPC     H12B     HL       0.250000       1.00800           0
     14493 MEMB     29       POPC     C13      CTL5    -0.350000       12.0110           0
     14494 MEMB     29       POPC     H13A     HL       0.250000       1.00800           0
     14495 MEMB     29       POPC     H13B     HL       0.250000       1.00800           0
     14496 MEMB     29       POPC     H13C     HL       0.250000       1.00800           0
     14497 MEMB     29       POPC     C14      CTL5    -0.350000       12.0110           0
     14498 MEMB     29       POPC     H14A     HL       0.250000       1.00800           0
     14499 MEMB     29       POPC     H14B     HL       0.250000       1.00800           0
     14500 MEMB     29       POPC     H14C     HL       0.250000       1.00800           0
     14501 MEMB     29       POPC     C15      CTL5    -0.350000       12.0110           0
     14502 MEMB     29       POPC     H15A     HL       0.250000       1.00800           0
     14503 MEMB     29       POPC     H15B     HL       0.250000       1.00800           0
     14504 MEMB     29       POPC     H15C     HL       0.250000       1.00800           0
     14505 MEMB     29       POPC     C11      CTL2    -0.800000E-01   12.0110           0
     14506 MEMB     29       POPC     H11A     HAL2     0.900000E-01   1.00800           0
     14507 MEMB     29       POPC     H11B     HAL2     0.900000E-01   1.00800           0
     14508 MEMB     29       POPC     P        PL       1.500000       30.9740           0
     14509 MEMB     29       POPC     O13      O2L     -0.780000       15.9994           0
     14510 MEMB     29       POPC     O14      O2L     -0.780000       15.9994           0
     14511 MEMB     29       POPC     O12      OSLP    -0.570000       15.9994           0
     14512 MEMB     29       POPC     O11      OSLP    -0.570000       15.9994           0
     14513 MEMB     29       POPC     C1       CTL2    -0.800000E-01   12.0110           0
     14514 MEMB     29       POPC     HA       HAL2     0.900000E-01   1.00800           0
     14515 MEMB     29       POPC     HB       HAL2     0.900000E-01   1.00800           0
     14516 MEMB     29       POPC     C2       CTL1     0.170000       12.0110           0
     14517 MEMB     29       POPC     HS       HAL1     0.900000E-01   1.00800           0
     14518 MEMB     29       POPC     O21      OSL     -0.490000       15.9994           0
     14519 MEMB     29       POPC     C21      CL       0.900000       12.0110           0
     14520 MEMB     29       POPC     O22      OBL     -0.630000       15.9994           0
     14521 MEMB     29       POPC     C22      CTL2    -0.220000       12.0110           0
     14522 MEMB     29       POPC     H2R      HAL2     0.900000E-01   1.00800           0
     14523 MEMB     29       POPC     H2S      HAL2     0.900000E-01   1.00800           0
     14524 MEMB     29       POPC     C3       CTL2     0.800000E-01   12.0110           0
     14525 MEMB     29       POPC     HX       HAL2     0.900000E-01   1.00800           0
     14526 MEMB     29       POPC     HY       HAL2     0.900000E-01   1.00800           0
     14527 MEMB     29       POPC     O31      OSL     -0.490000       15.9994           0
     14528 MEMB     29       POPC     C31      CL       0.900000       12.0110           0
     14529 MEMB     29       POPC     O32      OBL     -0.630000       15.9994           0
     14530 MEMB     29       POPC     C32      CTL2    -0.220000       12.0110           0
     14531 MEMB     29       POPC     H2X      HAL2     0.900000E-01   1.00800           0
     14532 MEMB     29       POPC     H2Y      HAL2     0.900000E-01   1.00800           0
     14533 MEMB     29       POPC     C23      CTL2    -0.180000       12.0110           0
     14534 MEMB     29       POPC     H3R      HAL2     0.900000E-01   1.00800           0
     14535 MEMB     29       POPC     H3S      HAL2     0.900000E-01   1.00800           0
     14536 MEMB     29       POPC     C24      CTL2    -0.180000       12.0110           0
     14537 MEMB     29       POPC     H4R      HAL2     0.900000E-01   1.00800           0
     14538 MEMB     29       POPC     H4S      HAL2     0.900000E-01   1.00800           0
     14539 MEMB     29       POPC     C25      CTL2    -0.180000       12.0110           0
     14540 MEMB     29       POPC     H5R      HAL2     0.900000E-01   1.00800           0
     14541 MEMB     29       POPC     H5S      HAL2     0.900000E-01   1.00800           0
     14542 MEMB     29       POPC     C26      CTL2    -0.180000       12.0110           0
     14543 MEMB     29       POPC     H6R      HAL2     0.900000E-01   1.00800           0
     14544 MEMB     29       POPC     H6S      HAL2     0.900000E-01   1.00800           0
     14545 MEMB     29       POPC     C27      CTL2    -0.180000       12.0110           0
     14546 MEMB     29       POPC     H7R      HAL2     0.900000E-01   1.00800           0
     14547 MEMB     29       POPC     H7S      HAL2     0.900000E-01   1.00800           0
     14548 MEMB     29       POPC     C28      CTL2    -0.180000       12.0110           0
     14549 MEMB     29       POPC     H8R      HAL2     0.900000E-01   1.00800           0
     14550 MEMB     29       POPC     H8S      HAL2     0.900000E-01   1.00800           0
     14551 MEMB     29       POPC     C29      CEL1    -0.150000       12.0110           0
     14552 MEMB     29       POPC     H91      HEL1     0.150000       1.00800           0
     14553 MEMB     29       POPC     C210     CEL1    -0.150000       12.0110           0
     14554 MEMB     29       POPC     H101     HEL1     0.150000       1.00800           0
     14555 MEMB     29       POPC     C211     CTL2    -0.180000       12.0110           0
     14556 MEMB     29       POPC     H11R     HAL2     0.900000E-01   1.00800           0
     14557 MEMB     29       POPC     H11S     HAL2     0.900000E-01   1.00800           0
     14558 MEMB     29       POPC     C212     CTL2    -0.180000       12.0110           0
     14559 MEMB     29       POPC     H12R     HAL2     0.900000E-01   1.00800           0
     14560 MEMB     29       POPC     H12S     HAL2     0.900000E-01   1.00800           0
     14561 MEMB     29       POPC     C213     CTL2    -0.180000       12.0110           0
     14562 MEMB     29       POPC     H13R     HAL2     0.900000E-01   1.00800           0
     14563 MEMB     29       POPC     H13S     HAL2     0.900000E-01   1.00800           0
     14564 MEMB     29       POPC     C214     CTL2    -0.180000       12.0110           0
     14565 MEMB     29       POPC     H14R     HAL2     0.900000E-01   1.00800           0
     14566 MEMB     29       POPC     H14S     HAL2     0.900000E-01   1.00800           0
     14567 MEMB     29       POPC     C215     CTL2    -0.180000       12.0110           0
     14568 MEMB     29       POPC     H15R     HAL2     0.900000E-01   1.00800           0
     14569 MEMB     29       POPC     H15S     HAL2     0.900000E-01   1.00800           0
     14570 MEMB     29       POPC     C216     CTL2    -0.180000       12.0110           0
     14571 MEMB     29       POPC     H16R     HAL2     0.900000E-01   1.00800           0
     14572 MEMB     29       POPC     H16S     HAL2     0.900000E-01   1.00800           0
     14573 MEMB     29       POPC     C217     CTL2    -0.180000       12.0110           0
     14574 MEMB     29       POPC     H17R     HAL2     0.900000E-01   1.00800           0
     14575 MEMB     29       POPC     H17S     HAL2     0.900000E-01   1.00800           0
     14576 MEMB     29       POPC     C218     CTL3    -0.270000       12.0110           0
     14577 MEMB     29       POPC     H18R     HAL3     0.900000E-01   1.00800           0
     14578 MEMB     29       POPC     H18S     HAL3     0.900000E-01   1.00800           0
     14579 MEMB     29       POPC     H18T     HAL3     0.900000E-01   1.00800           0
     14580 MEMB     29       POPC     C33      CTL2    -0.180000       12.0110           0
     14581 MEMB     29       POPC     H3X      HAL2     0.900000E-01   1.00800           0
     14582 MEMB     29       POPC     H3Y      HAL2     0.900000E-01   1.00800           0
     14583 MEMB     29       POPC     C34      CTL2    -0.180000       12.0110           0
     14584 MEMB     29       POPC     H4X      HAL2     0.900000E-01   1.00800           0
     14585 MEMB     29       POPC     H4Y      HAL2     0.900000E-01   1.00800           0
     14586 MEMB     29       POPC     C35      CTL2    -0.180000       12.0110           0
     14587 MEMB     29       POPC     H5X      HAL2     0.900000E-01   1.00800           0
     14588 MEMB     29       POPC     H5Y      HAL2     0.900000E-01   1.00800           0
     14589 MEMB     29       POPC     C36      CTL2    -0.180000       12.0110           0
     14590 MEMB     29       POPC     H6X      HAL2     0.900000E-01   1.00800           0
     14591 MEMB     29       POPC     H6Y      HAL2     0.900000E-01   1.00800           0
     14592 MEMB     29       POPC     C37      CTL2    -0.180000       12.0110           0
     14593 MEMB     29       POPC     H7X      HAL2     0.900000E-01   1.00800           0
     14594 MEMB     29       POPC     H7Y      HAL2     0.900000E-01   1.00800           0
     14595 MEMB     29       POPC     C38      CTL2    -0.180000       12.0110           0
     14596 MEMB     29       POPC     H8X      HAL2     0.900000E-01   1.00800           0
     14597 MEMB     29       POPC     H8Y      HAL2     0.900000E-01   1.00800           0
     14598 MEMB     29       POPC     C39      CTL2    -0.180000       12.0110           0
     14599 MEMB     29       POPC     H9X      HAL2     0.900000E-01   1.00800           0
     14600 MEMB     29       POPC     H9Y      HAL2     0.900000E-01   1.00800           0
     14601 MEMB     29       POPC     C310     CTL2    -0.180000       12.0110           0
     14602 MEMB     29       POPC     H10X     HAL2     0.900000E-01   1.00800           0
     14603 MEMB     29       POPC     H10Y     HAL2     0.900000E-01   1.00800           0
     14604 MEMB     29       POPC     C311     CTL2    -0.180000       12.0110           0
     14605 MEMB     29       POPC     H11X     HAL2     0.900000E-01   1.00800           0
     14606 MEMB     29       POPC     H11Y     HAL2     0.900000E-01   1.00800           0
     14607 MEMB     29       POPC     C312     CTL2    -0.180000       12.0110           0
     14608 MEMB     29       POPC     H12X     HAL2     0.900000E-01   1.00800           0
     14609 MEMB     29       POPC     H12Y     HAL2     0.900000E-01   1.00800           0
     14610 MEMB     29       POPC     C313     CTL2    -0.180000       12.0110           0
     14611 MEMB     29       POPC     H13X     HAL2     0.900000E-01   1.00800           0
     14612 MEMB     29       POPC     H13Y     HAL2     0.900000E-01   1.00800           0
     14613 MEMB     29       POPC     C314     CTL2    -0.180000       12.0110           0
     14614 MEMB     29       POPC     H14X     HAL2     0.900000E-01   1.00800           0
     14615 MEMB     29       POPC     H14Y     HAL2     0.900000E-01   1.00800           0
     14616 MEMB     29       POPC     C315     CTL2    -0.180000       12.0110           0
     14617 MEMB     29       POPC     H15X     HAL2     0.900000E-01   1.00800           0
     14618 MEMB     29       POPC     H15Y     HAL2     0.900000E-01   1.00800           0
     14619 MEMB     29       POPC     C316     CTL3    -0.270000       12.0110           0
     14620 MEMB     29       POPC     H16X     HAL3     0.900000E-01   1.00800           0
     14621 MEMB     29       POPC     H16Y     HAL3     0.900000E-01   1.00800           0
     14622 MEMB     29       POPC     H16Z     HAL3     0.900000E-01   1.00800           0
     14623 MEMB     30       POPC     N        NTL     -0.600000       14.0070           0
     14624 MEMB     30       POPC     C12      CTL2    -0.100000       12.0110           0
     14625 MEMB     30       POPC     H12A     HL       0.250000       1.00800           0
     14626 MEMB     30       POPC     H12B     HL       0.250000       1.00800           0
     14627 MEMB     30       POPC     C13      CTL5    -0.350000       12.0110           0
     14628 MEMB     30       POPC     H13A     HL       0.250000       1.00800           0
     14629 MEMB     30       POPC     H13B     HL       0.250000       1.00800           0
     14630 MEMB     30       POPC     H13C     HL       0.250000       1.00800           0
     14631 MEMB     30       POPC     C14      CTL5    -0.350000       12.0110           0
     14632 MEMB     30       POPC     H14A     HL       0.250000       1.00800           0
     14633 MEMB     30       POPC     H14B     HL       0.250000       1.00800           0
     14634 MEMB     30       POPC     H14C     HL       0.250000       1.00800           0
     14635 MEMB     30       POPC     C15      CTL5    -0.350000       12.0110           0
     14636 MEMB     30       POPC     H15A     HL       0.250000       1.00800           0
     14637 MEMB     30       POPC     H15B     HL       0.250000       1.00800           0
     14638 MEMB     30       POPC     H15C     HL       0.250000       1.00800           0
     14639 MEMB     30       POPC     C11      CTL2    -0.800000E-01   12.0110           0
     14640 MEMB     30       POPC     H11A     HAL2     0.900000E-01   1.00800           0
     14641 MEMB     30       POPC     H11B     HAL2     0.900000E-01   1.00800           0
     14642 MEMB     30       POPC     P        PL       1.500000       30.9740           0
     14643 MEMB     30       POPC     O13      O2L     -0.780000       15.9994           0
     14644 MEMB     30       POPC     O14      O2L     -0.780000       15.9994           0
     14645 MEMB     30       POPC     O12      OSLP    -0.570000       15.9994           0
     14646 MEMB     30       POPC     O11      OSLP    -0.570000       15.9994           0
     14647 MEMB     30       POPC     C1       CTL2    -0.800000E-01   12.0110           0
     14648 MEMB     30       POPC     HA       HAL2     0.900000E-01   1.00800           0
     14649 MEMB     30       POPC     HB       HAL2     0.900000E-01   1.00800           0
     14650 MEMB     30       POPC     C2       CTL1     0.170000       12.0110           0
     14651 MEMB     30       POPC     HS       HAL1     0.900000E-01   1.00800           0
     14652 MEMB     30       POPC     O21      OSL     -0.490000       15.9994           0
     14653 MEMB     30       POPC     C21      CL       0.900000       12.0110           0
     14654 MEMB     30       POPC     O22      OBL     -0.630000       15.9994           0
     14655 MEMB     30       POPC     C22      CTL2    -0.220000       12.0110           0
     14656 MEMB     30       POPC     H2R      HAL2     0.900000E-01   1.00800           0
     14657 MEMB     30       POPC     H2S      HAL2     0.900000E-01   1.00800           0
     14658 MEMB     30       POPC     C3       CTL2     0.800000E-01   12.0110           0
     14659 MEMB     30       POPC     HX       HAL2     0.900000E-01   1.00800           0
     14660 MEMB     30       POPC     HY       HAL2     0.900000E-01   1.00800           0
     14661 MEMB     30       POPC     O31      OSL     -0.490000       15.9994           0
     14662 MEMB     30       POPC     C31      CL       0.900000       12.0110           0
     14663 MEMB     30       POPC     O32      OBL     -0.630000       15.9994           0
     14664 MEMB     30       POPC     C32      CTL2    -0.220000       12.0110           0
     14665 MEMB     30       POPC     H2X      HAL2     0.900000E-01   1.00800           0
     14666 MEMB     30       POPC     H2Y      HAL2     0.900000E-01   1.00800           0
     14667 MEMB     30       POPC     C23      CTL2    -0.180000       12.0110           0
     14668 MEMB     30       POPC     H3R      HAL2     0.900000E-01   1.00800           0
     14669 MEMB     30       POPC     H3S      HAL2     0.900000E-01   1.00800           0
     14670 MEMB     30       POPC     C24      CTL2    -0.180000       12.0110           0
     14671 MEMB     30       POPC     H4R      HAL2     0.900000E-01   1.00800           0
     14672 MEMB     30       POPC     H4S      HAL2     0.900000E-01   1.00800           0
     14673 MEMB     30       POPC     C25      CTL2    -0.180000       12.0110           0
     14674 MEMB     30       POPC     H5R      HAL2     0.900000E-01   1.00800           0
     14675 MEMB     30       POPC     H5S      HAL2     0.900000E-01   1.00800           0
     14676 MEMB     30       POPC     C26      CTL2    -0.180000       12.0110           0
     14677 MEMB     30       POPC     H6R      HAL2     0.900000E-01   1.00800           0
     14678 MEMB     30       POPC     H6S      HAL2     0.900000E-01   1.00800           0
     14679 MEMB     30       POPC     C27      CTL2    -0.180000       12.0110           0
     14680 MEMB     30       POPC     H7R      HAL2     0.900000E-01   1.00800           0
     14681 MEMB     30       POPC     H7S      HAL2     0.900000E-01   1.00800           0
     14682 MEMB     30       POPC     C28      CTL2    -0.180000       12.0110           0
     14683 MEMB     30       POPC     H8R      HAL2     0.900000E-01   1.00800           0
     14684 MEMB     30       POPC     H8S      HAL2     0.900000E-01   1.00800           0
     14685 MEMB     30       POPC     C29      CEL1    -0.150000       12.0110           0
     14686 MEMB     30       POPC     H91      HEL1     0.150000       1.00800           0
     14687 MEMB     30       POPC     C210     CEL1    -0.150000       12.0110           0
     14688 MEMB     30       POPC     H101     HEL1     0.150000       1.00800           0
     14689 MEMB     30       POPC     C211     CTL2    -0.180000       12.0110           0
     14690 MEMB     30       POPC     H11R     HAL2     0.900000E-01   1.00800           0
     14691 MEMB     30       POPC     H11S     HAL2     0.900000E-01   1.00800           0
     14692 MEMB     30       POPC     C212     CTL2    -0.180000       12.0110           0
     14693 MEMB     30       POPC     H12R     HAL2     0.900000E-01   1.00800           0
     14694 MEMB     30       POPC     H12S     HAL2     0.900000E-01   1.00800           0
     14695 MEMB     30       POPC     C213     CTL2    -0.180000       12.0110           0
     14696 MEMB     30       POPC     H13R     HAL2     0.900000E-01   1.00800           0
     14697 MEMB     30       POPC     H13S     HAL2     0.900000E-01   1.00800           0
     14698 MEMB     30       POPC     C214     CTL2    -0.180000       12.0110           0
     14699 MEMB     30       POPC     H14R     HAL2     0.900000E-01   1.00800           0
     14700 MEMB     30       POPC     H14S     HAL2     0.900000E-01   1.00800           0
     14701 MEMB     30       POPC     C215     CTL2    -0.180000       12.0110           0
     14702 MEMB     30       POPC     H15R     HAL2     0.900000E-01   1.00800           0
     14703 MEMB     30       POPC     H15S     HAL2     0.900000E-01   1.00800           0
     14704 MEMB     30       POPC     C216     CTL2    -0.180000       12.0110           0
     14705 MEMB     30       POPC     H16R     HAL2     0.900000E-01   1.00800           0
     14706 MEMB     30       POPC     H16S     HAL2     0.900000E-01   1.00800           0
     14707 MEMB     30       POPC     C217     CTL2    -0.180000       12.0110           0
     14708 MEMB     30       POPC     H17R     HAL2     0.900000E-01   1.00800           0
     14709 MEMB     30       POPC     H17S     HAL2     0.900000E-01   1.00800           0
     14710 MEMB     30       POPC     C218     CTL3    -0.270000       12.0110           0
     14711 MEMB     30       POPC     H18R     HAL3     0.900000E-01   1.00800           0
     14712 MEMB     30       POPC     H18S     HAL3     0.900000E-01   1.00800           0
     14713 MEMB     30       POPC     H18T     HAL3     0.900000E-01   1.00800           0
     14714 MEMB     30       POPC     C33      CTL2    -0.180000       12.0110           0
     14715 MEMB     30       POPC     H3X      HAL2     0.900000E-01   1.00800           0
     14716 MEMB     30       POPC     H3Y      HAL2     0.900000E-01   1.00800           0
     14717 MEMB     30       POPC     C34      CTL2    -0.180000       12.0110           0
     14718 MEMB     30       POPC     H4X      HAL2     0.900000E-01   1.00800           0
     14719 MEMB     30       POPC     H4Y      HAL2     0.900000E-01   1.00800           0
     14720 MEMB     30       POPC     C35      CTL2    -0.180000       12.0110           0
     14721 MEMB     30       POPC     H5X      HAL2     0.900000E-01   1.00800           0
     14722 MEMB     30       POPC     H5Y      HAL2     0.900000E-01   1.00800           0
     14723 MEMB     30       POPC     C36      CTL2    -0.180000       12.0110           0
     14724 MEMB     30       POPC     H6X      HAL2     0.900000E-01   1.00800           0
     14725 MEMB     30       POPC     H6Y      HAL2     0.900000E-01   1.00800           0
     14726 MEMB     30       POPC     C37      CTL2    -0.180000       12.0110           0
     14727 MEMB     30       POPC     H7X      HAL2     0.900000E-01   1.00800           0
     14728 MEMB     30       POPC     H7Y      HAL2     0.900000E-01   1.00800           0
     14729 MEMB     30       POPC     C38      CTL2    -0.180000       12.0110           0
     14730 MEMB     30       POPC     H8X      HAL2     0.900000E-01   1.00800           0
     14731 MEMB     30       POPC     H8Y      HAL2     0.900000E-01   1.00800           0
     14732 MEMB     30       POPC     C39      CTL2    -0.180000       12.0110           0
     14733 MEMB     30       POPC     H9X      HAL2     0.900000E-01   1.00800           0
     14734 MEMB     30       POPC     H9Y      HAL2     0.900000E-01   1.00800           0
     14735 MEMB     30       POPC     C310     CTL2    -0.180000       12.0110           0
     14736 MEMB     30       POPC     H10X     HAL2     0.900000E-01   1.00800           0
     14737 MEMB     30       POPC     H10Y     HAL2     0.900000E-01   1.00800           0
     14738 MEMB     30       POPC     C311     CTL2    -0.180000       12.0110           0
     14739 MEMB     30       POPC     H11X     HAL2     0.900000E-01   1.00800           0
     14740 MEMB     30       POPC     H11Y     HAL2     0.900000E-01   1.00800           0
     14741 MEMB     30       POPC     C312     CTL2    -0.180000       12.0110           0
     14742 MEMB     30       POPC     H12X     HAL2     0.900000E-01   1.00800           0
     14743 MEMB     30       POPC     H12Y     HAL2     0.900000E-01   1.00800           0
     14744 MEMB     30       POPC     C313     CTL2    -0.180000       12.0110           0
     14745 MEMB     30       POPC     H13X     HAL2     0.900000E-01   1.00800           0
     14746 MEMB     30       POPC     H13Y     HAL2     0.900000E-01   1.00800           0
     14747 MEMB     30       POPC     C314     CTL2    -0.180000       12.0110           0
     14748 MEMB     30       POPC     H14X     HAL2     0.900000E-01   1.00800           0
     14749 MEMB     30       POPC     H14Y     HAL2     0.900000E-01   1.00800           0
     14750 MEMB     30       POPC     C315     CTL2    -0.180000       12.0110           0
     14751 MEMB     30       POPC     H15X     HAL2     0.900000E-01   1.00800           0
     14752 MEMB     30       POPC     H15Y     HAL2     0.900000E-01   1.00800           0
     14753 MEMB     30       POPC     C316     CTL3    -0.270000       12.0110           0
     14754 MEMB     30       POPC     H16X     HAL3     0.900000E-01   1.00800           0
     14755 MEMB     30       POPC     H16Y     HAL3     0.900000E-01   1.00800           0
     14756 MEMB     30       POPC     H16Z     HAL3     0.900000E-01   1.00800           0
     14757 MEMB     38       POPC     N        NTL     -0.600000       14.0070           0
     14758 MEMB     38       POPC     C12      CTL2    -0.100000       12.0110           0
     14759 MEMB     38       POPC     H12A     HL       0.250000       1.00800           0
     14760 MEMB     38       POPC     H12B     HL       0.250000       1.00800           0
     14761 MEMB     38       POPC     C13      CTL5    -0.350000       12.0110           0
     14762 MEMB     38       POPC     H13A     HL       0.250000       1.00800           0
     14763 MEMB     38       POPC     H13B     HL       0.250000       1.00800           0
     14764 MEMB     38       POPC     H13C     HL       0.250000       1.00800           0
     14765 MEMB     38       POPC     C14      CTL5    -0.350000       12.0110           0
     14766 MEMB     38       POPC     H14A     HL       0.250000       1.00800           0
     14767 MEMB     38       POPC     H14B     HL       0.250000       1.00800           0
     14768 MEMB     38       POPC     H14C     HL       0.250000       1.00800           0
     14769 MEMB     38       POPC     C15      CTL5    -0.350000       12.0110           0
     14770 MEMB     38       POPC     H15A     HL       0.250000       1.00800           0
     14771 MEMB     38       POPC     H15B     HL       0.250000       1.00800           0
     14772 MEMB     38       POPC     H15C     HL       0.250000       1.00800           0
     14773 MEMB     38       POPC     C11      CTL2    -0.800000E-01   12.0110           0
     14774 MEMB     38       POPC     H11A     HAL2     0.900000E-01   1.00800           0
     14775 MEMB     38       POPC     H11B     HAL2     0.900000E-01   1.00800           0
     14776 MEMB     38       POPC     P        PL       1.500000       30.9740           0
     14777 MEMB     38       POPC     O13      O2L     -0.780000       15.9994           0
     14778 MEMB     38       POPC     O14      O2L     -0.780000       15.9994           0
     14779 MEMB     38       POPC     O12      OSLP    -0.570000       15.9994           0
     14780 MEMB     38       POPC     O11      OSLP    -0.570000       15.9994           0
     14781 MEMB     38       POPC     C1       CTL2    -0.800000E-01   12.0110           0
     14782 MEMB     38       POPC     HA       HAL2     0.900000E-01   1.00800           0
     14783 MEMB     38       POPC     HB       HAL2     0.900000E-01   1.00800           0
     14784 MEMB     38       POPC     C2       CTL1     0.170000       12.0110           0
     14785 MEMB     38       POPC     HS       HAL1     0.900000E-01   1.00800           0
     14786 MEMB     38       POPC     O21      OSL     -0.490000       15.9994           0
     14787 MEMB     38       POPC     C21      CL       0.900000       12.0110           0
     14788 MEMB     38       POPC     O22      OBL     -0.630000       15.9994           0
     14789 MEMB     38       POPC     C22      CTL2    -0.220000       12.0110           0
     14790 MEMB     38       POPC     H2R      HAL2     0.900000E-01   1.00800           0
     14791 MEMB     38       POPC     H2S      HAL2     0.900000E-01   1.00800           0
     14792 MEMB     38       POPC     C3       CTL2     0.800000E-01   12.0110           0
     14793 MEMB     38       POPC     HX       HAL2     0.900000E-01   1.00800           0
     14794 MEMB     38       POPC     HY       HAL2     0.900000E-01   1.00800           0
     14795 MEMB     38       POPC     O31      OSL     -0.490000       15.9994           0
     14796 MEMB     38       POPC     C31      CL       0.900000       12.0110           0
     14797 MEMB     38       POPC     O32      OBL     -0.630000       15.9994           0
     14798 MEMB     38       POPC     C32      CTL2    -0.220000       12.0110           0
     14799 MEMB     38       POPC     H2X      HAL2     0.900000E-01   1.00800           0
     14800 MEMB     38       POPC     H2Y      HAL2     0.900000E-01   1.00800           0
     14801 MEMB     38       POPC     C23      CTL2    -0.180000       12.0110           0
     14802 MEMB     38       POPC     H3R      HAL2     0.900000E-01   1.00800           0
     14803 MEMB     38       POPC     H3S      HAL2     0.900000E-01   1.00800           0
     14804 MEMB     38       POPC     C24      CTL2    -0.180000       12.0110           0
     14805 MEMB     38       POPC     H4R      HAL2     0.900000E-01   1.00800           0
     14806 MEMB     38       POPC     H4S      HAL2     0.900000E-01   1.00800           0
     14807 MEMB     38       POPC     C25      CTL2    -0.180000       12.0110           0
     14808 MEMB     38       POPC     H5R      HAL2     0.900000E-01   1.00800           0
     14809 MEMB     38       POPC     H5S      HAL2     0.900000E-01   1.00800           0
     14810 MEMB     38       POPC     C26      CTL2    -0.180000       12.0110           0
     14811 MEMB     38       POPC     H6R      HAL2     0.900000E-01   1.00800           0
     14812 MEMB     38       POPC     H6S      HAL2     0.900000E-01   1.00800           0
     14813 MEMB     38       POPC     C27      CTL2    -0.180000       12.0110           0
     14814 MEMB     38       POPC     H7R      HAL2     0.900000E-01   1.00800           0
     14815 MEMB     38       POPC     H7S      HAL2     0.900000E-01   1.00800           0
     14816 MEMB     38       POPC     C28      CTL2    -0.180000       12.0110           0
     14817 MEMB     38       POPC     H8R      HAL2     0.900000E-01   1.00800           0
     14818 MEMB     38       POPC     H8S      HAL2     0.900000E-01   1.00800           0
     14819 MEMB     38       POPC     C29      CEL1    -0.150000       12.0110           0
     14820 MEMB     38       POPC     H91      HEL1     0.150000       1.00800           0
     14821 MEMB     38       POPC     C210     CEL1    -0.150000       12.0110           0
     14822 MEMB     38       POPC     H101     HEL1     0.150000       1.00800           0
     14823 MEMB     38       POPC     C211     CTL2    -0.180000       12.0110           0
     14824 MEMB     38       POPC     H11R     HAL2     0.900000E-01   1.00800           0
     14825 MEMB     38       POPC     H11S     HAL2     0.900000E-01   1.00800           0
     14826 MEMB     38       POPC     C212     CTL2    -0.180000       12.0110           0
     14827 MEMB     38       POPC     H12R     HAL2     0.900000E-01   1.00800           0
     14828 MEMB     38       POPC     H12S     HAL2     0.900000E-01   1.00800           0
     14829 MEMB     38       POPC     C213     CTL2    -0.180000       12.0110           0
     14830 MEMB     38       POPC     H13R     HAL2     0.900000E-01   1.00800           0
     14831 MEMB     38       POPC     H13S     HAL2     0.900000E-01   1.00800           0
     14832 MEMB     38       POPC     C214     CTL2    -0.180000       12.0110           0
     14833 MEMB     38       POPC     H14R     HAL2     0.900000E-01   1.00800           0
     14834 MEMB     38       POPC     H14S     HAL2     0.900000E-01   1.00800           0
     14835 MEMB     38       POPC     C215     CTL2    -0.180000       12.0110           0
     14836 MEMB     38       POPC     H15R     HAL2     0.900000E-01   1.00800           0
     14837 MEMB     38       POPC     H15S     HAL2     0.900000E-01   1.00800           0
     14838 MEMB     38       POPC     C216     CTL2    -0.180000       12.0110           0
     14839 MEMB     38       POPC     H16R     HAL2     0.900000E-01   1.00800           0
     14840 MEMB     38       POPC     H16S     HAL2     0.900000E-01   1.00800           0
     14841 MEMB     38       POPC     C217     CTL2    -0.180000       12.0110           0
     14842 MEMB     38       POPC     H17R     HAL2     0.900000E-01   1.00800           0
     14843 MEMB     38       POPC     H17S     HAL2     0.900000E-01   1.00800           0
     14844 MEMB     38       POPC     C218     CTL3    -0.270000       12.0110           0
     14845 MEMB     38       POPC     H18R     HAL3     0.900000E-01   1.00800           0
     14846 MEMB     38       POPC     H18S     HAL3     0.900000E-01   1.00800           0
     14847 MEMB     38       POPC     H18T     HAL3     0.900000E-01   1.00800           0
     14848 MEMB     38       POPC     C33      CTL2    -0.180000       12.0110           0
     14849 MEMB     38       POPC     H3X      HAL2     0.900000E-01   1.00800           0
     14850 MEMB     38       POPC     H3Y      HAL2     0.900000E-01   1.00800           0
     14851 MEMB     38       POPC     C34      CTL2    -0.180000       12.0110           0
     14852 MEMB     38       POPC     H4X      HAL2     0.900000E-01   1.00800           0
     14853 MEMB     38       POPC     H4Y      HAL2     0.900000E-01   1.00800           0
     14854 MEMB     38       POPC     C35      CTL2    -0.180000       12.0110           0
     14855 MEMB     38       POPC     H5X      HAL2     0.900000E-01   1.00800           0
     14856 MEMB     38       POPC     H5Y      HAL2     0.900000E-01   1.00800           0
     14857 MEMB     38       POPC     C36      CTL2    -0.180000       12.0110           0
     14858 MEMB     38       POPC     H6X      HAL2     0.900000E-01   1.00800           0
     14859 MEMB     38       POPC     H6Y      HAL2     0.900000E-01   1.00800           0
     14860 MEMB     38       POPC     C37      CTL2    -0.180000       12.0110           0
     14861 MEMB     38       POPC     H7X      HAL2     0.900000E-01   1.00800           0
     14862 MEMB     38       POPC     H7Y      HAL2     0.900000E-01   1.00800           0
     14863 MEMB     38       POPC     C38      CTL2    -0.180000       12.0110           0
     14864 MEMB     38       POPC     H8X      HAL2     0.900000E-01   1.00800           0
     14865 MEMB     38       POPC     H8Y      HAL2     0.900000E-01   1.00800           0
     14866 MEMB     38       POPC     C39      CTL2    -0.180000       12.0110           0
     14867 MEMB     38       POPC     H9X      HAL2     0.900000E-01   1.00800           0
     14868 MEMB     38       POPC     H9Y      HAL2     0.900000E-01   1.00800           0
     14869 MEMB     38       POPC     C310     CTL2    -0.180000       12.0110           0
     14870 MEMB     38       POPC     H10X     HAL2     0.900000E-01   1.00800           0
     14871 MEMB     38       POPC     H10Y     HAL2     0.900000E-01   1.00800           0
     14872 MEMB     38       POPC     C311     CTL2    -0.180000       12.0110           0
     14873 MEMB     38       POPC     H11X     HAL2     0.900000E-01   1.00800           0
     14874 MEMB     38       POPC     H11Y     HAL2     0.900000E-01   1.00800           0
     14875 MEMB     38       POPC     C312     CTL2    -0.180000       12.0110           0
     14876 MEMB     38       POPC     H12X     HAL2     0.900000E-01   1.00800           0
     14877 MEMB     38       POPC     H12Y     HAL2     0.900000E-01   1.00800           0
     14878 MEMB     38       POPC     C313     CTL2    -0.180000       12.0110           0
     14879 MEMB     38       POPC     H13X     HAL2     0.900000E-01   1.00800           0
     14880 MEMB     38       POPC     H13Y     HAL2     0.900000E-01   1.00800           0
     14881 MEMB     38       POPC     C314     CTL2    -0.180000       12.0110           0
     14882 MEMB     38       POPC     H14X     HAL2     0.900000E-01   1.00800           0
     14883 MEMB     38       POPC     H14Y     HAL2     0.900000E-01   1.00800           0
     14884 MEMB     38       POPC     C315     CTL2    -0.180000       12.0110           0
     14885 MEMB     38       POPC     H15X     HAL2     0.900000E-01   1.00800           0
     14886 MEMB     38       POPC     H15Y     HAL2     0.900000E-01   1.00800           0
     14887 MEMB     38       POPC     C316     CTL3    -0.270000       12.0110           0
     14888 MEMB     38       POPC     H16X     HAL3     0.900000E-01   1.00800           0
     14889 MEMB     38       POPC     H16Y     HAL3     0.900000E-01   1.00800           0
     14890 MEMB     38       POPC     H16Z     HAL3     0.900000E-01   1.00800           0
     14891 MEMB     39       POPC     N        NTL     -0.600000       14.0070           0
     14892 MEMB     39       POPC     C12      CTL2    -0.100000       12.0110           0
     14893 MEMB     39       POPC     H12A     HL       0.250000       1.00800           0
     14894 MEMB     39       POPC     H12B     HL       0.250000       1.00800           0
     14895 MEMB     39       POPC     C13      CTL5    -0.350000       12.0110           0
     14896 MEMB     39       POPC     H13A     HL       0.250000       1.00800           0
     14897 MEMB     39       POPC     H13B     HL       0.250000       1.00800           0
     14898 MEMB     39       POPC     H13C     HL       0.250000       1.00800           0
     14899 MEMB     39       POPC     C14      CTL5    -0.350000       12.0110           0
     14900 MEMB     39       POPC     H14A     HL       0.250000       1.00800           0
     14901 MEMB     39       POPC     H14B     HL       0.250000       1.00800           0
     14902 MEMB     39       POPC     H14C     HL       0.250000       1.00800           0
     14903 MEMB     39       POPC     C15      CTL5    -0.350000       12.0110           0
     14904 MEMB     39       POPC     H15A     HL       0.250000       1.00800           0
     14905 MEMB     39       POPC     H15B     HL       0.250000       1.00800           0
     14906 MEMB     39       POPC     H15C     HL       0.250000       1.00800           0
     14907 MEMB     39       POPC     C11      CTL2    -0.800000E-01   12.0110           0
     14908 MEMB     39       POPC     H11A     HAL2     0.900000E-01   1.00800           0
     14909 MEMB     39       POPC     H11B     HAL2     0.900000E-01   1.00800           0
     14910 MEMB     39       POPC     P        PL       1.500000       30.9740           0
     14911 MEMB     39       POPC     O13      O2L     -0.780000       15.9994           0
     14912 MEMB     39       POPC     O14      O2L     -0.780000       15.9994           0
     14913 MEMB     39       POPC     O12      OSLP    -0.570000       15.9994           0
     14914 MEMB     39       POPC     O11      OSLP    -0.570000       15.9994           0
     14915 MEMB     39       POPC     C1       CTL2    -0.800000E-01   12.0110           0
     14916 MEMB     39       POPC     HA       HAL2     0.900000E-01   1.00800           0
     14917 MEMB     39       POPC     HB       HAL2     0.900000E-01   1.00800           0
     14918 MEMB     39       POPC     C2       CTL1     0.170000       12.0110           0
     14919 MEMB     39       POPC     HS       HAL1     0.900000E-01   1.00800           0
     14920 MEMB     39       POPC     O21      OSL     -0.490000       15.9994           0
     14921 MEMB     39       POPC     C21      CL       0.900000       12.0110           0
     14922 MEMB     39       POPC     O22      OBL     -0.630000       15.9994           0
     14923 MEMB     39       POPC     C22      CTL2    -0.220000       12.0110           0
     14924 MEMB     39       POPC     H2R      HAL2     0.900000E-01   1.00800           0
     14925 MEMB     39       POPC     H2S      HAL2     0.900000E-01   1.00800           0
     14926 MEMB     39       POPC     C3       CTL2     0.800000E-01   12.0110           0
     14927 MEMB     39       POPC     HX       HAL2     0.900000E-01   1.00800           0
     14928 MEMB     39       POPC     HY       HAL2     0.900000E-01   1.00800           0
     14929 MEMB     39       POPC     O31      OSL     -0.490000       15.9994           0
     14930 MEMB     39       POPC     C31      CL       0.900000       12.0110           0
     14931 MEMB     39       POPC     O32      OBL     -0.630000       15.9994           0
     14932 MEMB     39       POPC     C32      CTL2    -0.220000       12.0110           0
     14933 MEMB     39       POPC     H2X      HAL2     0.900000E-01   1.00800           0
     14934 MEMB     39       POPC     H2Y      HAL2     0.900000E-01   1.00800           0
     14935 MEMB     39       POPC     C23      CTL2    -0.180000       12.0110           0
     14936 MEMB     39       POPC     H3R      HAL2     0.900000E-01   1.00800           0
     14937 MEMB     39       POPC     H3S      HAL2     0.900000E-01   1.00800           0
     14938 MEMB     39       POPC     C24      CTL2    -0.180000       12.0110           0
     14939 MEMB     39       POPC     H4R      HAL2     0.900000E-01   1.00800           0
     14940 MEMB     39       POPC     H4S      HAL2     0.900000E-01   1.00800           0
     14941 MEMB     39       POPC     C25      CTL2    -0.180000       12.0110           0
     14942 MEMB     39       POPC     H5R      HAL2     0.900000E-01   1.00800           0
     14943 MEMB     39       POPC     H5S      HAL2     0.900000E-01   1.00800           0
     14944 MEMB     39       POPC     C26      CTL2    -0.180000       12.0110           0
     14945 MEMB     39       POPC     H6R      HAL2     0.900000E-01   1.00800           0
     14946 MEMB     39       POPC     H6S      HAL2     0.900000E-01   1.00800           0
     14947 MEMB     39       POPC     C27      CTL2    -0.180000       12.0110           0
     14948 MEMB     39       POPC     H7R      HAL2     0.900000E-01   1.00800           0
     14949 MEMB     39       POPC     H7S      HAL2     0.900000E-01   1.00800           0
     14950 MEMB     39       POPC     C28      CTL2    -0.180000       12.0110           0
     14951 MEMB     39       POPC     H8R      HAL2     0.900000E-01   1.00800           0
     14952 MEMB     39       POPC     H8S      HAL2     0.900000E-01   1.00800           0
     14953 MEMB     39       POPC     C29      CEL1    -0.150000       12.0110           0
     14954 MEMB     39       POPC     H91      HEL1     0.150000       1.00800           0
     14955 MEMB     39       POPC     C210     CEL1    -0.150000       12.0110           0
     14956 MEMB     39       POPC     H101     HEL1     0.150000       1.00800           0
     14957 MEMB     39       POPC     C211     CTL2    -0.180000       12.0110           0
     14958 MEMB     39       POPC     H11R     HAL2     0.900000E-01   1.00800           0
     14959 MEMB     39       POPC     H11S     HAL2     0.900000E-01   1.00800           0
     14960 MEMB     39       POPC     C212     CTL2    -0.180000       12.0110           0
     14961 MEMB     39       POPC     H12R     HAL2     0.900000E-01   1.00800           0
     14962 MEMB     39       POPC     H12S     HAL2     0.900000E-01   1.00800           0
     14963 MEMB     39       POPC     C213     CTL2    -0.180000       12.0110           0
     14964 MEMB     39       POPC     H13R     HAL2     0.900000E-01   1.00800           0
     14965 MEMB     39       POPC     H13S     HAL2     0.900000E-01   1.00800           0
     14966 MEMB     39       POPC     C214     CTL2    -0.180000       12.0110           0
     14967 MEMB     39       POPC     H14R     HAL2     0.900000E-01   1.00800           0
     14968 MEMB     39       POPC     H14S     HAL2     0.900000E-01   1.00800           0
     14969 MEMB     39       POPC     C215     CTL2    -0.180000       12.0110           0
     14970 MEMB     39       POPC     H15R     HAL2     0.900000E-01   1.00800           0
     14971 MEMB     39       POPC     H15S     HAL2     0.900000E-01   1.00800           0
     14972 MEMB     39       POPC     C216     CTL2    -0.180000       12.0110           0
     14973 MEMB     39       POPC     H16R     HAL2     0.900000E-01   1.00800           0
     14974 MEMB     39       POPC     H16S     HAL2     0.900000E-01   1.00800           0
     14975 MEMB     39       POPC     C217     CTL2    -0.180000       12.0110           0
     14976 MEMB     39       POPC     H17R     HAL2     0.900000E-01   1.00800           0
     14977 MEMB     39       POPC     H17S     HAL2     0.900000E-01   1.00800           0
     14978 MEMB     39       POPC     C218     CTL3    -0.270000       12.0110           0
     14979 MEMB     39       POPC     H18R     HAL3     0.900000E-01   1.00800           0
     14980 MEMB     39       POPC     H18S     HAL3     0.900000E-01   1.00800           0
     14981 MEMB     39       POPC     H18T     HAL3     0.900000E-01   1.00800           0
     14982 MEMB     39       POPC     C33      CTL2    -0.180000       12.0110           0
     14983 MEMB     39       POPC     H3X      HAL2     0.900000E-01   1.00800           0
     14984 MEMB     39       POPC     H3Y      HAL2     0.900000E-01   1.00800           0
     14985 MEMB     39       POPC     C34      CTL2    -0.180000       12.0110           0
     14986 MEMB     39       POPC     H4X      HAL2     0.900000E-01   1.00800           0
     14987 MEMB     39       POPC     H4Y      HAL2     0.900000E-01   1.00800           0
     14988 MEMB     39       POPC     C35      CTL2    -0.180000       12.0110           0
     14989 MEMB     39       POPC     H5X      HAL2     0.900000E-01   1.00800           0
     14990 MEMB     39       POPC     H5Y      HAL2     0.900000E-01   1.00800           0
     14991 MEMB     39       POPC     C36      CTL2    -0.180000       12.0110           0
     14992 MEMB     39       POPC     H6X      HAL2     0.900000E-01   1.00800           0
     14993 MEMB     39       POPC     H6Y      HAL2     0.900000E-01   1.00800           0
     14994 MEMB     39       POPC     C37      CTL2    -0.180000       12.0110           0
     14995 MEMB     39       POPC     H7X      HAL2     0.900000E-01   1.00800           0
     14996 MEMB     39       POPC     H7Y      HAL2     0.900000E-01   1.00800           0
     14997 MEMB     39       POPC     C38      CTL2    -0.180000       12.0110           0
     14998 MEMB     39       POPC     H8X      HAL2     0.900000E-01   1.00800           0
     14999 MEMB     39       POPC     H8Y      HAL2     0.900000E-01   1.00800           0
     15000 MEMB     39       POPC     C39      CTL2    -0.180000       12.0110           0
     15001 MEMB     39       POPC     H9X      HAL2     0.900000E-01   1.00800           0
     15002 MEMB     39       POPC     H9Y      HAL2     0.900000E-01   1.00800           0
     15003 MEMB     39       POPC     C310     CTL2    -0.180000       12.0110           0
     15004 MEMB     39       POPC     H10X     HAL2     0.900000E-01   1.00800           0
     15005 MEMB     39       POPC     H10Y     HAL2     0.900000E-01   1.00800           0
     15006 MEMB     39       POPC     C311     CTL2    -0.180000       12.0110           0
     15007 MEMB     39       POPC     H11X     HAL2     0.900000E-01   1.00800           0
     15008 MEMB     39       POPC     H11Y     HAL2     0.900000E-01   1.00800           0
     15009 MEMB     39       POPC     C312     CTL2    -0.180000       12.0110           0
     15010 MEMB     39       POPC     H12X     HAL2     0.900000E-01   1.00800           0
     15011 MEMB     39       POPC     H12Y     HAL2     0.900000E-01   1.00800           0
     15012 MEMB     39       POPC     C313     CTL2    -0.180000       12.0110           0
     15013 MEMB     39       POPC     H13X     HAL2     0.900000E-01   1.00800           0
     15014 MEMB     39       POPC     H13Y     HAL2     0.900000E-01   1.00800           0
     15015 MEMB     39       POPC     C314     CTL2    -0.180000       12.0110           0
     15016 MEMB     39       POPC     H14X     HAL2     0.900000E-01   1.00800           0
     15017 MEMB     39       POPC     H14Y     HAL2     0.900000E-01   1.00800           0
     15018 MEMB     39       POPC     C315     CTL2    -0.180000       12.0110           0
     15019 MEMB     39       POPC     H15X     HAL2     0.900000E-01   1.00800           0
     15020 MEMB     39       POPC     H15Y     HAL2     0.900000E-01   1.00800           0
     15021 MEMB     39       POPC     C316     CTL3    -0.270000       12.0110           0
     15022 MEMB     39       POPC     H16X     HAL3     0.900000E-01   1.00800           0
     15023 MEMB     39       POPC     H16Y     HAL3     0.900000E-01   1.00800           0
     15024 MEMB     39       POPC     H16Z     HAL3     0.900000E-01   1.00800           0
     15025 MEMB     40       POPC     N        NTL     -0.600000       14.0070           0
     15026 MEMB     40       POPC     C12      CTL2    -0.100000       12.0110           0
     15027 MEMB     40       POPC     H12A     HL       0.250000       1.00800           0
     15028 MEMB     40       POPC     H12B     HL       0.250000       1.00800           0
     15029 MEMB     40       POPC     C13      CTL5    -0.350000       12.0110           0
     15030 MEMB     40       POPC     H13A     HL       0.250000       1.00800           0
     15031 MEMB     40       POPC     H13B     HL       0.250000       1.00800           0
     15032 MEMB     40       POPC     H13C     HL       0.250000       1.00800           0
     15033 MEMB     40       POPC     C14      CTL5    -0.350000       12.0110           0
     15034 MEMB     40       POPC     H14A     HL       0.250000       1.00800           0
     15035 MEMB     40       POPC     H14B     HL       0.250000       1.00800           0
     15036 MEMB     40       POPC     H14C     HL       0.250000       1.00800           0
     15037 MEMB     40       POPC     C15      CTL5    -0.350000       12.0110           0
     15038 MEMB     40       POPC     H15A     HL       0.250000       1.00800           0
     15039 MEMB     40       POPC     H15B     HL       0.250000       1.00800           0
     15040 MEMB     40       POPC     H15C     HL       0.250000       1.00800           0
     15041 MEMB     40       POPC     C11      CTL2    -0.800000E-01   12.0110           0
     15042 MEMB     40       POPC     H11A     HAL2     0.900000E-01   1.00800           0
     15043 MEMB     40       POPC     H11B     HAL2     0.900000E-01   1.00800           0
     15044 MEMB     40       POPC     P        PL       1.500000       30.9740           0
     15045 MEMB     40       POPC     O13      O2L     -0.780000       15.9994           0
     15046 MEMB     40       POPC     O14      O2L     -0.780000       15.9994           0
     15047 MEMB     40       POPC     O12      OSLP    -0.570000       15.9994           0
     15048 MEMB     40       POPC     O11      OSLP    -0.570000       15.9994           0
     15049 MEMB     40       POPC     C1       CTL2    -0.800000E-01   12.0110           0
     15050 MEMB     40       POPC     HA       HAL2     0.900000E-01   1.00800           0
     15051 MEMB     40       POPC     HB       HAL2     0.900000E-01   1.00800           0
     15052 MEMB     40       POPC     C2       CTL1     0.170000       12.0110           0
     15053 MEMB     40       POPC     HS       HAL1     0.900000E-01   1.00800           0
     15054 MEMB     40       POPC     O21      OSL     -0.490000       15.9994           0
     15055 MEMB     40       POPC     C21      CL       0.900000       12.0110           0
     15056 MEMB     40       POPC     O22      OBL     -0.630000       15.9994           0
     15057 MEMB     40       POPC     C22      CTL2    -0.220000       12.0110           0
     15058 MEMB     40       POPC     H2R      HAL2     0.900000E-01   1.00800           0
     15059 MEMB     40       POPC     H2S      HAL2     0.900000E-01   1.00800           0
     15060 MEMB     40       POPC     C3       CTL2     0.800000E-01   12.0110           0
     15061 MEMB     40       POPC     HX       HAL2     0.900000E-01   1.00800           0
     15062 MEMB     40       POPC     HY       HAL2     0.900000E-01   1.00800           0
     15063 MEMB     40       POPC     O31      OSL     -0.490000       15.9994           0
     15064 MEMB     40       POPC     C31      CL       0.900000       12.0110           0
     15065 MEMB     40       POPC     O32      OBL     -0.630000       15.9994           0
     15066 MEMB     40       POPC     C32      CTL2    -0.220000       12.0110           0
     15067 MEMB     40       POPC     H2X      HAL2     0.900000E-01   1.00800           0
     15068 MEMB     40       POPC     H2Y      HAL2     0.900000E-01   1.00800           0
     15069 MEMB     40       POPC     C23      CTL2    -0.180000       12.0110           0
     15070 MEMB     40       POPC     H3R      HAL2     0.900000E-01   1.00800           0
     15071 MEMB     40       POPC     H3S      HAL2     0.900000E-01   1.00800           0
     15072 MEMB     40       POPC     C24      CTL2    -0.180000       12.0110           0
     15073 MEMB     40       POPC     H4R      HAL2     0.900000E-01   1.00800           0
     15074 MEMB     40       POPC     H4S      HAL2     0.900000E-01   1.00800           0
     15075 MEMB     40       POPC     C25      CTL2    -0.180000       12.0110           0
     15076 MEMB     40       POPC     H5R      HAL2     0.900000E-01   1.00800           0
     15077 MEMB     40       POPC     H5S      HAL2     0.900000E-01   1.00800           0
     15078 MEMB     40       POPC     C26      CTL2    -0.180000       12.0110           0
     15079 MEMB     40       POPC     H6R      HAL2     0.900000E-01   1.00800           0
     15080 MEMB     40       POPC     H6S      HAL2     0.900000E-01   1.00800           0
     15081 MEMB     40       POPC     C27      CTL2    -0.180000       12.0110           0
     15082 MEMB     40       POPC     H7R      HAL2     0.900000E-01   1.00800           0
     15083 MEMB     40       POPC     H7S      HAL2     0.900000E-01   1.00800           0
     15084 MEMB     40       POPC     C28      CTL2    -0.180000       12.0110           0
     15085 MEMB     40       POPC     H8R      HAL2     0.900000E-01   1.00800           0
     15086 MEMB     40       POPC     H8S      HAL2     0.900000E-01   1.00800           0
     15087 MEMB     40       POPC     C29      CEL1    -0.150000       12.0110           0
     15088 MEMB     40       POPC     H91      HEL1     0.150000       1.00800           0
     15089 MEMB     40       POPC     C210     CEL1    -0.150000       12.0110           0
     15090 MEMB     40       POPC     H101     HEL1     0.150000       1.00800           0
     15091 MEMB     40       POPC     C211     CTL2    -0.180000       12.0110           0
     15092 MEMB     40       POPC     H11R     HAL2     0.900000E-01   1.00800           0
     15093 MEMB     40       POPC     H11S     HAL2     0.900000E-01   1.00800           0
     15094 MEMB     40       POPC     C212     CTL2    -0.180000       12.0110           0
     15095 MEMB     40       POPC     H12R     HAL2     0.900000E-01   1.00800           0
     15096 MEMB     40       POPC     H12S     HAL2     0.900000E-01   1.00800           0
     15097 MEMB     40       POPC     C213     CTL2    -0.180000       12.0110           0
     15098 MEMB     40       POPC     H13R     HAL2     0.900000E-01   1.00800           0
     15099 MEMB     40       POPC     H13S     HAL2     0.900000E-01   1.00800           0
     15100 MEMB     40       POPC     C214     CTL2    -0.180000       12.0110           0
     15101 MEMB     40       POPC     H14R     HAL2     0.900000E-01   1.00800           0
     15102 MEMB     40       POPC     H14S     HAL2     0.900000E-01   1.00800           0
     15103 MEMB     40       POPC     C215     CTL2    -0.180000       12.0110           0
     15104 MEMB     40       POPC     H15R     HAL2     0.900000E-01   1.00800           0
     15105 MEMB     40       POPC     H15S     HAL2     0.900000E-01   1.00800           0
     15106 MEMB     40       POPC     C216     CTL2    -0.180000       12.0110           0
     15107 MEMB     40       POPC     H16R     HAL2     0.900000E-01   1.00800           0
     15108 MEMB     40       POPC     H16S     HAL2     0.900000E-01   1.00800           0
     15109 MEMB     40       POPC     C217     CTL2    -0.180000       12.0110           0
     15110 MEMB     40       POPC     H17R     HAL2     0.900000E-01   1.00800           0
     15111 MEMB     40       POPC     H17S     HAL2     0.900000E-01   1.00800           0
     15112 MEMB     40       POPC     C218     CTL3    -0.270000       12.0110           0
     15113 MEMB     40       POPC     H18R     HAL3     0.900000E-01   1.00800           0
     15114 MEMB     40       POPC     H18S     HAL3     0.900000E-01   1.00800           0
     15115 MEMB     40       POPC     H18T     HAL3     0.900000E-01   1.00800           0
     15116 MEMB     40       POPC     C33      CTL2    -0.180000       12.0110           0
     15117 MEMB     40       POPC     H3X      HAL2     0.900000E-01   1.00800           0
     15118 MEMB     40       POPC     H3Y      HAL2     0.900000E-01   1.00800           0
     15119 MEMB     40       POPC     C34      CTL2    -0.180000       12.0110           0
     15120 MEMB     40       POPC     H4X      HAL2     0.900000E-01   1.00800           0
     15121 MEMB     40       POPC     H4Y      HAL2     0.900000E-01   1.00800           0
     15122 MEMB     40       POPC     C35      CTL2    -0.180000       12.0110           0
     15123 MEMB     40       POPC     H5X      HAL2     0.900000E-01   1.00800           0
     15124 MEMB     40       POPC     H5Y      HAL2     0.900000E-01   1.00800           0
     15125 MEMB     40       POPC     C36      CTL2    -0.180000       12.0110           0
     15126 MEMB     40       POPC     H6X      HAL2     0.900000E-01   1.00800           0
     15127 MEMB     40       POPC     H6Y      HAL2     0.900000E-01   1.00800           0
     15128 MEMB     40       POPC     C37      CTL2    -0.180000       12.0110           0
     15129 MEMB     40       POPC     H7X      HAL2     0.900000E-01   1.00800           0
     15130 MEMB     40       POPC     H7Y      HAL2     0.900000E-01   1.00800           0
     15131 MEMB     40       POPC     C38      CTL2    -0.180000       12.0110           0
     15132 MEMB     40       POPC     H8X      HAL2     0.900000E-01   1.00800           0
     15133 MEMB     40       POPC     H8Y      HAL2     0.900000E-01   1.00800           0
     15134 MEMB     40       POPC     C39      CTL2    -0.180000       12.0110           0
     15135 MEMB     40       POPC     H9X      HAL2     0.900000E-01   1.00800           0
     15136 MEMB     40       POPC     H9Y      HAL2     0.900000E-01   1.00800           0
     15137 MEMB     40       POPC     C310     CTL2    -0.180000       12.0110           0
     15138 MEMB     40       POPC     H10X     HAL2     0.900000E-01   1.00800           0
     15139 MEMB     40       POPC     H10Y     HAL2     0.900000E-01   1.00800           0
     15140 MEMB     40       POPC     C311     CTL2    -0.180000       12.0110           0
     15141 MEMB     40       POPC     H11X     HAL2     0.900000E-01   1.00800           0
     15142 MEMB     40       POPC     H11Y     HAL2     0.900000E-01   1.00800           0
     15143 MEMB     40       POPC     C312     CTL2    -0.180000       12.0110           0
     15144 MEMB     40       POPC     H12X     HAL2     0.900000E-01   1.00800           0
     15145 MEMB     40       POPC     H12Y     HAL2     0.900000E-01   1.00800           0
     15146 MEMB     40       POPC     C313     CTL2    -0.180000       12.0110           0
     15147 MEMB     40       POPC     H13X     HAL2     0.900000E-01   1.00800           0
     15148 MEMB     40       POPC     H13Y     HAL2     0.900000E-01   1.00800           0
     15149 MEMB     40       POPC     C314     CTL2    -0.180000       12.0110           0
     15150 MEMB     40       POPC     H14X     HAL2     0.900000E-01   1.00800           0
     15151 MEMB     40       POPC     H14Y     HAL2     0.900000E-01   1.00800           0
     15152 MEMB     40       POPC     C315     CTL2    -0.180000       12.0110           0
     15153 MEMB     40       POPC     H15X     HAL2     0.900000E-01   1.00800           0
     15154 MEMB     40       POPC     H15Y     HAL2     0.900000E-01   1.00800           0
     15155 MEMB     40       POPC     C316     CTL3    -0.270000       12.0110           0
     15156 MEMB     40       POPC     H16X     HAL3     0.900000E-01   1.00800           0
     15157 MEMB     40       POPC     H16Y     HAL3     0.900000E-01   1.00800           0
     15158 MEMB     40       POPC     H16Z     HAL3     0.900000E-01   1.00800           0
     15159 MEMB     46       POPC     N        NTL     -0.600000       14.0070           0
     15160 MEMB     46       POPC     C12      CTL2    -0.100000       12.0110           0
     15161 MEMB     46       POPC     H12A     HL       0.250000       1.00800           0
     15162 MEMB     46       POPC     H12B     HL       0.250000       1.00800           0
     15163 MEMB     46       POPC     C13      CTL5    -0.350000       12.0110           0
     15164 MEMB     46       POPC     H13A     HL       0.250000       1.00800           0
     15165 MEMB     46       POPC     H13B     HL       0.250000       1.00800           0
     15166 MEMB     46       POPC     H13C     HL       0.250000       1.00800           0
     15167 MEMB     46       POPC     C14      CTL5    -0.350000       12.0110           0
     15168 MEMB     46       POPC     H14A     HL       0.250000       1.00800           0
     15169 MEMB     46       POPC     H14B     HL       0.250000       1.00800           0
     15170 MEMB     46       POPC     H14C     HL       0.250000       1.00800           0
     15171 MEMB     46       POPC     C15      CTL5    -0.350000       12.0110           0
     15172 MEMB     46       POPC     H15A     HL       0.250000       1.00800           0
     15173 MEMB     46       POPC     H15B     HL       0.250000       1.00800           0
     15174 MEMB     46       POPC     H15C     HL       0.250000       1.00800           0
     15175 MEMB     46       POPC     C11      CTL2    -0.800000E-01   12.0110           0
     15176 MEMB     46       POPC     H11A     HAL2     0.900000E-01   1.00800           0
     15177 MEMB     46       POPC     H11B     HAL2     0.900000E-01   1.00800           0
     15178 MEMB     46       POPC     P        PL       1.500000       30.9740           0
     15179 MEMB     46       POPC     O13      O2L     -0.780000       15.9994           0
     15180 MEMB     46       POPC     O14      O2L     -0.780000       15.9994           0
     15181 MEMB     46       POPC     O12      OSLP    -0.570000       15.9994           0
     15182 MEMB     46       POPC     O11      OSLP    -0.570000       15.9994           0
     15183 MEMB     46       POPC     C1       CTL2    -0.800000E-01   12.0110           0
     15184 MEMB     46       POPC     HA       HAL2     0.900000E-01   1.00800           0
     15185 MEMB     46       POPC     HB       HAL2     0.900000E-01   1.00800           0
     15186 MEMB     46       POPC     C2       CTL1     0.170000       12.0110           0
     15187 MEMB     46       POPC     HS       HAL1     0.900000E-01   1.00800           0
     15188 MEMB     46       POPC     O21      OSL     -0.490000       15.9994           0
     15189 MEMB     46       POPC     C21      CL       0.900000       12.0110           0
     15190 MEMB     46       POPC     O22      OBL     -0.630000       15.9994           0
     15191 MEMB     46       POPC     C22      CTL2    -0.220000       12.0110           0
     15192 MEMB     46       POPC     H2R      HAL2     0.900000E-01   1.00800           0
     15193 MEMB     46       POPC     H2S      HAL2     0.900000E-01   1.00800           0
     15194 MEMB     46       POPC     C3       CTL2     0.800000E-01   12.0110           0
     15195 MEMB     46       POPC     HX       HAL2     0.900000E-01   1.00800           0
     15196 MEMB     46       POPC     HY       HAL2     0.900000E-01   1.00800           0
     15197 MEMB     46       POPC     O31      OSL     -0.490000       15.9994           0
     15198 MEMB     46       POPC     C31      CL       0.900000       12.0110           0
     15199 MEMB     46       POPC     O32      OBL     -0.630000       15.9994           0
     15200 MEMB     46       POPC     C32      CTL2    -0.220000       12.0110           0
     15201 MEMB     46       POPC     H2X      HAL2     0.900000E-01   1.00800           0
     15202 MEMB     46       POPC     H2Y      HAL2     0.900000E-01   1.00800           0
     15203 MEMB     46       POPC     C23      CTL2    -0.180000       12.0110           0
     15204 MEMB     46       POPC     H3R      HAL2     0.900000E-01   1.00800           0
     15205 MEMB     46       POPC     H3S      HAL2     0.900000E-01   1.00800           0
     15206 MEMB     46       POPC     C24      CTL2    -0.180000       12.0110           0
     15207 MEMB     46       POPC     H4R      HAL2     0.900000E-01   1.00800           0
     15208 MEMB     46       POPC     H4S      HAL2     0.900000E-01   1.00800           0
     15209 MEMB     46       POPC     C25      CTL2    -0.180000       12.0110           0
     15210 MEMB     46       POPC     H5R      HAL2     0.900000E-01   1.00800           0
     15211 MEMB     46       POPC     H5S      HAL2     0.900000E-01   1.00800           0
     15212 MEMB     46       POPC     C26      CTL2    -0.180000       12.0110           0
     15213 MEMB     46       POPC     H6R      HAL2     0.900000E-01   1.00800           0
     15214 MEMB     46       POPC     H6S      HAL2     0.900000E-01   1.00800           0
     15215 MEMB     46       POPC     C27      CTL2    -0.180000       12.0110           0
     15216 MEMB     46       POPC     H7R      HAL2     0.900000E-01   1.00800           0
     15217 MEMB     46       POPC     H7S      HAL2     0.900000E-01   1.00800           0
     15218 MEMB     46       POPC     C28      CTL2    -0.180000       12.0110           0
     15219 MEMB     46       POPC     H8R      HAL2     0.900000E-01   1.00800           0
     15220 MEMB     46       POPC     H8S      HAL2     0.900000E-01   1.00800           0
     15221 MEMB     46       POPC     C29      CEL1    -0.150000       12.0110           0
     15222 MEMB     46       POPC     H91      HEL1     0.150000       1.00800           0
     15223 MEMB     46       POPC     C210     CEL1    -0.150000       12.0110           0
     15224 MEMB     46       POPC     H101     HEL1     0.150000       1.00800           0
     15225 MEMB     46       POPC     C211     CTL2    -0.180000       12.0110           0
     15226 MEMB     46       POPC     H11R     HAL2     0.900000E-01   1.00800           0
     15227 MEMB     46       POPC     H11S     HAL2     0.900000E-01   1.00800           0
     15228 MEMB     46       POPC     C212     CTL2    -0.180000       12.0110           0
     15229 MEMB     46       POPC     H12R     HAL2     0.900000E-01   1.00800           0
     15230 MEMB     46       POPC     H12S     HAL2     0.900000E-01   1.00800           0
     15231 MEMB     46       POPC     C213     CTL2    -0.180000       12.0110           0
     15232 MEMB     46       POPC     H13R     HAL2     0.900000E-01   1.00800           0
     15233 MEMB     46       POPC     H13S     HAL2     0.900000E-01   1.00800           0
     15234 MEMB     46       POPC     C214     CTL2    -0.180000       12.0110           0
     15235 MEMB     46       POPC     H14R     HAL2     0.900000E-01   1.00800           0
     15236 MEMB     46       POPC     H14S     HAL2     0.900000E-01   1.00800           0
     15237 MEMB     46       POPC     C215     CTL2    -0.180000       12.0110           0
     15238 MEMB     46       POPC     H15R     HAL2     0.900000E-01   1.00800           0
     15239 MEMB     46       POPC     H15S     HAL2     0.900000E-01   1.00800           0
     15240 MEMB     46       POPC     C216     CTL2    -0.180000       12.0110           0
     15241 MEMB     46       POPC     H16R     HAL2     0.900000E-01   1.00800           0
     15242 MEMB     46       POPC     H16S     HAL2     0.900000E-01   1.00800           0
     15243 MEMB     46       POPC     C217     CTL2    -0.180000       12.0110           0
     15244 MEMB     46       POPC     H17R     HAL2     0.900000E-01   1.00800           0
     15245 MEMB     46       POPC     H17S     HAL2     0.900000E-01   1.00800           0
     15246 MEMB     46       POPC     C218     CTL3    -0.270000       12.0110           0
     15247 MEMB     46       POPC     H18R     HAL3     0.900000E-01   1.00800           0
     15248 MEMB     46       POPC     H18S     HAL3     0.900000E-01   1.00800           0
     15249 MEMB     46       POPC     H18T     HAL3     0.900000E-01   1.00800           0
     15250 MEMB     46       POPC     C33      CTL2    -0.180000       12.0110           0
     15251 MEMB     46       POPC     H3X      HAL2     0.900000E-01   1.00800           0
     15252 MEMB     46       POPC     H3Y      HAL2     0.900000E-01   1.00800           0
     15253 MEMB     46       POPC     C34      CTL2    -0.180000       12.0110           0
     15254 MEMB     46       POPC     H4X      HAL2     0.900000E-01   1.00800           0
     15255 MEMB     46       POPC     H4Y      HAL2     0.900000E-01   1.00800           0
     15256 MEMB     46       POPC     C35      CTL2    -0.180000       12.0110           0
     15257 MEMB     46       POPC     H5X      HAL2     0.900000E-01   1.00800           0
     15258 MEMB     46       POPC     H5Y      HAL2     0.900000E-01   1.00800           0
     15259 MEMB     46       POPC     C36      CTL2    -0.180000       12.0110           0
     15260 MEMB     46       POPC     H6X      HAL2     0.900000E-01   1.00800           0
     15261 MEMB     46       POPC     H6Y      HAL2     0.900000E-01   1.00800           0
     15262 MEMB     46       POPC     C37      CTL2    -0.180000       12.0110           0
     15263 MEMB     46       POPC     H7X      HAL2     0.900000E-01   1.00800           0
     15264 MEMB     46       POPC     H7Y      HAL2     0.900000E-01   1.00800           0
     15265 MEMB     46       POPC     C38      CTL2    -0.180000       12.0110           0
     15266 MEMB     46       POPC     H8X      HAL2     0.900000E-01   1.00800           0
     15267 MEMB     46       POPC     H8Y      HAL2     0.900000E-01   1.00800           0
     15268 MEMB     46       POPC     C39      CTL2    -0.180000       12.0110           0
     15269 MEMB     46       POPC     H9X      HAL2     0.900000E-01   1.00800           0
     15270 MEMB     46       POPC     H9Y      HAL2     0.900000E-01   1.00800           0
     15271 MEMB     46       POPC     C310     CTL2    -0.180000       12.0110           0
     15272 MEMB     46       POPC     H10X     HAL2     0.900000E-01   1.00800           0
     15273 MEMB     46       POPC     H10Y     HAL2     0.900000E-01   1.00800           0
     15274 MEMB     46       POPC     C311     CTL2    -0.180000       12.0110           0
     15275 MEMB     46       POPC     H11X     HAL2     0.900000E-01   1.00800           0
     15276 MEMB     46       POPC     H11Y     HAL2     0.900000E-01   1.00800           0
     15277 MEMB     46       POPC     C312     CTL2    -0.180000       12.0110           0
     15278 MEMB     46       POPC     H12X     HAL2     0.900000E-01   1.00800           0
     15279 MEMB     46       POPC     H12Y     HAL2     0.900000E-01   1.00800           0
     15280 MEMB     46       POPC     C313     CTL2    -0.180000       12.0110           0
     15281 MEMB     46       POPC     H13X     HAL2     0.900000E-01   1.00800           0
     15282 MEMB     46       POPC     H13Y     HAL2     0.900000E-01   1.00800           0
     15283 MEMB     46       POPC     C314     CTL2    -0.180000       12.0110           0
     15284 MEMB     46       POPC     H14X     HAL2     0.900000E-01   1.00800           0
     15285 MEMB     46       POPC     H14Y     HAL2     0.900000E-01   1.00800           0
     15286 MEMB     46       POPC     C315     CTL2    -0.180000       12.0110           0
     15287 MEMB     46       POPC     H15X     HAL2     0.900000E-01   1.00800           0
     15288 MEMB     46       POPC     H15Y     HAL2     0.900000E-01   1.00800           0
     15289 MEMB     46       POPC     C316     CTL3    -0.270000       12.0110           0
     15290 MEMB     46       POPC     H16X     HAL3     0.900000E-01   1.00800           0
     15291 MEMB     46       POPC     H16Y     HAL3     0.900000E-01   1.00800           0
     15292 MEMB     46       POPC     H16Z     HAL3     0.900000E-01   1.00800           0
     15293 MEMB     47       POPC     N        NTL     -0.600000       14.0070           0
     15294 MEMB     47       POPC     C12      CTL2    -0.100000       12.0110           0
     15295 MEMB     47       POPC     H12A     HL       0.250000       1.00800           0
     15296 MEMB     47       POPC     H12B     HL       0.250000       1.00800           0
     15297 MEMB     47       POPC     C13      CTL5    -0.350000       12.0110           0
     15298 MEMB     47       POPC     H13A     HL       0.250000       1.00800           0
     15299 MEMB     47       POPC     H13B     HL       0.250000       1.00800           0
     15300 MEMB     47       POPC     H13C     HL       0.250000       1.00800           0
     15301 MEMB     47       POPC     C14      CTL5    -0.350000       12.0110           0
     15302 MEMB     47       POPC     H14A     HL       0.250000       1.00800           0
     15303 MEMB     47       POPC     H14B     HL       0.250000       1.00800           0
     15304 MEMB     47       POPC     H14C     HL       0.250000       1.00800           0
     15305 MEMB     47       POPC     C15      CTL5    -0.350000       12.0110           0
     15306 MEMB     47       POPC     H15A     HL       0.250000       1.00800           0
     15307 MEMB     47       POPC     H15B     HL       0.250000       1.00800           0
     15308 MEMB     47       POPC     H15C     HL       0.250000       1.00800           0
     15309 MEMB     47       POPC     C11      CTL2    -0.800000E-01   12.0110           0
     15310 MEMB     47       POPC     H11A     HAL2     0.900000E-01   1.00800           0
     15311 MEMB     47       POPC     H11B     HAL2     0.900000E-01   1.00800           0
     15312 MEMB     47       POPC     P        PL       1.500000       30.9740           0
     15313 MEMB     47       POPC     O13      O2L     -0.780000       15.9994           0
     15314 MEMB     47       POPC     O14      O2L     -0.780000       15.9994           0
     15315 MEMB     47       POPC     O12      OSLP    -0.570000       15.9994           0
     15316 MEMB     47       POPC     O11      OSLP    -0.570000       15.9994           0
     15317 MEMB     47       POPC     C1       CTL2    -0.800000E-01   12.0110           0
     15318 MEMB     47       POPC     HA       HAL2     0.900000E-01   1.00800           0
     15319 MEMB     47       POPC     HB       HAL2     0.900000E-01   1.00800           0
     15320 MEMB     47       POPC     C2       CTL1     0.170000       12.0110           0
     15321 MEMB     47       POPC     HS       HAL1     0.900000E-01   1.00800           0
     15322 MEMB     47       POPC     O21      OSL     -0.490000       15.9994           0
     15323 MEMB     47       POPC     C21      CL       0.900000       12.0110           0
     15324 MEMB     47       POPC     O22      OBL     -0.630000       15.9994           0
     15325 MEMB     47       POPC     C22      CTL2    -0.220000       12.0110           0
     15326 MEMB     47       POPC     H2R      HAL2     0.900000E-01   1.00800           0
     15327 MEMB     47       POPC     H2S      HAL2     0.900000E-01   1.00800           0
     15328 MEMB     47       POPC     C3       CTL2     0.800000E-01   12.0110           0
     15329 MEMB     47       POPC     HX       HAL2     0.900000E-01   1.00800           0
     15330 MEMB     47       POPC     HY       HAL2     0.900000E-01   1.00800           0
     15331 MEMB     47       POPC     O31      OSL     -0.490000       15.9994           0
     15332 MEMB     47       POPC     C31      CL       0.900000       12.0110           0
     15333 MEMB     47       POPC     O32      OBL     -0.630000       15.9994           0
     15334 MEMB     47       POPC     C32      CTL2    -0.220000       12.0110           0
     15335 MEMB     47       POPC     H2X      HAL2     0.900000E-01   1.00800           0
     15336 MEMB     47       POPC     H2Y      HAL2     0.900000E-01   1.00800           0
     15337 MEMB     47       POPC     C23      CTL2    -0.180000       12.0110           0
     15338 MEMB     47       POPC     H3R      HAL2     0.900000E-01   1.00800           0
     15339 MEMB     47       POPC     H3S      HAL2     0.900000E-01   1.00800           0
     15340 MEMB     47       POPC     C24      CTL2    -0.180000       12.0110           0
     15341 MEMB     47       POPC     H4R      HAL2     0.900000E-01   1.00800           0
     15342 MEMB     47       POPC     H4S      HAL2     0.900000E-01   1.00800           0
     15343 MEMB     47       POPC     C25      CTL2    -0.180000       12.0110           0
     15344 MEMB     47       POPC     H5R      HAL2     0.900000E-01   1.00800           0
     15345 MEMB     47       POPC     H5S      HAL2     0.900000E-01   1.00800           0
     15346 MEMB     47       POPC     C26      CTL2    -0.180000       12.0110           0
     15347 MEMB     47       POPC     H6R      HAL2     0.900000E-01   1.00800           0
     15348 MEMB     47       POPC     H6S      HAL2     0.900000E-01   1.00800           0
     15349 MEMB     47       POPC     C27      CTL2    -0.180000       12.0110           0
     15350 MEMB     47       POPC     H7R      HAL2     0.900000E-01   1.00800           0
     15351 MEMB     47       POPC     H7S      HAL2     0.900000E-01   1.00800           0
     15352 MEMB     47       POPC     C28      CTL2    -0.180000       12.0110           0
     15353 MEMB     47       POPC     H8R      HAL2     0.900000E-01   1.00800           0
     15354 MEMB     47       POPC     H8S      HAL2     0.900000E-01   1.00800           0
     15355 MEMB     47       POPC     C29      CEL1    -0.150000       12.0110           0
     15356 MEMB     47       POPC     H91      HEL1     0.150000       1.00800           0
     15357 MEMB     47       POPC     C210     CEL1    -0.150000       12.0110           0
     15358 MEMB     47       POPC     H101     HEL1     0.150000       1.00800           0
     15359 MEMB     47       POPC     C211     CTL2    -0.180000       12.0110           0
     15360 MEMB     47       POPC     H11R     HAL2     0.900000E-01   1.00800           0
     15361 MEMB     47       POPC     H11S     HAL2     0.900000E-01   1.00800           0
     15362 MEMB     47       POPC     C212     CTL2    -0.180000       12.0110           0
     15363 MEMB     47       POPC     H12R     HAL2     0.900000E-01   1.00800           0
     15364 MEMB     47       POPC     H12S     HAL2     0.900000E-01   1.00800           0
     15365 MEMB     47       POPC     C213     CTL2    -0.180000       12.0110           0
     15366 MEMB     47       POPC     H13R     HAL2     0.900000E-01   1.00800           0
     15367 MEMB     47       POPC     H13S     HAL2     0.900000E-01   1.00800           0
     15368 MEMB     47       POPC     C214     CTL2    -0.180000       12.0110           0
     15369 MEMB     47       POPC     H14R     HAL2     0.900000E-01   1.00800           0
     15370 MEMB     47       POPC     H14S     HAL2     0.900000E-01   1.00800           0
     15371 MEMB     47       POPC     C215     CTL2    -0.180000       12.0110           0
     15372 MEMB     47       POPC     H15R     HAL2     0.900000E-01   1.00800           0
     15373 MEMB     47       POPC     H15S     HAL2     0.900000E-01   1.00800           0
     15374 MEMB     47       POPC     C216     CTL2    -0.180000       12.0110           0
     15375 MEMB     47       POPC     H16R     HAL2     0.900000E-01   1.00800           0
     15376 MEMB     47       POPC     H16S     HAL2     0.900000E-01   1.00800           0
     15377 MEMB     47       POPC     C217     CTL2    -0.180000       12.0110           0
     15378 MEMB     47       POPC     H17R     HAL2     0.900000E-01   1.00800           0
     15379 MEMB     47       POPC     H17S     HAL2     0.900000E-01   1.00800           0
     15380 MEMB     47       POPC     C218     CTL3    -0.270000       12.0110           0
     15381 MEMB     47       POPC     H18R     HAL3     0.900000E-01   1.00800           0
     15382 MEMB     47       POPC     H18S     HAL3     0.900000E-01   1.00800           0
     15383 MEMB     47       POPC     H18T     HAL3     0.900000E-01   1.00800           0
     15384 MEMB     47       POPC     C33      CTL2    -0.180000       12.0110           0
     15385 MEMB     47       POPC     H3X      HAL2     0.900000E-01   1.00800           0
     15386 MEMB     47       POPC     H3Y      HAL2     0.900000E-01   1.00800           0
     15387 MEMB     47       POPC     C34      CTL2    -0.180000       12.0110           0
     15388 MEMB     47       POPC     H4X      HAL2     0.900000E-01   1.00800           0
     15389 MEMB     47       POPC     H4Y      HAL2     0.900000E-01   1.00800           0
     15390 MEMB     47       POPC     C35      CTL2    -0.180000       12.0110           0
     15391 MEMB     47       POPC     H5X      HAL2     0.900000E-01   1.00800           0
     15392 MEMB     47       POPC     H5Y      HAL2     0.900000E-01   1.00800           0
     15393 MEMB     47       POPC     C36      CTL2    -0.180000       12.0110           0
     15394 MEMB     47       POPC     H6X      HAL2     0.900000E-01   1.00800           0
     15395 MEMB     47       POPC     H6Y      HAL2     0.900000E-01   1.00800           0
     15396 MEMB     47       POPC     C37      CTL2    -0.180000       12.0110           0
     15397 MEMB     47       POPC     H7X      HAL2     0.900000E-01   1.00800           0
     15398 MEMB     47       POPC     H7Y      HAL2     0.900000E-01   1.00800           0
     15399 MEMB     47       POPC     C38      CTL2    -0.180000       12.0110           0
     15400 MEMB     47       POPC     H8X      HAL2     0.900000E-01   1.00800           0
     15401 MEMB     47       POPC     H8Y      HAL2     0.900000E-01   1.00800           0
     15402 MEMB     47       POPC     C39      CTL2    -0.180000       12.0110           0
     15403 MEMB     47       POPC     H9X      HAL2     0.900000E-01   1.00800           0
     15404 MEMB     47       POPC     H9Y      HAL2     0.900000E-01   1.00800           0
     15405 MEMB     47       POPC     C310     CTL2    -0.180000       12.0110           0
     15406 MEMB     47       POPC     H10X     HAL2     0.900000E-01   1.00800           0
     15407 MEMB     47       POPC     H10Y     HAL2     0.900000E-01   1.00800           0
     15408 MEMB     47       POPC     C311     CTL2    -0.180000       12.0110           0
     15409 MEMB     47       POPC     H11X     HAL2     0.900000E-01   1.00800           0
     15410 MEMB     47       POPC     H11Y     HAL2     0.900000E-01   1.00800           0
     15411 MEMB     47       POPC     C312     CTL2    -0.180000       12.0110           0
     15412 MEMB     47       POPC     H12X     HAL2     0.900000E-01   1.00800           0
     15413 MEMB     47       POPC     H12Y     HAL2     0.900000E-01   1.00800           0
     15414 MEMB     47       POPC     C313     CTL2    -0.180000       12.0110           0
     15415 MEMB     47       POPC     H13X     HAL2     0.900000E-01   1.00800           0
     15416 MEMB     47       POPC     H13Y     HAL2     0.900000E-01   1.00800           0
     15417 MEMB     47       POPC     C314     CTL2    -0.180000       12.0110           0
     15418 MEMB     47       POPC     H14X     HAL2     0.900000E-01   1.00800           0
     15419 MEMB     47       POPC     H14Y     HAL2     0.900000E-01   1.00800           0
     15420 MEMB     47       POPC     C315     CTL2    -0.180000       12.0110           0
     15421 MEMB     47       POPC     H15X     HAL2     0.900000E-01   1.00800           0
     15422 MEMB     47       POPC     H15Y     HAL2     0.900000E-01   1.00800           0
     15423 MEMB     47       POPC     C316     CTL3    -0.270000       12.0110           0
     15424 MEMB     47       POPC     H16X     HAL3     0.900000E-01   1.00800           0
     15425 MEMB     47       POPC     H16Y     HAL3     0.900000E-01   1.00800           0
     15426 MEMB     47       POPC     H16Z     HAL3     0.900000E-01   1.00800           0
     15427 MEMB     51       POPC     N        NTL     -0.600000       14.0070           0
     15428 MEMB     51       POPC     C12      CTL2    -0.100000       12.0110           0
     15429 MEMB     51       POPC     H12A     HL       0.250000       1.00800           0
     15430 MEMB     51       POPC     H12B     HL       0.250000       1.00800           0
     15431 MEMB     51       POPC     C13      CTL5    -0.350000       12.0110           0
     15432 MEMB     51       POPC     H13A     HL       0.250000       1.00800           0
     15433 MEMB     51       POPC     H13B     HL       0.250000       1.00800           0
     15434 MEMB     51       POPC     H13C     HL       0.250000       1.00800           0
     15435 MEMB     51       POPC     C14      CTL5    -0.350000       12.0110           0
     15436 MEMB     51       POPC     H14A     HL       0.250000       1.00800           0
     15437 MEMB     51       POPC     H14B     HL       0.250000       1.00800           0
     15438 MEMB     51       POPC     H14C     HL       0.250000       1.00800           0
     15439 MEMB     51       POPC     C15      CTL5    -0.350000       12.0110           0
     15440 MEMB     51       POPC     H15A     HL       0.250000       1.00800           0
     15441 MEMB     51       POPC     H15B     HL       0.250000       1.00800           0
     15442 MEMB     51       POPC     H15C     HL       0.250000       1.00800           0
     15443 MEMB     51       POPC     C11      CTL2    -0.800000E-01   12.0110           0
     15444 MEMB     51       POPC     H11A     HAL2     0.900000E-01   1.00800           0
     15445 MEMB     51       POPC     H11B     HAL2     0.900000E-01   1.00800           0
     15446 MEMB     51       POPC     P        PL       1.500000       30.9740           0
     15447 MEMB     51       POPC     O13      O2L     -0.780000       15.9994           0
     15448 MEMB     51       POPC     O14      O2L     -0.780000       15.9994           0
     15449 MEMB     51       POPC     O12      OSLP    -0.570000       15.9994           0
     15450 MEMB     51       POPC     O11      OSLP    -0.570000       15.9994           0
     15451 MEMB     51       POPC     C1       CTL2    -0.800000E-01   12.0110           0
     15452 MEMB     51       POPC     HA       HAL2     0.900000E-01   1.00800           0
     15453 MEMB     51       POPC     HB       HAL2     0.900000E-01   1.00800           0
     15454 MEMB     51       POPC     C2       CTL1     0.170000       12.0110           0
     15455 MEMB     51       POPC     HS       HAL1     0.900000E-01   1.00800           0
     15456 MEMB     51       POPC     O21      OSL     -0.490000       15.9994           0
     15457 MEMB     51       POPC     C21      CL       0.900000       12.0110           0
     15458 MEMB     51       POPC     O22      OBL     -0.630000       15.9994           0
     15459 MEMB     51       POPC     C22      CTL2    -0.220000       12.0110           0
     15460 MEMB     51       POPC     H2R      HAL2     0.900000E-01   1.00800           0
     15461 MEMB     51       POPC     H2S      HAL2     0.900000E-01   1.00800           0
     15462 MEMB     51       POPC     C3       CTL2     0.800000E-01   12.0110           0
     15463 MEMB     51       POPC     HX       HAL2     0.900000E-01   1.00800           0
     15464 MEMB     51       POPC     HY       HAL2     0.900000E-01   1.00800           0
     15465 MEMB     51       POPC     O31      OSL     -0.490000       15.9994           0
     15466 MEMB     51       POPC     C31      CL       0.900000       12.0110           0
     15467 MEMB     51       POPC     O32      OBL     -0.630000       15.9994           0
     15468 MEMB     51       POPC     C32      CTL2    -0.220000       12.0110           0
     15469 MEMB     51       POPC     H2X      HAL2     0.900000E-01   1.00800           0
     15470 MEMB     51       POPC     H2Y      HAL2     0.900000E-01   1.00800           0
     15471 MEMB     51       POPC     C23      CTL2    -0.180000       12.0110           0
     15472 MEMB     51       POPC     H3R      HAL2     0.900000E-01   1.00800           0
     15473 MEMB     51       POPC     H3S      HAL2     0.900000E-01   1.00800           0
     15474 MEMB     51       POPC     C24      CTL2    -0.180000       12.0110           0
     15475 MEMB     51       POPC     H4R      HAL2     0.900000E-01   1.00800           0
     15476 MEMB     51       POPC     H4S      HAL2     0.900000E-01   1.00800           0
     15477 MEMB     51       POPC     C25      CTL2    -0.180000       12.0110           0
     15478 MEMB     51       POPC     H5R      HAL2     0.900000E-01   1.00800           0
     15479 MEMB     51       POPC     H5S      HAL2     0.900000E-01   1.00800           0
     15480 MEMB     51       POPC     C26      CTL2    -0.180000       12.0110           0
     15481 MEMB     51       POPC     H6R      HAL2     0.900000E-01   1.00800           0
     15482 MEMB     51       POPC     H6S      HAL2     0.900000E-01   1.00800           0
     15483 MEMB     51       POPC     C27      CTL2    -0.180000       12.0110           0
     15484 MEMB     51       POPC     H7R      HAL2     0.900000E-01   1.00800           0
     15485 MEMB     51       POPC     H7S      HAL2     0.900000E-01   1.00800           0
     15486 MEMB     51       POPC     C28      CTL2    -0.180000       12.0110           0
     15487 MEMB     51       POPC     H8R      HAL2     0.900000E-01   1.00800           0
     15488 MEMB     51       POPC     H8S      HAL2     0.900000E-01   1.00800           0
     15489 MEMB     51       POPC     C29      CEL1    -0.150000       12.0110           0
     15490 MEMB     51       POPC     H91      HEL1     0.150000       1.00800           0
     15491 MEMB     51       POPC     C210     CEL1    -0.150000       12.0110           0
     15492 MEMB     51       POPC     H101     HEL1     0.150000       1.00800           0
     15493 MEMB     51       POPC     C211     CTL2    -0.180000       12.0110           0
     15494 MEMB     51       POPC     H11R     HAL2     0.900000E-01   1.00800           0
     15495 MEMB     51       POPC     H11S     HAL2     0.900000E-01   1.00800           0
     15496 MEMB     51       POPC     C212     CTL2    -0.180000       12.0110           0
     15497 MEMB     51       POPC     H12R     HAL2     0.900000E-01   1.00800           0
     15498 MEMB     51       POPC     H12S     HAL2     0.900000E-01   1.00800           0
     15499 MEMB     51       POPC     C213     CTL2    -0.180000       12.0110           0
     15500 MEMB     51       POPC     H13R     HAL2     0.900000E-01   1.00800           0
     15501 MEMB     51       POPC     H13S     HAL2     0.900000E-01   1.00800           0
     15502 MEMB     51       POPC     C214     CTL2    -0.180000       12.0110           0
     15503 MEMB     51       POPC     H14R     HAL2     0.900000E-01   1.00800           0
     15504 MEMB     51       POPC     H14S     HAL2     0.900000E-01   1.00800           0
     15505 MEMB     51       POPC     C215     CTL2    -0.180000       12.0110           0
     15506 MEMB     51       POPC     H15R     HAL2     0.900000E-01   1.00800           0
     15507 MEMB     51       POPC     H15S     HAL2     0.900000E-01   1.00800           0
     15508 MEMB     51       POPC     C216     CTL2    -0.180000       12.0110           0
     15509 MEMB     51       POPC     H16R     HAL2     0.900000E-01   1.00800           0
     15510 MEMB     51       POPC     H16S     HAL2     0.900000E-01   1.00800           0
     15511 MEMB     51       POPC     C217     CTL2    -0.180000       12.0110           0
     15512 MEMB     51       POPC     H17R     HAL2     0.900000E-01   1.00800           0
     15513 MEMB     51       POPC     H17S     HAL2     0.900000E-01   1.00800           0
     15514 MEMB     51       POPC     C218     CTL3    -0.270000       12.0110           0
     15515 MEMB     51       POPC     H18R     HAL3     0.900000E-01   1.00800           0
     15516 MEMB     51       POPC     H18S     HAL3     0.900000E-01   1.00800           0
     15517 MEMB     51       POPC     H18T     HAL3     0.900000E-01   1.00800           0
     15518 MEMB     51       POPC     C33      CTL2    -0.180000       12.0110           0
     15519 MEMB     51       POPC     H3X      HAL2     0.900000E-01   1.00800           0
     15520 MEMB     51       POPC     H3Y      HAL2     0.900000E-01   1.00800           0
     15521 MEMB     51       POPC     C34      CTL2    -0.180000       12.0110           0
     15522 MEMB     51       POPC     H4X      HAL2     0.900000E-01   1.00800           0
     15523 MEMB     51       POPC     H4Y      HAL2     0.900000E-01   1.00800           0
     15524 MEMB     51       POPC     C35      CTL2    -0.180000       12.0110           0
     15525 MEMB     51       POPC     H5X      HAL2     0.900000E-01   1.00800           0
     15526 MEMB     51       POPC     H5Y      HAL2     0.900000E-01   1.00800           0
     15527 MEMB     51       POPC     C36      CTL2    -0.180000       12.0110           0
     15528 MEMB     51       POPC     H6X      HAL2     0.900000E-01   1.00800           0
     15529 MEMB     51       POPC     H6Y      HAL2     0.900000E-01   1.00800           0
     15530 MEMB     51       POPC     C37      CTL2    -0.180000       12.0110           0
     15531 MEMB     51       POPC     H7X      HAL2     0.900000E-01   1.00800           0
     15532 MEMB     51       POPC     H7Y      HAL2     0.900000E-01   1.00800           0
     15533 MEMB     51       POPC     C38      CTL2    -0.180000       12.0110           0
     15534 MEMB     51       POPC     H8X      HAL2     0.900000E-01   1.00800           0
     15535 MEMB     51       POPC     H8Y      HAL2     0.900000E-01   1.00800           0
     15536 MEMB     51       POPC     C39      CTL2    -0.180000       12.0110           0
     15537 MEMB     51       POPC     H9X      HAL2     0.900000E-01   1.00800           0
     15538 MEMB     51       POPC     H9Y      HAL2     0.900000E-01   1.00800           0
     15539 MEMB     51       POPC     C310     CTL2    -0.180000       12.0110           0
     15540 MEMB     51       POPC     H10X     HAL2     0.900000E-01   1.00800           0
     15541 MEMB     51       POPC     H10Y     HAL2     0.900000E-01   1.00800           0
     15542 MEMB     51       POPC     C311     CTL2    -0.180000       12.0110           0
     15543 MEMB     51       POPC     H11X     HAL2     0.900000E-01   1.00800           0
     15544 MEMB     51       POPC     H11Y     HAL2     0.900000E-01   1.00800           0
     15545 MEMB     51       POPC     C312     CTL2    -0.180000       12.0110           0
     15546 MEMB     51       POPC     H12X     HAL2     0.900000E-01   1.00800           0
     15547 MEMB     51       POPC     H12Y     HAL2     0.900000E-01   1.00800           0
     15548 MEMB     51       POPC     C313     CTL2    -0.180000       12.0110           0
     15549 MEMB     51       POPC     H13X     HAL2     0.900000E-01   1.00800           0
     15550 MEMB     51       POPC     H13Y     HAL2     0.900000E-01   1.00800           0
     15551 MEMB     51       POPC     C314     CTL2    -0.180000       12.0110           0
     15552 MEMB     51       POPC     H14X     HAL2     0.900000E-01   1.00800           0
     15553 MEMB     51       POPC     H14Y     HAL2     0.900000E-01   1.00800           0
     15554 MEMB     51       POPC     C315     CTL2    -0.180000       12.0110           0
     15555 MEMB     51       POPC     H15X     HAL2     0.900000E-01   1.00800           0
     15556 MEMB     51       POPC     H15Y     HAL2     0.900000E-01   1.00800           0
     15557 MEMB     51       POPC     C316     CTL3    -0.270000       12.0110           0
     15558 MEMB     51       POPC     H16X     HAL3     0.900000E-01   1.00800           0
     15559 MEMB     51       POPC     H16Y     HAL3     0.900000E-01   1.00800           0
     15560 MEMB     51       POPC     H16Z     HAL3     0.900000E-01   1.00800           0
     15561 MEMB     56       POPC     N        NTL     -0.600000       14.0070           0
     15562 MEMB     56       POPC     C12      CTL2    -0.100000       12.0110           0
     15563 MEMB     56       POPC     H12A     HL       0.250000       1.00800           0
     15564 MEMB     56       POPC     H12B     HL       0.250000       1.00800           0
     15565 MEMB     56       POPC     C13      CTL5    -0.350000       12.0110           0
     15566 MEMB     56       POPC     H13A     HL       0.250000       1.00800           0
     15567 MEMB     56       POPC     H13B     HL       0.250000       1.00800           0
     15568 MEMB     56       POPC     H13C     HL       0.250000       1.00800           0
     15569 MEMB     56       POPC     C14      CTL5    -0.350000       12.0110           0
     15570 MEMB     56       POPC     H14A     HL       0.250000       1.00800           0
     15571 MEMB     56       POPC     H14B     HL       0.250000       1.00800           0
     15572 MEMB     56       POPC     H14C     HL       0.250000       1.00800           0
     15573 MEMB     56       POPC     C15      CTL5    -0.350000       12.0110           0
     15574 MEMB     56       POPC     H15A     HL       0.250000       1.00800           0
     15575 MEMB     56       POPC     H15B     HL       0.250000       1.00800           0
     15576 MEMB     56       POPC     H15C     HL       0.250000       1.00800           0
     15577 MEMB     56       POPC     C11      CTL2    -0.800000E-01   12.0110           0
     15578 MEMB     56       POPC     H11A     HAL2     0.900000E-01   1.00800           0
     15579 MEMB     56       POPC     H11B     HAL2     0.900000E-01   1.00800           0
     15580 MEMB     56       POPC     P        PL       1.500000       30.9740           0
     15581 MEMB     56       POPC     O13      O2L     -0.780000       15.9994           0
     15582 MEMB     56       POPC     O14      O2L     -0.780000       15.9994           0
     15583 MEMB     56       POPC     O12      OSLP    -0.570000       15.9994           0
     15584 MEMB     56       POPC     O11      OSLP    -0.570000       15.9994           0
     15585 MEMB     56       POPC     C1       CTL2    -0.800000E-01   12.0110           0
     15586 MEMB     56       POPC     HA       HAL2     0.900000E-01   1.00800           0
     15587 MEMB     56       POPC     HB       HAL2     0.900000E-01   1.00800           0
     15588 MEMB     56       POPC     C2       CTL1     0.170000       12.0110           0
     15589 MEMB     56       POPC     HS       HAL1     0.900000E-01   1.00800           0
     15590 MEMB     56       POPC     O21      OSL     -0.490000       15.9994           0
     15591 MEMB     56       POPC     C21      CL       0.900000       12.0110           0
     15592 MEMB     56       POPC     O22      OBL     -0.630000       15.9994           0
     15593 MEMB     56       POPC     C22      CTL2    -0.220000       12.0110           0
     15594 MEMB     56       POPC     H2R      HAL2     0.900000E-01   1.00800           0
     15595 MEMB     56       POPC     H2S      HAL2     0.900000E-01   1.00800           0
     15596 MEMB     56       POPC     C3       CTL2     0.800000E-01   12.0110           0
     15597 MEMB     56       POPC     HX       HAL2     0.900000E-01   1.00800           0
     15598 MEMB     56       POPC     HY       HAL2     0.900000E-01   1.00800           0
     15599 MEMB     56       POPC     O31      OSL     -0.490000       15.9994           0
     15600 MEMB     56       POPC     C31      CL       0.900000       12.0110           0
     15601 MEMB     56       POPC     O32      OBL     -0.630000       15.9994           0
     15602 MEMB     56       POPC     C32      CTL2    -0.220000       12.0110           0
     15603 MEMB     56       POPC     H2X      HAL2     0.900000E-01   1.00800           0
     15604 MEMB     56       POPC     H2Y      HAL2     0.900000E-01   1.00800           0
     15605 MEMB     56       POPC     C23      CTL2    -0.180000       12.0110           0
     15606 MEMB     56       POPC     H3R      HAL2     0.900000E-01   1.00800           0
     15607 MEMB     56       POPC     H3S      HAL2     0.900000E-01   1.00800           0
     15608 MEMB     56       POPC     C24      CTL2    -0.180000       12.0110           0
     15609 MEMB     56       POPC     H4R      HAL2     0.900000E-01   1.00800           0
     15610 MEMB     56       POPC     H4S      HAL2     0.900000E-01   1.00800           0
     15611 MEMB     56       POPC     C25      CTL2    -0.180000       12.0110           0
     15612 MEMB     56       POPC     H5R      HAL2     0.900000E-01   1.00800           0
     15613 MEMB     56       POPC     H5S      HAL2     0.900000E-01   1.00800           0
     15614 MEMB     56       POPC     C26      CTL2    -0.180000       12.0110           0
     15615 MEMB     56       POPC     H6R      HAL2     0.900000E-01   1.00800           0
     15616 MEMB     56       POPC     H6S      HAL2     0.900000E-01   1.00800           0
     15617 MEMB     56       POPC     C27      CTL2    -0.180000       12.0110           0
     15618 MEMB     56       POPC     H7R      HAL2     0.900000E-01   1.00800           0
     15619 MEMB     56       POPC     H7S      HAL2     0.900000E-01   1.00800           0
     15620 MEMB     56       POPC     C28      CTL2    -0.180000       12.0110           0
     15621 MEMB     56       POPC     H8R      HAL2     0.900000E-01   1.00800           0
     15622 MEMB     56       POPC     H8S      HAL2     0.900000E-01   1.00800           0
     15623 MEMB     56       POPC     C29      CEL1    -0.150000       12.0110           0
     15624 MEMB     56       POPC     H91      HEL1     0.150000       1.00800           0
     15625 MEMB     56       POPC     C210     CEL1    -0.150000       12.0110           0
     15626 MEMB     56       POPC     H101     HEL1     0.150000       1.00800           0
     15627 MEMB     56       POPC     C211     CTL2    -0.180000       12.0110           0
     15628 MEMB     56       POPC     H11R     HAL2     0.900000E-01   1.00800           0
     15629 MEMB     56       POPC     H11S     HAL2     0.900000E-01   1.00800           0
     15630 MEMB     56       POPC     C212     CTL2    -0.180000       12.0110           0
     15631 MEMB     56       POPC     H12R     HAL2     0.900000E-01   1.00800           0
     15632 MEMB     56       POPC     H12S     HAL2     0.900000E-01   1.00800           0
     15633 MEMB     56       POPC     C213     CTL2    -0.180000       12.0110           0
     15634 MEMB     56       POPC     H13R     HAL2     0.900000E-01   1.00800           0
     15635 MEMB     56       POPC     H13S     HAL2     0.900000E-01   1.00800           0
     15636 MEMB     56       POPC     C214     CTL2    -0.180000       12.0110           0
     15637 MEMB     56       POPC     H14R     HAL2     0.900000E-01   1.00800           0
     15638 MEMB     56       POPC     H14S     HAL2     0.900000E-01   1.00800           0
     15639 MEMB     56       POPC     C215     CTL2    -0.180000       12.0110           0
     15640 MEMB     56       POPC     H15R     HAL2     0.900000E-01   1.00800           0
     15641 MEMB     56       POPC     H15S     HAL2     0.900000E-01   1.00800           0
     15642 MEMB     56       POPC     C216     CTL2    -0.180000       12.0110           0
     15643 MEMB     56       POPC     H16R     HAL2     0.900000E-01   1.00800           0
     15644 MEMB     56       POPC     H16S     HAL2     0.900000E-01   1.00800           0
     15645 MEMB     56       POPC     C217     CTL2    -0.180000       12.0110           0
     15646 MEMB     56       POPC     H17R     HAL2     0.900000E-01   1.00800           0
     15647 MEMB     56       POPC     H17S     HAL2     0.900000E-01   1.00800           0
     15648 MEMB     56       POPC     C218     CTL3    -0.270000       12.0110           0
     15649 MEMB     56       POPC     H18R     HAL3     0.900000E-01   1.00800           0
     15650 MEMB     56       POPC     H18S     HAL3     0.900000E-01   1.00800           0
     15651 MEMB     56       POPC     H18T     HAL3     0.900000E-01   1.00800           0
     15652 MEMB     56       POPC     C33      CTL2    -0.180000       12.0110           0
     15653 MEMB     56       POPC     H3X      HAL2     0.900000E-01   1.00800           0
     15654 MEMB     56       POPC     H3Y      HAL2     0.900000E-01   1.00800           0
     15655 MEMB     56       POPC     C34      CTL2    -0.180000       12.0110           0
     15656 MEMB     56       POPC     H4X      HAL2     0.900000E-01   1.00800           0
     15657 MEMB     56       POPC     H4Y      HAL2     0.900000E-01   1.00800           0
     15658 MEMB     56       POPC     C35      CTL2    -0.180000       12.0110           0
     15659 MEMB     56       POPC     H5X      HAL2     0.900000E-01   1.00800           0
     15660 MEMB     56       POPC     H5Y      HAL2     0.900000E-01   1.00800           0
     15661 MEMB     56       POPC     C36      CTL2    -0.180000       12.0110           0
     15662 MEMB     56       POPC     H6X      HAL2     0.900000E-01   1.00800           0
     15663 MEMB     56       POPC     H6Y      HAL2     0.900000E-01   1.00800           0
     15664 MEMB     56       POPC     C37      CTL2    -0.180000       12.0110           0
     15665 MEMB     56       POPC     H7X      HAL2     0.900000E-01   1.00800           0
     15666 MEMB     56       POPC     H7Y      HAL2     0.900000E-01   1.00800           0
     15667 MEMB     56       POPC     C38      CTL2    -0.180000       12.0110           0
     15668 MEMB     56       POPC     H8X      HAL2     0.900000E-01   1.00800           0
     15669 MEMB     56       POPC     H8Y      HAL2     0.900000E-01   1.00800           0
     15670 MEMB     56       POPC     C39      CTL2    -0.180000       12.0110           0
     15671 MEMB     56       POPC     H9X      HAL2     0.900000E-01   1.00800           0
     15672 MEMB     56       POPC     H9Y      HAL2     0.900000E-01   1.00800           0
     15673 MEMB     56       POPC     C310     CTL2    -0.180000       12.0110           0
     15674 MEMB     56       POPC     H10X     HAL2     0.900000E-01   1.00800           0
     15675 MEMB     56       POPC     H10Y     HAL2     0.900000E-01   1.00800           0
     15676 MEMB     56       POPC     C311     CTL2    -0.180000       12.0110           0
     15677 MEMB     56       POPC     H11X     HAL2     0.900000E-01   1.00800           0
     15678 MEMB     56       POPC     H11Y     HAL2     0.900000E-01   1.00800           0
     15679 MEMB     56       POPC     C312     CTL2    -0.180000       12.0110           0
     15680 MEMB     56       POPC     H12X     HAL2     0.900000E-01   1.00800           0
     15681 MEMB     56       POPC     H12Y     HAL2     0.900000E-01   1.00800           0
     15682 MEMB     56       POPC     C313     CTL2    -0.180000       12.0110           0
     15683 MEMB     56       POPC     H13X     HAL2     0.900000E-01   1.00800           0
     15684 MEMB     56       POPC     H13Y     HAL2     0.900000E-01   1.00800           0
     15685 MEMB     56       POPC     C314     CTL2    -0.180000       12.0110           0
     15686 MEMB     56       POPC     H14X     HAL2     0.900000E-01   1.00800           0
     15687 MEMB     56       POPC     H14Y     HAL2     0.900000E-01   1.00800           0
     15688 MEMB     56       POPC     C315     CTL2    -0.180000       12.0110           0
     15689 MEMB     56       POPC     H15X     HAL2     0.900000E-01   1.00800           0
     15690 MEMB     56       POPC     H15Y     HAL2     0.900000E-01   1.00800           0
     15691 MEMB     56       POPC     C316     CTL3    -0.270000       12.0110           0
     15692 MEMB     56       POPC     H16X     HAL3     0.900000E-01   1.00800           0
     15693 MEMB     56       POPC     H16Y     HAL3     0.900000E-01   1.00800           0
     15694 MEMB     56       POPC     H16Z     HAL3     0.900000E-01   1.00800           0
     15695 MEMB     57       POPC     N        NTL     -0.600000       14.0070           0
     15696 MEMB     57       POPC     C12      CTL2    -0.100000       12.0110           0
     15697 MEMB     57       POPC     H12A     HL       0.250000       1.00800           0
     15698 MEMB     57       POPC     H12B     HL       0.250000       1.00800           0
     15699 MEMB     57       POPC     C13      CTL5    -0.350000       12.0110           0
     15700 MEMB     57       POPC     H13A     HL       0.250000       1.00800           0
     15701 MEMB     57       POPC     H13B     HL       0.250000       1.00800           0
     15702 MEMB     57       POPC     H13C     HL       0.250000       1.00800           0
     15703 MEMB     57       POPC     C14      CTL5    -0.350000       12.0110           0
     15704 MEMB     57       POPC     H14A     HL       0.250000       1.00800           0
     15705 MEMB     57       POPC     H14B     HL       0.250000       1.00800           0
     15706 MEMB     57       POPC     H14C     HL       0.250000       1.00800           0
     15707 MEMB     57       POPC     C15      CTL5    -0.350000       12.0110           0
     15708 MEMB     57       POPC     H15A     HL       0.250000       1.00800           0
     15709 MEMB     57       POPC     H15B     HL       0.250000       1.00800           0
     15710 MEMB     57       POPC     H15C     HL       0.250000       1.00800           0
     15711 MEMB     57       POPC     C11      CTL2    -0.800000E-01   12.0110           0
     15712 MEMB     57       POPC     H11A     HAL2     0.900000E-01   1.00800           0
     15713 MEMB     57       POPC     H11B     HAL2     0.900000E-01   1.00800           0
     15714 MEMB     57       POPC     P        PL       1.500000       30.9740           0
     15715 MEMB     57       POPC     O13      O2L     -0.780000       15.9994           0
     15716 MEMB     57       POPC     O14      O2L     -0.780000       15.9994           0
     15717 MEMB     57       POPC     O12      OSLP    -0.570000       15.9994           0
     15718 MEMB     57       POPC     O11      OSLP    -0.570000       15.9994           0
     15719 MEMB     57       POPC     C1       CTL2    -0.800000E-01   12.0110           0
     15720 MEMB     57       POPC     HA       HAL2     0.900000E-01   1.00800           0
     15721 MEMB     57       POPC     HB       HAL2     0.900000E-01   1.00800           0
     15722 MEMB     57       POPC     C2       CTL1     0.170000       12.0110           0
     15723 MEMB     57       POPC     HS       HAL1     0.900000E-01   1.00800           0
     15724 MEMB     57       POPC     O21      OSL     -0.490000       15.9994           0
     15725 MEMB     57       POPC     C21      CL       0.900000       12.0110           0
     15726 MEMB     57       POPC     O22      OBL     -0.630000       15.9994           0
     15727 MEMB     57       POPC     C22      CTL2    -0.220000       12.0110           0
     15728 MEMB     57       POPC     H2R      HAL2     0.900000E-01   1.00800           0
     15729 MEMB     57       POPC     H2S      HAL2     0.900000E-01   1.00800           0
     15730 MEMB     57       POPC     C3       CTL2     0.800000E-01   12.0110           0
     15731 MEMB     57       POPC     HX       HAL2     0.900000E-01   1.00800           0
     15732 MEMB     57       POPC     HY       HAL2     0.900000E-01   1.00800           0
     15733 MEMB     57       POPC     O31      OSL     -0.490000       15.9994           0
     15734 MEMB     57       POPC     C31      CL       0.900000       12.0110           0
     15735 MEMB     57       POPC     O32      OBL     -0.630000       15.9994           0
     15736 MEMB     57       POPC     C32      CTL2    -0.220000       12.0110           0
     15737 MEMB     57       POPC     H2X      HAL2     0.900000E-01   1.00800           0
     15738 MEMB     57       POPC     H2Y      HAL2     0.900000E-01   1.00800           0
     15739 MEMB     57       POPC     C23      CTL2    -0.180000       12.0110           0
     15740 MEMB     57       POPC     H3R      HAL2     0.900000E-01   1.00800           0
     15741 MEMB     57       POPC     H3S      HAL2     0.900000E-01   1.00800           0
     15742 MEMB     57       POPC     C24      CTL2    -0.180000       12.0110           0
     15743 MEMB     57       POPC     H4R      HAL2     0.900000E-01   1.00800           0
     15744 MEMB     57       POPC     H4S      HAL2     0.900000E-01   1.00800           0
     15745 MEMB     57       POPC     C25      CTL2    -0.180000       12.0110           0
     15746 MEMB     57       POPC     H5R      HAL2     0.900000E-01   1.00800           0
     15747 MEMB     57       POPC     H5S      HAL2     0.900000E-01   1.00800           0
     15748 MEMB     57       POPC     C26      CTL2    -0.180000       12.0110           0
     15749 MEMB     57       POPC     H6R      HAL2     0.900000E-01   1.00800           0
     15750 MEMB     57       POPC     H6S      HAL2     0.900000E-01   1.00800           0
     15751 MEMB     57       POPC     C27      CTL2    -0.180000       12.0110           0
     15752 MEMB     57       POPC     H7R      HAL2     0.900000E-01   1.00800           0
     15753 MEMB     57       POPC     H7S      HAL2     0.900000E-01   1.00800           0
     15754 MEMB     57       POPC     C28      CTL2    -0.180000       12.0110           0
     15755 MEMB     57       POPC     H8R      HAL2     0.900000E-01   1.00800           0
     15756 MEMB     57       POPC     H8S      HAL2     0.900000E-01   1.00800           0
     15757 MEMB     57       POPC     C29      CEL1    -0.150000       12.0110           0
     15758 MEMB     57       POPC     H91      HEL1     0.150000       1.00800           0
     15759 MEMB     57       POPC     C210     CEL1    -0.150000       12.0110           0
     15760 MEMB     57       POPC     H101     HEL1     0.150000       1.00800           0
     15761 MEMB     57       POPC     C211     CTL2    -0.180000       12.0110           0
     15762 MEMB     57       POPC     H11R     HAL2     0.900000E-01   1.00800           0
     15763 MEMB     57       POPC     H11S     HAL2     0.900000E-01   1.00800           0
     15764 MEMB     57       POPC     C212     CTL2    -0.180000       12.0110           0
     15765 MEMB     57       POPC     H12R     HAL2     0.900000E-01   1.00800           0
     15766 MEMB     57       POPC     H12S     HAL2     0.900000E-01   1.00800           0
     15767 MEMB     57       POPC     C213     CTL2    -0.180000       12.0110           0
     15768 MEMB     57       POPC     H13R     HAL2     0.900000E-01   1.00800           0
     15769 MEMB     57       POPC     H13S     HAL2     0.900000E-01   1.00800           0
     15770 MEMB     57       POPC     C214     CTL2    -0.180000       12.0110           0
     15771 MEMB     57       POPC     H14R     HAL2     0.900000E-01   1.00800           0
     15772 MEMB     57       POPC     H14S     HAL2     0.900000E-01   1.00800           0
     15773 MEMB     57       POPC     C215     CTL2    -0.180000       12.0110           0
     15774 MEMB     57       POPC     H15R     HAL2     0.900000E-01   1.00800           0
     15775 MEMB     57       POPC     H15S     HAL2     0.900000E-01   1.00800           0
     15776 MEMB     57       POPC     C216     CTL2    -0.180000       12.0110           0
     15777 MEMB     57       POPC     H16R     HAL2     0.900000E-01   1.00800           0
     15778 MEMB     57       POPC     H16S     HAL2     0.900000E-01   1.00800           0
     15779 MEMB     57       POPC     C217     CTL2    -0.180000       12.0110           0
     15780 MEMB     57       POPC     H17R     HAL2     0.900000E-01   1.00800           0
     15781 MEMB     57       POPC     H17S     HAL2     0.900000E-01   1.00800           0
     15782 MEMB     57       POPC     C218     CTL3    -0.270000       12.0110           0
     15783 MEMB     57       POPC     H18R     HAL3     0.900000E-01   1.00800           0
     15784 MEMB     57       POPC     H18S     HAL3     0.900000E-01   1.00800           0
     15785 MEMB     57       POPC     H18T     HAL3     0.900000E-01   1.00800           0
     15786 MEMB     57       POPC     C33      CTL2    -0.180000       12.0110           0
     15787 MEMB     57       POPC     H3X      HAL2     0.900000E-01   1.00800           0
     15788 MEMB     57       POPC     H3Y      HAL2     0.900000E-01   1.00800           0
     15789 MEMB     57       POPC     C34      CTL2    -0.180000       12.0110           0
     15790 MEMB     57       POPC     H4X      HAL2     0.900000E-01   1.00800           0
     15791 MEMB     57       POPC     H4Y      HAL2     0.900000E-01   1.00800           0
     15792 MEMB     57       POPC     C35      CTL2    -0.180000       12.0110           0
     15793 MEMB     57       POPC     H5X      HAL2     0.900000E-01   1.00800           0
     15794 MEMB     57       POPC     H5Y      HAL2     0.900000E-01   1.00800           0
     15795 MEMB     57       POPC     C36      CTL2    -0.180000       12.0110           0
     15796 MEMB     57       POPC     H6X      HAL2     0.900000E-01   1.00800           0
     15797 MEMB     57       POPC     H6Y      HAL2     0.900000E-01   1.00800           0
     15798 MEMB     57       POPC     C37      CTL2    -0.180000       12.0110           0
     15799 MEMB     57       POPC     H7X      HAL2     0.900000E-01   1.00800           0
     15800 MEMB     57       POPC     H7Y      HAL2     0.900000E-01   1.00800           0
     15801 MEMB     57       POPC     C38      CTL2    -0.180000       12.0110           0
     15802 MEMB     57       POPC     H8X      HAL2     0.900000E-01   1.00800           0
     15803 MEMB     57       POPC     H8Y      HAL2     0.900000E-01   1.00800           0
     15804 MEMB     57       POPC     C39      CTL2    -0.180000       12.0110           0
     15805 MEMB     57       POPC     H9X      HAL2     0.900000E-01   1.00800           0
     15806 MEMB     57       POPC     H9Y      HAL2     0.900000E-01   1.00800           0
     15807 MEMB     57       POPC     C310     CTL2    -0.180000       12.0110           0
     15808 MEMB     57       POPC     H10X     HAL2     0.900000E-01   1.00800           0
     15809 MEMB     57       POPC     H10Y     HAL2     0.900000E-01   1.00800           0
     15810 MEMB     57       POPC     C311     CTL2    -0.180000       12.0110           0
     15811 MEMB     57       POPC     H11X     HAL2     0.900000E-01   1.00800           0
     15812 MEMB     57       POPC     H11Y     HAL2     0.900000E-01   1.00800           0
     15813 MEMB     57       POPC     C312     CTL2    -0.180000       12.0110           0
     15814 MEMB     57       POPC     H12X     HAL2     0.900000E-01   1.00800           0
     15815 MEMB     57       POPC     H12Y     HAL2     0.900000E-01   1.00800           0
     15816 MEMB     57       POPC     C313     CTL2    -0.180000       12.0110           0
     15817 MEMB     57       POPC     H13X     HAL2     0.900000E-01   1.00800           0
     15818 MEMB     57       POPC     H13Y     HAL2     0.900000E-01   1.00800           0
     15819 MEMB     57       POPC     C314     CTL2    -0.180000       12.0110           0
     15820 MEMB     57       POPC     H14X     HAL2     0.900000E-01   1.00800           0
     15821 MEMB     57       POPC     H14Y     HAL2     0.900000E-01   1.00800           0
     15822 MEMB     57       POPC     C315     CTL2    -0.180000       12.0110           0
     15823 MEMB     57       POPC     H15X     HAL2     0.900000E-01   1.00800           0
     15824 MEMB     57       POPC     H15Y     HAL2     0.900000E-01   1.00800           0
     15825 MEMB     57       POPC     C316     CTL3    -0.270000       12.0110           0
     15826 MEMB     57       POPC     H16X     HAL3     0.900000E-01   1.00800           0
     15827 MEMB     57       POPC     H16Y     HAL3     0.900000E-01   1.00800           0
     15828 MEMB     57       POPC     H16Z     HAL3     0.900000E-01   1.00800           0
     15829 MEMB     58       POPC     N        NTL     -0.600000       14.0070           0
     15830 MEMB     58       POPC     C12      CTL2    -0.100000       12.0110           0
     15831 MEMB     58       POPC     H12A     HL       0.250000       1.00800           0
     15832 MEMB     58       POPC     H12B     HL       0.250000       1.00800           0
     15833 MEMB     58       POPC     C13      CTL5    -0.350000       12.0110           0
     15834 MEMB     58       POPC     H13A     HL       0.250000       1.00800           0
     15835 MEMB     58       POPC     H13B     HL       0.250000       1.00800           0
     15836 MEMB     58       POPC     H13C     HL       0.250000       1.00800           0
     15837 MEMB     58       POPC     C14      CTL5    -0.350000       12.0110           0
     15838 MEMB     58       POPC     H14A     HL       0.250000       1.00800           0
     15839 MEMB     58       POPC     H14B     HL       0.250000       1.00800           0
     15840 MEMB     58       POPC     H14C     HL       0.250000       1.00800           0
     15841 MEMB     58       POPC     C15      CTL5    -0.350000       12.0110           0
     15842 MEMB     58       POPC     H15A     HL       0.250000       1.00800           0
     15843 MEMB     58       POPC     H15B     HL       0.250000       1.00800           0
     15844 MEMB     58       POPC     H15C     HL       0.250000       1.00800           0
     15845 MEMB     58       POPC     C11      CTL2    -0.800000E-01   12.0110           0
     15846 MEMB     58       POPC     H11A     HAL2     0.900000E-01   1.00800           0
     15847 MEMB     58       POPC     H11B     HAL2     0.900000E-01   1.00800           0
     15848 MEMB     58       POPC     P        PL       1.500000       30.9740           0
     15849 MEMB     58       POPC     O13      O2L     -0.780000       15.9994           0
     15850 MEMB     58       POPC     O14      O2L     -0.780000       15.9994           0
     15851 MEMB     58       POPC     O12      OSLP    -0.570000       15.9994           0
     15852 MEMB     58       POPC     O11      OSLP    -0.570000       15.9994           0
     15853 MEMB     58       POPC     C1       CTL2    -0.800000E-01   12.0110           0
     15854 MEMB     58       POPC     HA       HAL2     0.900000E-01   1.00800           0
     15855 MEMB     58       POPC     HB       HAL2     0.900000E-01   1.00800           0
     15856 MEMB     58       POPC     C2       CTL1     0.170000       12.0110           0
     15857 MEMB     58       POPC     HS       HAL1     0.900000E-01   1.00800           0
     15858 MEMB     58       POPC     O21      OSL     -0.490000       15.9994           0
     15859 MEMB     58       POPC     C21      CL       0.900000       12.0110           0
     15860 MEMB     58       POPC     O22      OBL     -0.630000       15.9994           0
     15861 MEMB     58       POPC     C22      CTL2    -0.220000       12.0110           0
     15862 MEMB     58       POPC     H2R      HAL2     0.900000E-01   1.00800           0
     15863 MEMB     58       POPC     H2S      HAL2     0.900000E-01   1.00800           0
     15864 MEMB     58       POPC     C3       CTL2     0.800000E-01   12.0110           0
     15865 MEMB     58       POPC     HX       HAL2     0.900000E-01   1.00800           0
     15866 MEMB     58       POPC     HY       HAL2     0.900000E-01   1.00800           0
     15867 MEMB     58       POPC     O31      OSL     -0.490000       15.9994           0
     15868 MEMB     58       POPC     C31      CL       0.900000       12.0110           0
     15869 MEMB     58       POPC     O32      OBL     -0.630000       15.9994           0
     15870 MEMB     58       POPC     C32      CTL2    -0.220000       12.0110           0
     15871 MEMB     58       POPC     H2X      HAL2     0.900000E-01   1.00800           0
     15872 MEMB     58       POPC     H2Y      HAL2     0.900000E-01   1.00800           0
     15873 MEMB     58       POPC     C23      CTL2    -0.180000       12.0110           0
     15874 MEMB     58       POPC     H3R      HAL2     0.900000E-01   1.00800           0
     15875 MEMB     58       POPC     H3S      HAL2     0.900000E-01   1.00800           0
     15876 MEMB     58       POPC     C24      CTL2    -0.180000       12.0110           0
     15877 MEMB     58       POPC     H4R      HAL2     0.900000E-01   1.00800           0
     15878 MEMB     58       POPC     H4S      HAL2     0.900000E-01   1.00800           0
     15879 MEMB     58       POPC     C25      CTL2    -0.180000       12.0110           0
     15880 MEMB     58       POPC     H5R      HAL2     0.900000E-01   1.00800           0
     15881 MEMB     58       POPC     H5S      HAL2     0.900000E-01   1.00800           0
     15882 MEMB     58       POPC     C26      CTL2    -0.180000       12.0110           0
     15883 MEMB     58       POPC     H6R      HAL2     0.900000E-01   1.00800           0
     15884 MEMB     58       POPC     H6S      HAL2     0.900000E-01   1.00800           0
     15885 MEMB     58       POPC     C27      CTL2    -0.180000       12.0110           0
     15886 MEMB     58       POPC     H7R      HAL2     0.900000E-01   1.00800           0
     15887 MEMB     58       POPC     H7S      HAL2     0.900000E-01   1.00800           0
     15888 MEMB     58       POPC     C28      CTL2    -0.180000       12.0110           0
     15889 MEMB     58       POPC     H8R      HAL2     0.900000E-01   1.00800           0
     15890 MEMB     58       POPC     H8S      HAL2     0.900000E-01   1.00800           0
     15891 MEMB     58       POPC     C29      CEL1    -0.150000       12.0110           0
     15892 MEMB     58       POPC     H91      HEL1     0.150000       1.00800           0
     15893 MEMB     58       POPC     C210     CEL1    -0.150000       12.0110           0
     15894 MEMB     58       POPC     H101     HEL1     0.150000       1.00800           0
     15895 MEMB     58       POPC     C211     CTL2    -0.180000       12.0110           0
     15896 MEMB     58       POPC     H11R     HAL2     0.900000E-01   1.00800           0
     15897 MEMB     58       POPC     H11S     HAL2     0.900000E-01   1.00800           0
     15898 MEMB     58       POPC     C212     CTL2    -0.180000       12.0110           0
     15899 MEMB     58       POPC     H12R     HAL2     0.900000E-01   1.00800           0
     15900 MEMB     58       POPC     H12S     HAL2     0.900000E-01   1.00800           0
     15901 MEMB     58       POPC     C213     CTL2    -0.180000       12.0110           0
     15902 MEMB     58       POPC     H13R     HAL2     0.900000E-01   1.00800           0
     15903 MEMB     58       POPC     H13S     HAL2     0.900000E-01   1.00800           0
     15904 MEMB     58       POPC     C214     CTL2    -0.180000       12.0110           0
     15905 MEMB     58       POPC     H14R     HAL2     0.900000E-01   1.00800           0
     15906 MEMB     58       POPC     H14S     HAL2     0.900000E-01   1.00800           0
     15907 MEMB     58       POPC     C215     CTL2    -0.180000       12.0110           0
     15908 MEMB     58       POPC     H15R     HAL2     0.900000E-01   1.00800           0
     15909 MEMB     58       POPC     H15S     HAL2     0.900000E-01   1.00800           0
     15910 MEMB     58       POPC     C216     CTL2    -0.180000       12.0110           0
     15911 MEMB     58       POPC     H16R     HAL2     0.900000E-01   1.00800           0
     15912 MEMB     58       POPC     H16S     HAL2     0.900000E-01   1.00800           0
     15913 MEMB     58       POPC     C217     CTL2    -0.180000       12.0110           0
     15914 MEMB     58       POPC     H17R     HAL2     0.900000E-01   1.00800           0
     15915 MEMB     58       POPC     H17S     HAL2     0.900000E-01   1.00800           0
     15916 MEMB     58       POPC     C218     CTL3    -0.270000       12.0110           0
     15917 MEMB     58       POPC     H18R     HAL3     0.900000E-01   1.00800           0
     15918 MEMB     58       POPC     H18S     HAL3     0.900000E-01   1.00800           0
     15919 MEMB     58       POPC     H18T     HAL3     0.900000E-01   1.00800           0
     15920 MEMB     58       POPC     C33      CTL2    -0.180000       12.0110           0
     15921 MEMB     58       POPC     H3X      HAL2     0.900000E-01   1.00800           0
     15922 MEMB     58       POPC     H3Y      HAL2     0.900000E-01   1.00800           0
     15923 MEMB     58       POPC     C34      CTL2    -0.180000       12.0110           0
     15924 MEMB     58       POPC     H4X      HAL2     0.900000E-01   1.00800           0
     15925 MEMB     58       POPC     H4Y      HAL2     0.900000E-01   1.00800           0
     15926 MEMB     58       POPC     C35      CTL2    -0.180000       12.0110           0
     15927 MEMB     58       POPC     H5X      HAL2     0.900000E-01   1.00800           0
     15928 MEMB     58       POPC     H5Y      HAL2     0.900000E-01   1.00800           0
     15929 MEMB     58       POPC     C36      CTL2    -0.180000       12.0110           0
     15930 MEMB     58       POPC     H6X      HAL2     0.900000E-01   1.00800           0
     15931 MEMB     58       POPC     H6Y      HAL2     0.900000E-01   1.00800           0
     15932 MEMB     58       POPC     C37      CTL2    -0.180000       12.0110           0
     15933 MEMB     58       POPC     H7X      HAL2     0.900000E-01   1.00800           0
     15934 MEMB     58       POPC     H7Y      HAL2     0.900000E-01   1.00800           0
     15935 MEMB     58       POPC     C38      CTL2    -0.180000       12.0110           0
     15936 MEMB     58       POPC     H8X      HAL2     0.900000E-01   1.00800           0
     15937 MEMB     58       POPC     H8Y      HAL2     0.900000E-01   1.00800           0
     15938 MEMB     58       POPC     C39      CTL2    -0.180000       12.0110           0
     15939 MEMB     58       POPC     H9X      HAL2     0.900000E-01   1.00800           0
     15940 MEMB     58       POPC     H9Y      HAL2     0.900000E-01   1.00800           0
     15941 MEMB     58       POPC     C310     CTL2    -0.180000       12.0110           0
     15942 MEMB     58       POPC     H10X     HAL2     0.900000E-01   1.00800           0
     15943 MEMB     58       POPC     H10Y     HAL2     0.900000E-01   1.00800           0
     15944 MEMB     58       POPC     C311     CTL2    -0.180000       12.0110           0
     15945 MEMB     58       POPC     H11X     HAL2     0.900000E-01   1.00800           0
     15946 MEMB     58       POPC     H11Y     HAL2     0.900000E-01   1.00800           0
     15947 MEMB     58       POPC     C312     CTL2    -0.180000       12.0110           0
     15948 MEMB     58       POPC     H12X     HAL2     0.900000E-01   1.00800           0
     15949 MEMB     58       POPC     H12Y     HAL2     0.900000E-01   1.00800           0
     15950 MEMB     58       POPC     C313     CTL2    -0.180000       12.0110           0
     15951 MEMB     58       POPC     H13X     HAL2     0.900000E-01   1.00800           0
     15952 MEMB     58       POPC     H13Y     HAL2     0.900000E-01   1.00800           0
     15953 MEMB     58       POPC     C314     CTL2    -0.180000       12.0110           0
     15954 MEMB     58       POPC     H14X     HAL2     0.900000E-01   1.00800           0
     15955 MEMB     58       POPC     H14Y     HAL2     0.900000E-01   1.00800           0
     15956 MEMB     58       POPC     C315     CTL2    -0.180000       12.0110           0
     15957 MEMB     58       POPC     H15X     HAL2     0.900000E-01   1.00800           0
     15958 MEMB     58       POPC     H15Y     HAL2     0.900000E-01   1.00800           0
     15959 MEMB     58       POPC     C316     CTL3    -0.270000       12.0110           0
     15960 MEMB     58       POPC     H16X     HAL3     0.900000E-01   1.00800           0
     15961 MEMB     58       POPC     H16Y     HAL3     0.900000E-01   1.00800           0
     15962 MEMB     58       POPC     H16Z     HAL3     0.900000E-01   1.00800           0
     15963 MEMB     66       POPC     N        NTL     -0.600000       14.0070           0
     15964 MEMB     66       POPC     C12      CTL2    -0.100000       12.0110           0
     15965 MEMB     66       POPC     H12A     HL       0.250000       1.00800           0
     15966 MEMB     66       POPC     H12B     HL       0.250000       1.00800           0
     15967 MEMB     66       POPC     C13      CTL5    -0.350000       12.0110           0
     15968 MEMB     66       POPC     H13A     HL       0.250000       1.00800           0
     15969 MEMB     66       POPC     H13B     HL       0.250000       1.00800           0
     15970 MEMB     66       POPC     H13C     HL       0.250000       1.00800           0
     15971 MEMB     66       POPC     C14      CTL5    -0.350000       12.0110           0
     15972 MEMB     66       POPC     H14A     HL       0.250000       1.00800           0
     15973 MEMB     66       POPC     H14B     HL       0.250000       1.00800           0
     15974 MEMB     66       POPC     H14C     HL       0.250000       1.00800           0
     15975 MEMB     66       POPC     C15      CTL5    -0.350000       12.0110           0
     15976 MEMB     66       POPC     H15A     HL       0.250000       1.00800           0
     15977 MEMB     66       POPC     H15B     HL       0.250000       1.00800           0
     15978 MEMB     66       POPC     H15C     HL       0.250000       1.00800           0
     15979 MEMB     66       POPC     C11      CTL2    -0.800000E-01   12.0110           0
     15980 MEMB     66       POPC     H11A     HAL2     0.900000E-01   1.00800           0
     15981 MEMB     66       POPC     H11B     HAL2     0.900000E-01   1.00800           0
     15982 MEMB     66       POPC     P        PL       1.500000       30.9740           0
     15983 MEMB     66       POPC     O13      O2L     -0.780000       15.9994           0
     15984 MEMB     66       POPC     O14      O2L     -0.780000       15.9994           0
     15985 MEMB     66       POPC     O12      OSLP    -0.570000       15.9994           0
     15986 MEMB     66       POPC     O11      OSLP    -0.570000       15.9994           0
     15987 MEMB     66       POPC     C1       CTL2    -0.800000E-01   12.0110           0
     15988 MEMB     66       POPC     HA       HAL2     0.900000E-01   1.00800           0
     15989 MEMB     66       POPC     HB       HAL2     0.900000E-01   1.00800           0
     15990 MEMB     66       POPC     C2       CTL1     0.170000       12.0110           0
     15991 MEMB     66       POPC     HS       HAL1     0.900000E-01   1.00800           0
     15992 MEMB     66       POPC     O21      OSL     -0.490000       15.9994           0
     15993 MEMB     66       POPC     C21      CL       0.900000       12.0110           0
     15994 MEMB     66       POPC     O22      OBL     -0.630000       15.9994           0
     15995 MEMB     66       POPC     C22      CTL2    -0.220000       12.0110           0
     15996 MEMB     66       POPC     H2R      HAL2     0.900000E-01   1.00800           0
     15997 MEMB     66       POPC     H2S      HAL2     0.900000E-01   1.00800           0
     15998 MEMB     66       POPC     C3       CTL2     0.800000E-01   12.0110           0
     15999 MEMB     66       POPC     HX       HAL2     0.900000E-01   1.00800           0
     16000 MEMB     66       POPC     HY       HAL2     0.900000E-01   1.00800           0
     16001 MEMB     66       POPC     O31      OSL     -0.490000       15.9994           0
     16002 MEMB     66       POPC     C31      CL       0.900000       12.0110           0
     16003 MEMB     66       POPC     O32      OBL     -0.630000       15.9994           0
     16004 MEMB     66       POPC     C32      CTL2    -0.220000       12.0110           0
     16005 MEMB     66       POPC     H2X      HAL2     0.900000E-01   1.00800           0
     16006 MEMB     66       POPC     H2Y      HAL2     0.900000E-01   1.00800           0
     16007 MEMB     66       POPC     C23      CTL2    -0.180000       12.0110           0
     16008 MEMB     66       POPC     H3R      HAL2     0.900000E-01   1.00800           0
     16009 MEMB     66       POPC     H3S      HAL2     0.900000E-01   1.00800           0
     16010 MEMB     66       POPC     C24      CTL2    -0.180000       12.0110           0
     16011 MEMB     66       POPC     H4R      HAL2     0.900000E-01   1.00800           0
     16012 MEMB     66       POPC     H4S      HAL2     0.900000E-01   1.00800           0
     16013 MEMB     66       POPC     C25      CTL2    -0.180000       12.0110           0
     16014 MEMB     66       POPC     H5R      HAL2     0.900000E-01   1.00800           0
     16015 MEMB     66       POPC     H5S      HAL2     0.900000E-01   1.00800           0
     16016 MEMB     66       POPC     C26      CTL2    -0.180000       12.0110           0
     16017 MEMB     66       POPC     H6R      HAL2     0.900000E-01   1.00800           0
     16018 MEMB     66       POPC     H6S      HAL2     0.900000E-01   1.00800           0
     16019 MEMB     66       POPC     C27      CTL2    -0.180000       12.0110           0
     16020 MEMB     66       POPC     H7R      HAL2     0.900000E-01   1.00800           0
     16021 MEMB     66       POPC     H7S      HAL2     0.900000E-01   1.00800           0
     16022 MEMB     66       POPC     C28      CTL2    -0.180000       12.0110           0
     16023 MEMB     66       POPC     H8R      HAL2     0.900000E-01   1.00800           0
     16024 MEMB     66       POPC     H8S      HAL2     0.900000E-01   1.00800           0
     16025 MEMB     66       POPC     C29      CEL1    -0.150000       12.0110           0
     16026 MEMB     66       POPC     H91      HEL1     0.150000       1.00800           0
     16027 MEMB     66       POPC     C210     CEL1    -0.150000       12.0110           0
     16028 MEMB     66       POPC     H101     HEL1     0.150000       1.00800           0
     16029 MEMB     66       POPC     C211     CTL2    -0.180000       12.0110           0
     16030 MEMB     66       POPC     H11R     HAL2     0.900000E-01   1.00800           0
     16031 MEMB     66       POPC     H11S     HAL2     0.900000E-01   1.00800           0
     16032 MEMB     66       POPC     C212     CTL2    -0.180000       12.0110           0
     16033 MEMB     66       POPC     H12R     HAL2     0.900000E-01   1.00800           0
     16034 MEMB     66       POPC     H12S     HAL2     0.900000E-01   1.00800           0
     16035 MEMB     66       POPC     C213     CTL2    -0.180000       12.0110           0
     16036 MEMB     66       POPC     H13R     HAL2     0.900000E-01   1.00800           0
     16037 MEMB     66       POPC     H13S     HAL2     0.900000E-01   1.00800           0
     16038 MEMB     66       POPC     C214     CTL2    -0.180000       12.0110           0
     16039 MEMB     66       POPC     H14R     HAL2     0.900000E-01   1.00800           0
     16040 MEMB     66       POPC     H14S     HAL2     0.900000E-01   1.00800           0
     16041 MEMB     66       POPC     C215     CTL2    -0.180000       12.0110           0
     16042 MEMB     66       POPC     H15R     HAL2     0.900000E-01   1.00800           0
     16043 MEMB     66       POPC     H15S     HAL2     0.900000E-01   1.00800           0
     16044 MEMB     66       POPC     C216     CTL2    -0.180000       12.0110           0
     16045 MEMB     66       POPC     H16R     HAL2     0.900000E-01   1.00800           0
     16046 MEMB     66       POPC     H16S     HAL2     0.900000E-01   1.00800           0
     16047 MEMB     66       POPC     C217     CTL2    -0.180000       12.0110           0
     16048 MEMB     66       POPC     H17R     HAL2     0.900000E-01   1.00800           0
     16049 MEMB     66       POPC     H17S     HAL2     0.900000E-01   1.00800           0
     16050 MEMB     66       POPC     C218     CTL3    -0.270000       12.0110           0
     16051 MEMB     66       POPC     H18R     HAL3     0.900000E-01   1.00800           0
     16052 MEMB     66       POPC     H18S     HAL3     0.900000E-01   1.00800           0
     16053 MEMB     66       POPC     H18T     HAL3     0.900000E-01   1.00800           0
     16054 MEMB     66       POPC     C33      CTL2    -0.180000       12.0110           0
     16055 MEMB     66       POPC     H3X      HAL2     0.900000E-01   1.00800           0
     16056 MEMB     66       POPC     H3Y      HAL2     0.900000E-01   1.00800           0
     16057 MEMB     66       POPC     C34      CTL2    -0.180000       12.0110           0
     16058 MEMB     66       POPC     H4X      HAL2     0.900000E-01   1.00800           0
     16059 MEMB     66       POPC     H4Y      HAL2     0.900000E-01   1.00800           0
     16060 MEMB     66       POPC     C35      CTL2    -0.180000       12.0110           0
     16061 MEMB     66       POPC     H5X      HAL2     0.900000E-01   1.00800           0
     16062 MEMB     66       POPC     H5Y      HAL2     0.900000E-01   1.00800           0
     16063 MEMB     66       POPC     C36      CTL2    -0.180000       12.0110           0
     16064 MEMB     66       POPC     H6X      HAL2     0.900000E-01   1.00800           0
     16065 MEMB     66       POPC     H6Y      HAL2     0.900000E-01   1.00800           0
     16066 MEMB     66       POPC     C37      CTL2    -0.180000       12.0110           0
     16067 MEMB     66       POPC     H7X      HAL2     0.900000E-01   1.00800           0
     16068 MEMB     66       POPC     H7Y      HAL2     0.900000E-01   1.00800           0
     16069 MEMB     66       POPC     C38      CTL2    -0.180000       12.0110           0
     16070 MEMB     66       POPC     H8X      HAL2     0.900000E-01   1.00800           0
     16071 MEMB     66       POPC     H8Y      HAL2     0.900000E-01   1.00800           0
     16072 MEMB     66       POPC     C39      CTL2    -0.180000       12.0110           0
     16073 MEMB     66       POPC     H9X      HAL2     0.900000E-01   1.00800           0
     16074 MEMB     66       POPC     H9Y      HAL2     0.900000E-01   1.00800           0
     16075 MEMB     66       POPC     C310     CTL2    -0.180000       12.0110           0
     16076 MEMB     66       POPC     H10X     HAL2     0.900000E-01   1.00800           0
     16077 MEMB     66       POPC     H10Y     HAL2     0.900000E-01   1.00800           0
     16078 MEMB     66       POPC     C311     CTL2    -0.180000       12.0110           0
     16079 MEMB     66       POPC     H11X     HAL2     0.900000E-01   1.00800           0
     16080 MEMB     66       POPC     H11Y     HAL2     0.900000E-01   1.00800           0
     16081 MEMB     66       POPC     C312     CTL2    -0.180000       12.0110           0
     16082 MEMB     66       POPC     H12X     HAL2     0.900000E-01   1.00800           0
     16083 MEMB     66       POPC     H12Y     HAL2     0.900000E-01   1.00800           0
     16084 MEMB     66       POPC     C313     CTL2    -0.180000       12.0110           0
     16085 MEMB     66       POPC     H13X     HAL2     0.900000E-01   1.00800           0
     16086 MEMB     66       POPC     H13Y     HAL2     0.900000E-01   1.00800           0
     16087 MEMB     66       POPC     C314     CTL2    -0.180000       12.0110           0
     16088 MEMB     66       POPC     H14X     HAL2     0.900000E-01   1.00800           0
     16089 MEMB     66       POPC     H14Y     HAL2     0.900000E-01   1.00800           0
     16090 MEMB     66       POPC     C315     CTL2    -0.180000       12.0110           0
     16091 MEMB     66       POPC     H15X     HAL2     0.900000E-01   1.00800           0
     16092 MEMB     66       POPC     H15Y     HAL2     0.900000E-01   1.00800           0
     16093 MEMB     66       POPC     C316     CTL3    -0.270000       12.0110           0
     16094 MEMB     66       POPC     H16X     HAL3     0.900000E-01   1.00800           0
     16095 MEMB     66       POPC     H16Y     HAL3     0.900000E-01   1.00800           0
     16096 MEMB     66       POPC     H16Z     HAL3     0.900000E-01   1.00800           0
     16097 MEMB     69       POPC     N        NTL     -0.600000       14.0070           0
     16098 MEMB     69       POPC     C12      CTL2    -0.100000       12.0110           0
     16099 MEMB     69       POPC     H12A     HL       0.250000       1.00800           0
     16100 MEMB     69       POPC     H12B     HL       0.250000       1.00800           0
     16101 MEMB     69       POPC     C13      CTL5    -0.350000       12.0110           0
     16102 MEMB     69       POPC     H13A     HL       0.250000       1.00800           0
     16103 MEMB     69       POPC     H13B     HL       0.250000       1.00800           0
     16104 MEMB     69       POPC     H13C     HL       0.250000       1.00800           0
     16105 MEMB     69       POPC     C14      CTL5    -0.350000       12.0110           0
     16106 MEMB     69       POPC     H14A     HL       0.250000       1.00800           0
     16107 MEMB     69       POPC     H14B     HL       0.250000       1.00800           0
     16108 MEMB     69       POPC     H14C     HL       0.250000       1.00800           0
     16109 MEMB     69       POPC     C15      CTL5    -0.350000       12.0110           0
     16110 MEMB     69       POPC     H15A     HL       0.250000       1.00800           0
     16111 MEMB     69       POPC     H15B     HL       0.250000       1.00800           0
     16112 MEMB     69       POPC     H15C     HL       0.250000       1.00800           0
     16113 MEMB     69       POPC     C11      CTL2    -0.800000E-01   12.0110           0
     16114 MEMB     69       POPC     H11A     HAL2     0.900000E-01   1.00800           0
     16115 MEMB     69       POPC     H11B     HAL2     0.900000E-01   1.00800           0
     16116 MEMB     69       POPC     P        PL       1.500000       30.9740           0
     16117 MEMB     69       POPC     O13      O2L     -0.780000       15.9994           0
     16118 MEMB     69       POPC     O14      O2L     -0.780000       15.9994           0
     16119 MEMB     69       POPC     O12      OSLP    -0.570000       15.9994           0
     16120 MEMB     69       POPC     O11      OSLP    -0.570000       15.9994           0
     16121 MEMB     69       POPC     C1       CTL2    -0.800000E-01   12.0110           0
     16122 MEMB     69       POPC     HA       HAL2     0.900000E-01   1.00800           0
     16123 MEMB     69       POPC     HB       HAL2     0.900000E-01   1.00800           0
     16124 MEMB     69       POPC     C2       CTL1     0.170000       12.0110           0
     16125 MEMB     69       POPC     HS       HAL1     0.900000E-01   1.00800           0
     16126 MEMB     69       POPC     O21      OSL     -0.490000       15.9994           0
     16127 MEMB     69       POPC     C21      CL       0.900000       12.0110           0
     16128 MEMB     69       POPC     O22      OBL     -0.630000       15.9994           0
     16129 MEMB     69       POPC     C22      CTL2    -0.220000       12.0110           0
     16130 MEMB     69       POPC     H2R      HAL2     0.900000E-01   1.00800           0
     16131 MEMB     69       POPC     H2S      HAL2     0.900000E-01   1.00800           0
     16132 MEMB     69       POPC     C3       CTL2     0.800000E-01   12.0110           0
     16133 MEMB     69       POPC     HX       HAL2     0.900000E-01   1.00800           0
     16134 MEMB     69       POPC     HY       HAL2     0.900000E-01   1.00800           0
     16135 MEMB     69       POPC     O31      OSL     -0.490000       15.9994           0
     16136 MEMB     69       POPC     C31      CL       0.900000       12.0110           0
     16137 MEMB     69       POPC     O32      OBL     -0.630000       15.9994           0
     16138 MEMB     69       POPC     C32      CTL2    -0.220000       12.0110           0
     16139 MEMB     69       POPC     H2X      HAL2     0.900000E-01   1.00800           0
     16140 MEMB     69       POPC     H2Y      HAL2     0.900000E-01   1.00800           0
     16141 MEMB     69       POPC     C23      CTL2    -0.180000       12.0110           0
     16142 MEMB     69       POPC     H3R      HAL2     0.900000E-01   1.00800           0
     16143 MEMB     69       POPC     H3S      HAL2     0.900000E-01   1.00800           0
     16144 MEMB     69       POPC     C24      CTL2    -0.180000       12.0110           0
     16145 MEMB     69       POPC     H4R      HAL2     0.900000E-01   1.00800           0
     16146 MEMB     69       POPC     H4S      HAL2     0.900000E-01   1.00800           0
     16147 MEMB     69       POPC     C25      CTL2    -0.180000       12.0110           0
     16148 MEMB     69       POPC     H5R      HAL2     0.900000E-01   1.00800           0
     16149 MEMB     69       POPC     H5S      HAL2     0.900000E-01   1.00800           0
     16150 MEMB     69       POPC     C26      CTL2    -0.180000       12.0110           0
     16151 MEMB     69       POPC     H6R      HAL2     0.900000E-01   1.00800           0
     16152 MEMB     69       POPC     H6S      HAL2     0.900000E-01   1.00800           0
     16153 MEMB     69       POPC     C27      CTL2    -0.180000       12.0110           0
     16154 MEMB     69       POPC     H7R      HAL2     0.900000E-01   1.00800           0
     16155 MEMB     69       POPC     H7S      HAL2     0.900000E-01   1.00800           0
     16156 MEMB     69       POPC     C28      CTL2    -0.180000       12.0110           0
     16157 MEMB     69       POPC     H8R      HAL2     0.900000E-01   1.00800           0
     16158 MEMB     69       POPC     H8S      HAL2     0.900000E-01   1.00800           0
     16159 MEMB     69       POPC     C29      CEL1    -0.150000       12.0110           0
     16160 MEMB     69       POPC     H91      HEL1     0.150000       1.00800           0
     16161 MEMB     69       POPC     C210     CEL1    -0.150000       12.0110           0
     16162 MEMB     69       POPC     H101     HEL1     0.150000       1.00800           0
     16163 MEMB     69       POPC     C211     CTL2    -0.180000       12.0110           0
     16164 MEMB     69       POPC     H11R     HAL2     0.900000E-01   1.00800           0
     16165 MEMB     69       POPC     H11S     HAL2     0.900000E-01   1.00800           0
     16166 MEMB     69       POPC     C212     CTL2    -0.180000       12.0110           0
     16167 MEMB     69       POPC     H12R     HAL2     0.900000E-01   1.00800           0
     16168 MEMB     69       POPC     H12S     HAL2     0.900000E-01   1.00800           0
     16169 MEMB     69       POPC     C213     CTL2    -0.180000       12.0110           0
     16170 MEMB     69       POPC     H13R     HAL2     0.900000E-01   1.00800           0
     16171 MEMB     69       POPC     H13S     HAL2     0.900000E-01   1.00800           0
     16172 MEMB     69       POPC     C214     CTL2    -0.180000       12.0110           0
     16173 MEMB     69       POPC     H14R     HAL2     0.900000E-01   1.00800           0
     16174 MEMB     69       POPC     H14S     HAL2     0.900000E-01   1.00800           0
     16175 MEMB     69       POPC     C215     CTL2    -0.180000       12.0110           0
     16176 MEMB     69       POPC     H15R     HAL2     0.900000E-01   1.00800           0
     16177 MEMB     69       POPC     H15S     HAL2     0.900000E-01   1.00800           0
     16178 MEMB     69       POPC     C216     CTL2    -0.180000       12.0110           0
     16179 MEMB     69       POPC     H16R     HAL2     0.900000E-01   1.00800           0
     16180 MEMB     69       POPC     H16S     HAL2     0.900000E-01   1.00800           0
     16181 MEMB     69       POPC     C217     CTL2    -0.180000       12.0110           0
     16182 MEMB     69       POPC     H17R     HAL2     0.900000E-01   1.00800           0
     16183 MEMB     69       POPC     H17S     HAL2     0.900000E-01   1.00800           0
     16184 MEMB     69       POPC     C218     CTL3    -0.270000       12.0110           0
     16185 MEMB     69       POPC     H18R     HAL3     0.900000E-01   1.00800           0
     16186 MEMB     69       POPC     H18S     HAL3     0.900000E-01   1.00800           0
     16187 MEMB     69       POPC     H18T     HAL3     0.900000E-01   1.00800           0
     16188 MEMB     69       POPC     C33      CTL2    -0.180000       12.0110           0
     16189 MEMB     69       POPC     H3X      HAL2     0.900000E-01   1.00800           0
     16190 MEMB     69       POPC     H3Y      HAL2     0.900000E-01   1.00800           0
     16191 MEMB     69       POPC     C34      CTL2    -0.180000       12.0110           0
     16192 MEMB     69       POPC     H4X      HAL2     0.900000E-01   1.00800           0
     16193 MEMB     69       POPC     H4Y      HAL2     0.900000E-01   1.00800           0
     16194 MEMB     69       POPC     C35      CTL2    -0.180000       12.0110           0
     16195 MEMB     69       POPC     H5X      HAL2     0.900000E-01   1.00800           0
     16196 MEMB     69       POPC     H5Y      HAL2     0.900000E-01   1.00800           0
     16197 MEMB     69       POPC     C36      CTL2    -0.180000       12.0110           0
     16198 MEMB     69       POPC     H6X      HAL2     0.900000E-01   1.00800           0
     16199 MEMB     69       POPC     H6Y      HAL2     0.900000E-01   1.00800           0
     16200 MEMB     69       POPC     C37      CTL2    -0.180000       12.0110           0
     16201 MEMB     69       POPC     H7X      HAL2     0.900000E-01   1.00800           0
     16202 MEMB     69       POPC     H7Y      HAL2     0.900000E-01   1.00800           0
     16203 MEMB     69       POPC     C38      CTL2    -0.180000       12.0110           0
     16204 MEMB     69       POPC     H8X      HAL2     0.900000E-01   1.00800           0
     16205 MEMB     69       POPC     H8Y      HAL2     0.900000E-01   1.00800           0
     16206 MEMB     69       POPC     C39      CTL2    -0.180000       12.0110           0
     16207 MEMB     69       POPC     H9X      HAL2     0.900000E-01   1.00800           0
     16208 MEMB     69       POPC     H9Y      HAL2     0.900000E-01   1.00800           0
     16209 MEMB     69       POPC     C310     CTL2    -0.180000       12.0110           0
     16210 MEMB     69       POPC     H10X     HAL2     0.900000E-01   1.00800           0
     16211 MEMB     69       POPC     H10Y     HAL2     0.900000E-01   1.00800           0
     16212 MEMB     69       POPC     C311     CTL2    -0.180000       12.0110           0
     16213 MEMB     69       POPC     H11X     HAL2     0.900000E-01   1.00800           0
     16214 MEMB     69       POPC     H11Y     HAL2     0.900000E-01   1.00800           0
     16215 MEMB     69       POPC     C312     CTL2    -0.180000       12.0110           0
     16216 MEMB     69       POPC     H12X     HAL2     0.900000E-01   1.00800           0
     16217 MEMB     69       POPC     H12Y     HAL2     0.900000E-01   1.00800           0
     16218 MEMB     69       POPC     C313     CTL2    -0.180000       12.0110           0
     16219 MEMB     69       POPC     H13X     HAL2     0.900000E-01   1.00800           0
     16220 MEMB     69       POPC     H13Y     HAL2     0.900000E-01   1.00800           0
     16221 MEMB     69       POPC     C314     CTL2    -0.180000       12.0110           0
     16222 MEMB     69       POPC     H14X     HAL2     0.900000E-01   1.00800           0
     16223 MEMB     69       POPC     H14Y     HAL2     0.900000E-01   1.00800           0
     16224 MEMB     69       POPC     C315     CTL2    -0.180000       12.0110           0
     16225 MEMB     69       POPC     H15X     HAL2     0.900000E-01   1.00800           0
     16226 MEMB     69       POPC     H15Y     HAL2     0.900000E-01   1.00800           0
     16227 MEMB     69       POPC     C316     CTL3    -0.270000       12.0110           0
     16228 MEMB     69       POPC     H16X     HAL3     0.900000E-01   1.00800           0
     16229 MEMB     69       POPC     H16Y     HAL3     0.900000E-01   1.00800           0
     16230 MEMB     69       POPC     H16Z     HAL3     0.900000E-01   1.00800           0
     16231 MEMB     70       POPC     N        NTL     -0.600000       14.0070           0
     16232 MEMB     70       POPC     C12      CTL2    -0.100000       12.0110           0
     16233 MEMB     70       POPC     H12A     HL       0.250000       1.00800           0
     16234 MEMB     70       POPC     H12B     HL       0.250000       1.00800           0
     16235 MEMB     70       POPC     C13      CTL5    -0.350000       12.0110           0
     16236 MEMB     70       POPC     H13A     HL       0.250000       1.00800           0
     16237 MEMB     70       POPC     H13B     HL       0.250000       1.00800           0
     16238 MEMB     70       POPC     H13C     HL       0.250000       1.00800           0
     16239 MEMB     70       POPC     C14      CTL5    -0.350000       12.0110           0
     16240 MEMB     70       POPC     H14A     HL       0.250000       1.00800           0
     16241 MEMB     70       POPC     H14B     HL       0.250000       1.00800           0
     16242 MEMB     70       POPC     H14C     HL       0.250000       1.00800           0
     16243 MEMB     70       POPC     C15      CTL5    -0.350000       12.0110           0
     16244 MEMB     70       POPC     H15A     HL       0.250000       1.00800           0
     16245 MEMB     70       POPC     H15B     HL       0.250000       1.00800           0
     16246 MEMB     70       POPC     H15C     HL       0.250000       1.00800           0
     16247 MEMB     70       POPC     C11      CTL2    -0.800000E-01   12.0110           0
     16248 MEMB     70       POPC     H11A     HAL2     0.900000E-01   1.00800           0
     16249 MEMB     70       POPC     H11B     HAL2     0.900000E-01   1.00800           0
     16250 MEMB     70       POPC     P        PL       1.500000       30.9740           0
     16251 MEMB     70       POPC     O13      O2L     -0.780000       15.9994           0
     16252 MEMB     70       POPC     O14      O2L     -0.780000       15.9994           0
     16253 MEMB     70       POPC     O12      OSLP    -0.570000       15.9994           0
     16254 MEMB     70       POPC     O11      OSLP    -0.570000       15.9994           0
     16255 MEMB     70       POPC     C1       CTL2    -0.800000E-01   12.0110           0
     16256 MEMB     70       POPC     HA       HAL2     0.900000E-01   1.00800           0
     16257 MEMB     70       POPC     HB       HAL2     0.900000E-01   1.00800           0
     16258 MEMB     70       POPC     C2       CTL1     0.170000       12.0110           0
     16259 MEMB     70       POPC     HS       HAL1     0.900000E-01   1.00800           0
     16260 MEMB     70       POPC     O21      OSL     -0.490000       15.9994           0
     16261 MEMB     70       POPC     C21      CL       0.900000       12.0110           0
     16262 MEMB     70       POPC     O22      OBL     -0.630000       15.9994           0
     16263 MEMB     70       POPC     C22      CTL2    -0.220000       12.0110           0
     16264 MEMB     70       POPC     H2R      HAL2     0.900000E-01   1.00800           0
     16265 MEMB     70       POPC     H2S      HAL2     0.900000E-01   1.00800           0
     16266 MEMB     70       POPC     C3       CTL2     0.800000E-01   12.0110           0
     16267 MEMB     70       POPC     HX       HAL2     0.900000E-01   1.00800           0
     16268 MEMB     70       POPC     HY       HAL2     0.900000E-01   1.00800           0
     16269 MEMB     70       POPC     O31      OSL     -0.490000       15.9994           0
     16270 MEMB     70       POPC     C31      CL       0.900000       12.0110           0
     16271 MEMB     70       POPC     O32      OBL     -0.630000       15.9994           0
     16272 MEMB     70       POPC     C32      CTL2    -0.220000       12.0110           0
     16273 MEMB     70       POPC     H2X      HAL2     0.900000E-01   1.00800           0
     16274 MEMB     70       POPC     H2Y      HAL2     0.900000E-01   1.00800           0
     16275 MEMB     70       POPC     C23      CTL2    -0.180000       12.0110           0
     16276 MEMB     70       POPC     H3R      HAL2     0.900000E-01   1.00800           0
     16277 MEMB     70       POPC     H3S      HAL2     0.900000E-01   1.00800           0
     16278 MEMB     70       POPC     C24      CTL2    -0.180000       12.0110           0
     16279 MEMB     70       POPC     H4R      HAL2     0.900000E-01   1.00800           0
     16280 MEMB     70       POPC     H4S      HAL2     0.900000E-01   1.00800           0
     16281 MEMB     70       POPC     C25      CTL2    -0.180000       12.0110           0
     16282 MEMB     70       POPC     H5R      HAL2     0.900000E-01   1.00800           0
     16283 MEMB     70       POPC     H5S      HAL2     0.900000E-01   1.00800           0
     16284 MEMB     70       POPC     C26      CTL2    -0.180000       12.0110           0
     16285 MEMB     70       POPC     H6R      HAL2     0.900000E-01   1.00800           0
     16286 MEMB     70       POPC     H6S      HAL2     0.900000E-01   1.00800           0
     16287 MEMB     70       POPC     C27      CTL2    -0.180000       12.0110           0
     16288 MEMB     70       POPC     H7R      HAL2     0.900000E-01   1.00800           0
     16289 MEMB     70       POPC     H7S      HAL2     0.900000E-01   1.00800           0
     16290 MEMB     70       POPC     C28      CTL2    -0.180000       12.0110           0
     16291 MEMB     70       POPC     H8R      HAL2     0.900000E-01   1.00800           0
     16292 MEMB     70       POPC     H8S      HAL2     0.900000E-01   1.00800           0
     16293 MEMB     70       POPC     C29      CEL1    -0.150000       12.0110           0
     16294 MEMB     70       POPC     H91      HEL1     0.150000       1.00800           0
     16295 MEMB     70       POPC     C210     CEL1    -0.150000       12.0110           0
     16296 MEMB     70       POPC     H101     HEL1     0.150000       1.00800           0
     16297 MEMB     70       POPC     C211     CTL2    -0.180000       12.0110           0
     16298 MEMB     70       POPC     H11R     HAL2     0.900000E-01   1.00800           0
     16299 MEMB     70       POPC     H11S     HAL2     0.900000E-01   1.00800           0
     16300 MEMB     70       POPC     C212     CTL2    -0.180000       12.0110           0
     16301 MEMB     70       POPC     H12R     HAL2     0.900000E-01   1.00800           0
     16302 MEMB     70       POPC     H12S     HAL2     0.900000E-01   1.00800           0
     16303 MEMB     70       POPC     C213     CTL2    -0.180000       12.0110           0
     16304 MEMB     70       POPC     H13R     HAL2     0.900000E-01   1.00800           0
     16305 MEMB     70       POPC     H13S     HAL2     0.900000E-01   1.00800           0
     16306 MEMB     70       POPC     C214     CTL2    -0.180000       12.0110           0
     16307 MEMB     70       POPC     H14R     HAL2     0.900000E-01   1.00800           0
     16308 MEMB     70       POPC     H14S     HAL2     0.900000E-01   1.00800           0
     16309 MEMB     70       POPC     C215     CTL2    -0.180000       12.0110           0
     16310 MEMB     70       POPC     H15R     HAL2     0.900000E-01   1.00800           0
     16311 MEMB     70       POPC     H15S     HAL2     0.900000E-01   1.00800           0
     16312 MEMB     70       POPC     C216     CTL2    -0.180000       12.0110           0
     16313 MEMB     70       POPC     H16R     HAL2     0.900000E-01   1.00800           0
     16314 MEMB     70       POPC     H16S     HAL2     0.900000E-01   1.00800           0
     16315 MEMB     70       POPC     C217     CTL2    -0.180000       12.0110           0
     16316 MEMB     70       POPC     H17R     HAL2     0.900000E-01   1.00800           0
     16317 MEMB     70       POPC     H17S     HAL2     0.900000E-01   1.00800           0
     16318 MEMB     70       POPC     C218     CTL3    -0.270000       12.0110           0
     16319 MEMB     70       POPC     H18R     HAL3     0.900000E-01   1.00800           0
     16320 MEMB     70       POPC     H18S     HAL3     0.900000E-01   1.00800           0
     16321 MEMB     70       POPC     H18T     HAL3     0.900000E-01   1.00800           0
     16322 MEMB     70       POPC     C33      CTL2    -0.180000       12.0110           0
     16323 MEMB     70       POPC     H3X      HAL2     0.900000E-01   1.00800           0
     16324 MEMB     70       POPC     H3Y      HAL2     0.900000E-01   1.00800           0
     16325 MEMB     70       POPC     C34      CTL2    -0.180000       12.0110           0
     16326 MEMB     70       POPC     H4X      HAL2     0.900000E-01   1.00800           0
     16327 MEMB     70       POPC     H4Y      HAL2     0.900000E-01   1.00800           0
     16328 MEMB     70       POPC     C35      CTL2    -0.180000       12.0110           0
     16329 MEMB     70       POPC     H5X      HAL2     0.900000E-01   1.00800           0
     16330 MEMB     70       POPC     H5Y      HAL2     0.900000E-01   1.00800           0
     16331 MEMB     70       POPC     C36      CTL2    -0.180000       12.0110           0
     16332 MEMB     70       POPC     H6X      HAL2     0.900000E-01   1.00800           0
     16333 MEMB     70       POPC     H6Y      HAL2     0.900000E-01   1.00800           0
     16334 MEMB     70       POPC     C37      CTL2    -0.180000       12.0110           0
     16335 MEMB     70       POPC     H7X      HAL2     0.900000E-01   1.00800           0
     16336 MEMB     70       POPC     H7Y      HAL2     0.900000E-01   1.00800           0
     16337 MEMB     70       POPC     C38      CTL2    -0.180000       12.0110           0
     16338 MEMB     70       POPC     H8X      HAL2     0.900000E-01   1.00800           0
     16339 MEMB     70       POPC     H8Y      HAL2     0.900000E-01   1.00800           0
     16340 MEMB     70       POPC     C39      CTL2    -0.180000       12.0110           0
     16341 MEMB     70       POPC     H9X      HAL2     0.900000E-01   1.00800           0
     16342 MEMB     70       POPC     H9Y      HAL2     0.900000E-01   1.00800           0
     16343 MEMB     70       POPC     C310     CTL2    -0.180000       12.0110           0
     16344 MEMB     70       POPC     H10X     HAL2     0.900000E-01   1.00800           0
     16345 MEMB     70       POPC     H10Y     HAL2     0.900000E-01   1.00800           0
     16346 MEMB     70       POPC     C311     CTL2    -0.180000       12.0110           0
     16347 MEMB     70       POPC     H11X     HAL2     0.900000E-01   1.00800           0
     16348 MEMB     70       POPC     H11Y     HAL2     0.900000E-01   1.00800           0
     16349 MEMB     70       POPC     C312     CTL2    -0.180000       12.0110           0
     16350 MEMB     70       POPC     H12X     HAL2     0.900000E-01   1.00800           0
     16351 MEMB     70       POPC     H12Y     HAL2     0.900000E-01   1.00800           0
     16352 MEMB     70       POPC     C313     CTL2    -0.180000       12.0110           0
     16353 MEMB     70       POPC     H13X     HAL2     0.900000E-01   1.00800           0
     16354 MEMB     70       POPC     H13Y     HAL2     0.900000E-01   1.00800           0
     16355 MEMB     70       POPC     C314     CTL2    -0.180000       12.0110           0
     16356 MEMB     70       POPC     H14X     HAL2     0.900000E-01   1.00800           0
     16357 MEMB     70       POPC     H14Y     HAL2     0.900000E-01   1.00800           0
     16358 MEMB     70       POPC     C315     CTL2    -0.180000       12.0110           0
     16359 MEMB     70       POPC     H15X     HAL2     0.900000E-01   1.00800           0
     16360 MEMB     70       POPC     H15Y     HAL2     0.900000E-01   1.00800           0
     16361 MEMB     70       POPC     C316     CTL3    -0.270000       12.0110           0
     16362 MEMB     70       POPC     H16X     HAL3     0.900000E-01   1.00800           0
     16363 MEMB     70       POPC     H16Y     HAL3     0.900000E-01   1.00800           0
     16364 MEMB     70       POPC     H16Z     HAL3     0.900000E-01   1.00800           0
     16365 MEMB     72       POPC     N        NTL     -0.600000       14.0070           0
     16366 MEMB     72       POPC     C12      CTL2    -0.100000       12.0110           0
     16367 MEMB     72       POPC     H12A     HL       0.250000       1.00800           0
     16368 MEMB     72       POPC     H12B     HL       0.250000       1.00800           0
     16369 MEMB     72       POPC     C13      CTL5    -0.350000       12.0110           0
     16370 MEMB     72       POPC     H13A     HL       0.250000       1.00800           0
     16371 MEMB     72       POPC     H13B     HL       0.250000       1.00800           0
     16372 MEMB     72       POPC     H13C     HL       0.250000       1.00800           0
     16373 MEMB     72       POPC     C14      CTL5    -0.350000       12.0110           0
     16374 MEMB     72       POPC     H14A     HL       0.250000       1.00800           0
     16375 MEMB     72       POPC     H14B     HL       0.250000       1.00800           0
     16376 MEMB     72       POPC     H14C     HL       0.250000       1.00800           0
     16377 MEMB     72       POPC     C15      CTL5    -0.350000       12.0110           0
     16378 MEMB     72       POPC     H15A     HL       0.250000       1.00800           0
     16379 MEMB     72       POPC     H15B     HL       0.250000       1.00800           0
     16380 MEMB     72       POPC     H15C     HL       0.250000       1.00800           0
     16381 MEMB     72       POPC     C11      CTL2    -0.800000E-01   12.0110           0
     16382 MEMB     72       POPC     H11A     HAL2     0.900000E-01   1.00800           0
     16383 MEMB     72       POPC     H11B     HAL2     0.900000E-01   1.00800           0
     16384 MEMB     72       POPC     P        PL       1.500000       30.9740           0
     16385 MEMB     72       POPC     O13      O2L     -0.780000       15.9994           0
     16386 MEMB     72       POPC     O14      O2L     -0.780000       15.9994           0
     16387 MEMB     72       POPC     O12      OSLP    -0.570000       15.9994           0
     16388 MEMB     72       POPC     O11      OSLP    -0.570000       15.9994           0
     16389 MEMB     72       POPC     C1       CTL2    -0.800000E-01   12.0110           0
     16390 MEMB     72       POPC     HA       HAL2     0.900000E-01   1.00800           0
     16391 MEMB     72       POPC     HB       HAL2     0.900000E-01   1.00800           0
     16392 MEMB     72       POPC     C2       CTL1     0.170000       12.0110           0
     16393 MEMB     72       POPC     HS       HAL1     0.900000E-01   1.00800           0
     16394 MEMB     72       POPC     O21      OSL     -0.490000       15.9994           0
     16395 MEMB     72       POPC     C21      CL       0.900000       12.0110           0
     16396 MEMB     72       POPC     O22      OBL     -0.630000       15.9994           0
     16397 MEMB     72       POPC     C22      CTL2    -0.220000       12.0110           0
     16398 MEMB     72       POPC     H2R      HAL2     0.900000E-01   1.00800           0
     16399 MEMB     72       POPC     H2S      HAL2     0.900000E-01   1.00800           0
     16400 MEMB     72       POPC     C3       CTL2     0.800000E-01   12.0110           0
     16401 MEMB     72       POPC     HX       HAL2     0.900000E-01   1.00800           0
     16402 MEMB     72       POPC     HY       HAL2     0.900000E-01   1.00800           0
     16403 MEMB     72       POPC     O31      OSL     -0.490000       15.9994           0
     16404 MEMB     72       POPC     C31      CL       0.900000       12.0110           0
     16405 MEMB     72       POPC     O32      OBL     -0.630000       15.9994           0
     16406 MEMB     72       POPC     C32      CTL2    -0.220000       12.0110           0
     16407 MEMB     72       POPC     H2X      HAL2     0.900000E-01   1.00800           0
     16408 MEMB     72       POPC     H2Y      HAL2     0.900000E-01   1.00800           0
     16409 MEMB     72       POPC     C23      CTL2    -0.180000       12.0110           0
     16410 MEMB     72       POPC     H3R      HAL2     0.900000E-01   1.00800           0
     16411 MEMB     72       POPC     H3S      HAL2     0.900000E-01   1.00800           0
     16412 MEMB     72       POPC     C24      CTL2    -0.180000       12.0110           0
     16413 MEMB     72       POPC     H4R      HAL2     0.900000E-01   1.00800           0
     16414 MEMB     72       POPC     H4S      HAL2     0.900000E-01   1.00800           0
     16415 MEMB     72       POPC     C25      CTL2    -0.180000       12.0110           0
     16416 MEMB     72       POPC     H5R      HAL2     0.900000E-01   1.00800           0
     16417 MEMB     72       POPC     H5S      HAL2     0.900000E-01   1.00800           0
     16418 MEMB     72       POPC     C26      CTL2    -0.180000       12.0110           0
     16419 MEMB     72       POPC     H6R      HAL2     0.900000E-01   1.00800           0
     16420 MEMB     72       POPC     H6S      HAL2     0.900000E-01   1.00800           0
     16421 MEMB     72       POPC     C27      CTL2    -0.180000       12.0110           0
     16422 MEMB     72       POPC     H7R      HAL2     0.900000E-01   1.00800           0
     16423 MEMB     72       POPC     H7S      HAL2     0.900000E-01   1.00800           0
     16424 MEMB     72       POPC     C28      CTL2    -0.180000       12.0110           0
     16425 MEMB     72       POPC     H8R      HAL2     0.900000E-01   1.00800           0
     16426 MEMB     72       POPC     H8S      HAL2     0.900000E-01   1.00800           0
     16427 MEMB     72       POPC     C29      CEL1    -0.150000       12.0110           0
     16428 MEMB     72       POPC     H91      HEL1     0.150000       1.00800           0
     16429 MEMB     72       POPC     C210     CEL1    -0.150000       12.0110           0
     16430 MEMB     72       POPC     H101     HEL1     0.150000       1.00800           0
     16431 MEMB     72       POPC     C211     CTL2    -0.180000       12.0110           0
     16432 MEMB     72       POPC     H11R     HAL2     0.900000E-01   1.00800           0
     16433 MEMB     72       POPC     H11S     HAL2     0.900000E-01   1.00800           0
     16434 MEMB     72       POPC     C212     CTL2    -0.180000       12.0110           0
     16435 MEMB     72       POPC     H12R     HAL2     0.900000E-01   1.00800           0
     16436 MEMB     72       POPC     H12S     HAL2     0.900000E-01   1.00800           0
     16437 MEMB     72       POPC     C213     CTL2    -0.180000       12.0110           0
     16438 MEMB     72       POPC     H13R     HAL2     0.900000E-01   1.00800           0
     16439 MEMB     72       POPC     H13S     HAL2     0.900000E-01   1.00800           0
     16440 MEMB     72       POPC     C214     CTL2    -0.180000       12.0110           0
     16441 MEMB     72       POPC     H14R     HAL2     0.900000E-01   1.00800           0
     16442 MEMB     72       POPC     H14S     HAL2     0.900000E-01   1.00800           0
     16443 MEMB     72       POPC     C215     CTL2    -0.180000       12.0110           0
     16444 MEMB     72       POPC     H15R     HAL2     0.900000E-01   1.00800           0
     16445 MEMB     72       POPC     H15S     HAL2     0.900000E-01   1.00800           0
     16446 MEMB     72       POPC     C216     CTL2    -0.180000       12.0110           0
     16447 MEMB     72       POPC     H16R     HAL2     0.900000E-01   1.00800           0
     16448 MEMB     72       POPC     H16S     HAL2     0.900000E-01   1.00800           0
     16449 MEMB     72       POPC     C217     CTL2    -0.180000       12.0110           0
     16450 MEMB     72       POPC     H17R     HAL2     0.900000E-01   1.00800           0
     16451 MEMB     72       POPC     H17S     HAL2     0.900000E-01   1.00800           0
     16452 MEMB     72       POPC     C218     CTL3    -0.270000       12.0110           0
     16453 MEMB     72       POPC     H18R     HAL3     0.900000E-01   1.00800           0
     16454 MEMB     72       POPC     H18S     HAL3     0.900000E-01   1.00800           0
     16455 MEMB     72       POPC     H18T     HAL3     0.900000E-01   1.00800           0
     16456 MEMB     72       POPC     C33      CTL2    -0.180000       12.0110           0
     16457 MEMB     72       POPC     H3X      HAL2     0.900000E-01   1.00800           0
     16458 MEMB     72       POPC     H3Y      HAL2     0.900000E-01   1.00800           0
     16459 MEMB     72       POPC     C34      CTL2    -0.180000       12.0110           0
     16460 MEMB     72       POPC     H4X      HAL2     0.900000E-01   1.00800           0
     16461 MEMB     72       POPC     H4Y      HAL2     0.900000E-01   1.00800           0
     16462 MEMB     72       POPC     C35      CTL2    -0.180000       12.0110           0
     16463 MEMB     72       POPC     H5X      HAL2     0.900000E-01   1.00800           0
     16464 MEMB     72       POPC     H5Y      HAL2     0.900000E-01   1.00800           0
     16465 MEMB     72       POPC     C36      CTL2    -0.180000       12.0110           0
     16466 MEMB     72       POPC     H6X      HAL2     0.900000E-01   1.00800           0
     16467 MEMB     72       POPC     H6Y      HAL2     0.900000E-01   1.00800           0
     16468 MEMB     72       POPC     C37      CTL2    -0.180000       12.0110           0
     16469 MEMB     72       POPC     H7X      HAL2     0.900000E-01   1.00800           0
     16470 MEMB     72       POPC     H7Y      HAL2     0.900000E-01   1.00800           0
     16471 MEMB     72       POPC     C38      CTL2    -0.180000       12.0110           0
     16472 MEMB     72       POPC     H8X      HAL2     0.900000E-01   1.00800           0
     16473 MEMB     72       POPC     H8Y      HAL2     0.900000E-01   1.00800           0
     16474 MEMB     72       POPC     C39      CTL2    -0.180000       12.0110           0
     16475 MEMB     72       POPC     H9X      HAL2     0.900000E-01   1.00800           0
     16476 MEMB     72       POPC     H9Y      HAL2     0.900000E-01   1.00800           0
     16477 MEMB     72       POPC     C310     CTL2    -0.180000       12.0110           0
     16478 MEMB     72       POPC     H10X     HAL2     0.900000E-01   1.00800           0
     16479 MEMB     72       POPC     H10Y     HAL2     0.900000E-01   1.00800           0
     16480 MEMB     72       POPC     C311     CTL2    -0.180000       12.0110           0
     16481 MEMB     72       POPC     H11X     HAL2     0.900000E-01   1.00800           0
     16482 MEMB     72       POPC     H11Y     HAL2     0.900000E-01   1.00800           0
     16483 MEMB     72       POPC     C312     CTL2    -0.180000       12.0110           0
     16484 MEMB     72       POPC     H12X     HAL2     0.900000E-01   1.00800           0
     16485 MEMB     72       POPC     H12Y     HAL2     0.900000E-01   1.00800           0
     16486 MEMB     72       POPC     C313     CTL2    -0.180000       12.0110           0
     16487 MEMB     72       POPC     H13X     HAL2     0.900000E-01   1.00800           0
     16488 MEMB     72       POPC     H13Y     HAL2     0.900000E-01   1.00800           0
     16489 MEMB     72       POPC     C314     CTL2    -0.180000       12.0110           0
     16490 MEMB     72       POPC     H14X     HAL2     0.900000E-01   1.00800           0
     16491 MEMB     72       POPC     H14Y     HAL2     0.900000E-01   1.00800           0
     16492 MEMB     72       POPC     C315     CTL2    -0.180000       12.0110           0
     16493 MEMB     72       POPC     H15X     HAL2     0.900000E-01   1.00800           0
     16494 MEMB     72       POPC     H15Y     HAL2     0.900000E-01   1.00800           0
     16495 MEMB     72       POPC     C316     CTL3    -0.270000       12.0110           0
     16496 MEMB     72       POPC     H16X     HAL3     0.900000E-01   1.00800           0
     16497 MEMB     72       POPC     H16Y     HAL3     0.900000E-01   1.00800           0
     16498 MEMB     72       POPC     H16Z     HAL3     0.900000E-01   1.00800           0
     16499 MEMB     83       POPC     N        NTL     -0.600000       14.0070           0
     16500 MEMB     83       POPC     C12      CTL2    -0.100000       12.0110           0
     16501 MEMB     83       POPC     H12A     HL       0.250000       1.00800           0
     16502 MEMB     83       POPC     H12B     HL       0.250000       1.00800           0
     16503 MEMB     83       POPC     C13      CTL5    -0.350000       12.0110           0
     16504 MEMB     83       POPC     H13A     HL       0.250000       1.00800           0
     16505 MEMB     83       POPC     H13B     HL       0.250000       1.00800           0
     16506 MEMB     83       POPC     H13C     HL       0.250000       1.00800           0
     16507 MEMB     83       POPC     C14      CTL5    -0.350000       12.0110           0
     16508 MEMB     83       POPC     H14A     HL       0.250000       1.00800           0
     16509 MEMB     83       POPC     H14B     HL       0.250000       1.00800           0
     16510 MEMB     83       POPC     H14C     HL       0.250000       1.00800           0
     16511 MEMB     83       POPC     C15      CTL5    -0.350000       12.0110           0
     16512 MEMB     83       POPC     H15A     HL       0.250000       1.00800           0
     16513 MEMB     83       POPC     H15B     HL       0.250000       1.00800           0
     16514 MEMB     83       POPC     H15C     HL       0.250000       1.00800           0
     16515 MEMB     83       POPC     C11      CTL2    -0.800000E-01   12.0110           0
     16516 MEMB     83       POPC     H11A     HAL2     0.900000E-01   1.00800           0
     16517 MEMB     83       POPC     H11B     HAL2     0.900000E-01   1.00800           0
     16518 MEMB     83       POPC     P        PL       1.500000       30.9740           0
     16519 MEMB     83       POPC     O13      O2L     -0.780000       15.9994           0
     16520 MEMB     83       POPC     O14      O2L     -0.780000       15.9994           0
     16521 MEMB     83       POPC     O12      OSLP    -0.570000       15.9994           0
     16522 MEMB     83       POPC     O11      OSLP    -0.570000       15.9994           0
     16523 MEMB     83       POPC     C1       CTL2    -0.800000E-01   12.0110           0
     16524 MEMB     83       POPC     HA       HAL2     0.900000E-01   1.00800           0
     16525 MEMB     83       POPC     HB       HAL2     0.900000E-01   1.00800           0
     16526 MEMB     83       POPC     C2       CTL1     0.170000       12.0110           0
     16527 MEMB     83       POPC     HS       HAL1     0.900000E-01   1.00800           0
     16528 MEMB     83       POPC     O21      OSL     -0.490000       15.9994           0
     16529 MEMB     83       POPC     C21      CL       0.900000       12.0110           0
     16530 MEMB     83       POPC     O22      OBL     -0.630000       15.9994           0
     16531 MEMB     83       POPC     C22      CTL2    -0.220000       12.0110           0
     16532 MEMB     83       POPC     H2R      HAL2     0.900000E-01   1.00800           0
     16533 MEMB     83       POPC     H2S      HAL2     0.900000E-01   1.00800           0
     16534 MEMB     83       POPC     C3       CTL2     0.800000E-01   12.0110           0
     16535 MEMB     83       POPC     HX       HAL2     0.900000E-01   1.00800           0
     16536 MEMB     83       POPC     HY       HAL2     0.900000E-01   1.00800           0
     16537 MEMB     83       POPC     O31      OSL     -0.490000       15.9994           0
     16538 MEMB     83       POPC     C31      CL       0.900000       12.0110           0
     16539 MEMB     83       POPC     O32      OBL     -0.630000       15.9994           0
     16540 MEMB     83       POPC     C32      CTL2    -0.220000       12.0110           0
     16541 MEMB     83       POPC     H2X      HAL2     0.900000E-01   1.00800           0
     16542 MEMB     83       POPC     H2Y      HAL2     0.900000E-01   1.00800           0
     16543 MEMB     83       POPC     C23      CTL2    -0.180000       12.0110           0
     16544 MEMB     83       POPC     H3R      HAL2     0.900000E-01   1.00800           0
     16545 MEMB     83       POPC     H3S      HAL2     0.900000E-01   1.00800           0
     16546 MEMB     83       POPC     C24      CTL2    -0.180000       12.0110           0
     16547 MEMB     83       POPC     H4R      HAL2     0.900000E-01   1.00800           0
     16548 MEMB     83       POPC     H4S      HAL2     0.900000E-01   1.00800           0
     16549 MEMB     83       POPC     C25      CTL2    -0.180000       12.0110           0
     16550 MEMB     83       POPC     H5R      HAL2     0.900000E-01   1.00800           0
     16551 MEMB     83       POPC     H5S      HAL2     0.900000E-01   1.00800           0
     16552 MEMB     83       POPC     C26      CTL2    -0.180000       12.0110           0
     16553 MEMB     83       POPC     H6R      HAL2     0.900000E-01   1.00800           0
     16554 MEMB     83       POPC     H6S      HAL2     0.900000E-01   1.00800           0
     16555 MEMB     83       POPC     C27      CTL2    -0.180000       12.0110           0
     16556 MEMB     83       POPC     H7R      HAL2     0.900000E-01   1.00800           0
     16557 MEMB     83       POPC     H7S      HAL2     0.900000E-01   1.00800           0
     16558 MEMB     83       POPC     C28      CTL2    -0.180000       12.0110           0
     16559 MEMB     83       POPC     H8R      HAL2     0.900000E-01   1.00800           0
     16560 MEMB     83       POPC     H8S      HAL2     0.900000E-01   1.00800           0
     16561 MEMB     83       POPC     C29      CEL1    -0.150000       12.0110           0
     16562 MEMB     83       POPC     H91      HEL1     0.150000       1.00800           0
     16563 MEMB     83       POPC     C210     CEL1    -0.150000       12.0110           0
     16564 MEMB     83       POPC     H101     HEL1     0.150000       1.00800           0
     16565 MEMB     83       POPC     C211     CTL2    -0.180000       12.0110           0
     16566 MEMB     83       POPC     H11R     HAL2     0.900000E-01   1.00800           0
     16567 MEMB     83       POPC     H11S     HAL2     0.900000E-01   1.00800           0
     16568 MEMB     83       POPC     C212     CTL2    -0.180000       12.0110           0
     16569 MEMB     83       POPC     H12R     HAL2     0.900000E-01   1.00800           0
     16570 MEMB     83       POPC     H12S     HAL2     0.900000E-01   1.00800           0
     16571 MEMB     83       POPC     C213     CTL2    -0.180000       12.0110           0
     16572 MEMB     83       POPC     H13R     HAL2     0.900000E-01   1.00800           0
     16573 MEMB     83       POPC     H13S     HAL2     0.900000E-01   1.00800           0
     16574 MEMB     83       POPC     C214     CTL2    -0.180000       12.0110           0
     16575 MEMB     83       POPC     H14R     HAL2     0.900000E-01   1.00800           0
     16576 MEMB     83       POPC     H14S     HAL2     0.900000E-01   1.00800           0
     16577 MEMB     83       POPC     C215     CTL2    -0.180000       12.0110           0
     16578 MEMB     83       POPC     H15R     HAL2     0.900000E-01   1.00800           0
     16579 MEMB     83       POPC     H15S     HAL2     0.900000E-01   1.00800           0
     16580 MEMB     83       POPC     C216     CTL2    -0.180000       12.0110           0
     16581 MEMB     83       POPC     H16R     HAL2     0.900000E-01   1.00800           0
     16582 MEMB     83       POPC     H16S     HAL2     0.900000E-01   1.00800           0
     16583 MEMB     83       POPC     C217     CTL2    -0.180000       12.0110           0
     16584 MEMB     83       POPC     H17R     HAL2     0.900000E-01   1.00800           0
     16585 MEMB     83       POPC     H17S     HAL2     0.900000E-01   1.00800           0
     16586 MEMB     83       POPC     C218     CTL3    -0.270000       12.0110           0
     16587 MEMB     83       POPC     H18R     HAL3     0.900000E-01   1.00800           0
     16588 MEMB     83       POPC     H18S     HAL3     0.900000E-01   1.00800           0
     16589 MEMB     83       POPC     H18T     HAL3     0.900000E-01   1.00800           0
     16590 MEMB     83       POPC     C33      CTL2    -0.180000       12.0110           0
     16591 MEMB     83       POPC     H3X      HAL2     0.900000E-01   1.00800           0
     16592 MEMB     83       POPC     H3Y      HAL2     0.900000E-01   1.00800           0
     16593 MEMB     83       POPC     C34      CTL2    -0.180000       12.0110           0
     16594 MEMB     83       POPC     H4X      HAL2     0.900000E-01   1.00800           0
     16595 MEMB     83       POPC     H4Y      HAL2     0.900000E-01   1.00800           0
     16596 MEMB     83       POPC     C35      CTL2    -0.180000       12.0110           0
     16597 MEMB     83       POPC     H5X      HAL2     0.900000E-01   1.00800           0
     16598 MEMB     83       POPC     H5Y      HAL2     0.900000E-01   1.00800           0
     16599 MEMB     83       POPC     C36      CTL2    -0.180000       12.0110           0
     16600 MEMB     83       POPC     H6X      HAL2     0.900000E-01   1.00800           0
     16601 MEMB     83       POPC     H6Y      HAL2     0.900000E-01   1.00800           0
     16602 MEMB     83       POPC     C37      CTL2    -0.180000       12.0110           0
     16603 MEMB     83       POPC     H7X      HAL2     0.900000E-01   1.00800           0
     16604 MEMB     83       POPC     H7Y      HAL2     0.900000E-01   1.00800           0
     16605 MEMB     83       POPC     C38      CTL2    -0.180000       12.0110           0
     16606 MEMB     83       POPC     H8X      HAL2     0.900000E-01   1.00800           0
     16607 MEMB     83       POPC     H8Y      HAL2     0.900000E-01   1.00800           0
     16608 MEMB     83       POPC     C39      CTL2    -0.180000       12.0110           0
     16609 MEMB     83       POPC     H9X      HAL2     0.900000E-01   1.00800           0
     16610 MEMB     83       POPC     H9Y      HAL2     0.900000E-01   1.00800           0
     16611 MEMB     83       POPC     C310     CTL2    -0.180000       12.0110           0
     16612 MEMB     83       POPC     H10X     HAL2     0.900000E-01   1.00800           0
     16613 MEMB     83       POPC     H10Y     HAL2     0.900000E-01   1.00800           0
     16614 MEMB     83       POPC     C311     CTL2    -0.180000       12.0110           0
     16615 MEMB     83       POPC     H11X     HAL2     0.900000E-01   1.00800           0
     16616 MEMB     83       POPC     H11Y     HAL2     0.900000E-01   1.00800           0
     16617 MEMB     83       POPC     C312     CTL2    -0.180000       12.0110           0
     16618 MEMB     83       POPC     H12X     HAL2     0.900000E-01   1.00800           0
     16619 MEMB     83       POPC     H12Y     HAL2     0.900000E-01   1.00800           0
     16620 MEMB     83       POPC     C313     CTL2    -0.180000       12.0110           0
     16621 MEMB     83       POPC     H13X     HAL2     0.900000E-01   1.00800           0
     16622 MEMB     83       POPC     H13Y     HAL2     0.900000E-01   1.00800           0
     16623 MEMB     83       POPC     C314     CTL2    -0.180000       12.0110           0
     16624 MEMB     83       POPC     H14X     HAL2     0.900000E-01   1.00800           0
     16625 MEMB     83       POPC     H14Y     HAL2     0.900000E-01   1.00800           0
     16626 MEMB     83       POPC     C315     CTL2    -0.180000       12.0110           0
     16627 MEMB     83       POPC     H15X     HAL2     0.900000E-01   1.00800           0
     16628 MEMB     83       POPC     H15Y     HAL2     0.900000E-01   1.00800           0
     16629 MEMB     83       POPC     C316     CTL3    -0.270000       12.0110           0
     16630 MEMB     83       POPC     H16X     HAL3     0.900000E-01   1.00800           0
     16631 MEMB     83       POPC     H16Y     HAL3     0.900000E-01   1.00800           0
     16632 MEMB     83       POPC     H16Z     HAL3     0.900000E-01   1.00800           0
     16633 MEMB     86       POPC     N        NTL     -0.600000       14.0070           0
     16634 MEMB     86       POPC     C12      CTL2    -0.100000       12.0110           0
     16635 MEMB     86       POPC     H12A     HL       0.250000       1.00800           0
     16636 MEMB     86       POPC     H12B     HL       0.250000       1.00800           0
     16637 MEMB     86       POPC     C13      CTL5    -0.350000       12.0110           0
     16638 MEMB     86       POPC     H13A     HL       0.250000       1.00800           0
     16639 MEMB     86       POPC     H13B     HL       0.250000       1.00800           0
     16640 MEMB     86       POPC     H13C     HL       0.250000       1.00800           0
     16641 MEMB     86       POPC     C14      CTL5    -0.350000       12.0110           0
     16642 MEMB     86       POPC     H14A     HL       0.250000       1.00800           0
     16643 MEMB     86       POPC     H14B     HL       0.250000       1.00800           0
     16644 MEMB     86       POPC     H14C     HL       0.250000       1.00800           0
     16645 MEMB     86       POPC     C15      CTL5    -0.350000       12.0110           0
     16646 MEMB     86       POPC     H15A     HL       0.250000       1.00800           0
     16647 MEMB     86       POPC     H15B     HL       0.250000       1.00800           0
     16648 MEMB     86       POPC     H15C     HL       0.250000       1.00800           0
     16649 MEMB     86       POPC     C11      CTL2    -0.800000E-01   12.0110           0
     16650 MEMB     86       POPC     H11A     HAL2     0.900000E-01   1.00800           0
     16651 MEMB     86       POPC     H11B     HAL2     0.900000E-01   1.00800           0
     16652 MEMB     86       POPC     P        PL       1.500000       30.9740           0
     16653 MEMB     86       POPC     O13      O2L     -0.780000       15.9994           0
     16654 MEMB     86       POPC     O14      O2L     -0.780000       15.9994           0
     16655 MEMB     86       POPC     O12      OSLP    -0.570000       15.9994           0
     16656 MEMB     86       POPC     O11      OSLP    -0.570000       15.9994           0
     16657 MEMB     86       POPC     C1       CTL2    -0.800000E-01   12.0110           0
     16658 MEMB     86       POPC     HA       HAL2     0.900000E-01   1.00800           0
     16659 MEMB     86       POPC     HB       HAL2     0.900000E-01   1.00800           0
     16660 MEMB     86       POPC     C2       CTL1     0.170000       12.0110           0
     16661 MEMB     86       POPC     HS       HAL1     0.900000E-01   1.00800           0
     16662 MEMB     86       POPC     O21      OSL     -0.490000       15.9994           0
     16663 MEMB     86       POPC     C21      CL       0.900000       12.0110           0
     16664 MEMB     86       POPC     O22      OBL     -0.630000       15.9994           0
     16665 MEMB     86       POPC     C22      CTL2    -0.220000       12.0110           0
     16666 MEMB     86       POPC     H2R      HAL2     0.900000E-01   1.00800           0
     16667 MEMB     86       POPC     H2S      HAL2     0.900000E-01   1.00800           0
     16668 MEMB     86       POPC     C3       CTL2     0.800000E-01   12.0110           0
     16669 MEMB     86       POPC     HX       HAL2     0.900000E-01   1.00800           0
     16670 MEMB     86       POPC     HY       HAL2     0.900000E-01   1.00800           0
     16671 MEMB     86       POPC     O31      OSL     -0.490000       15.9994           0
     16672 MEMB     86       POPC     C31      CL       0.900000       12.0110           0
     16673 MEMB     86       POPC     O32      OBL     -0.630000       15.9994           0
     16674 MEMB     86       POPC     C32      CTL2    -0.220000       12.0110           0
     16675 MEMB     86       POPC     H2X      HAL2     0.900000E-01   1.00800           0
     16676 MEMB     86       POPC     H2Y      HAL2     0.900000E-01   1.00800           0
     16677 MEMB     86       POPC     C23      CTL2    -0.180000       12.0110           0
     16678 MEMB     86       POPC     H3R      HAL2     0.900000E-01   1.00800           0
     16679 MEMB     86       POPC     H3S      HAL2     0.900000E-01   1.00800           0
     16680 MEMB     86       POPC     C24      CTL2    -0.180000       12.0110           0
     16681 MEMB     86       POPC     H4R      HAL2     0.900000E-01   1.00800           0
     16682 MEMB     86       POPC     H4S      HAL2     0.900000E-01   1.00800           0
     16683 MEMB     86       POPC     C25      CTL2    -0.180000       12.0110           0
     16684 MEMB     86       POPC     H5R      HAL2     0.900000E-01   1.00800           0
     16685 MEMB     86       POPC     H5S      HAL2     0.900000E-01   1.00800           0
     16686 MEMB     86       POPC     C26      CTL2    -0.180000       12.0110           0
     16687 MEMB     86       POPC     H6R      HAL2     0.900000E-01   1.00800           0
     16688 MEMB     86       POPC     H6S      HAL2     0.900000E-01   1.00800           0
     16689 MEMB     86       POPC     C27      CTL2    -0.180000       12.0110           0
     16690 MEMB     86       POPC     H7R      HAL2     0.900000E-01   1.00800           0
     16691 MEMB     86       POPC     H7S      HAL2     0.900000E-01   1.00800           0
     16692 MEMB     86       POPC     C28      CTL2    -0.180000       12.0110           0
     16693 MEMB     86       POPC     H8R      HAL2     0.900000E-01   1.00800           0
     16694 MEMB     86       POPC     H8S      HAL2     0.900000E-01   1.00800           0
     16695 MEMB     86       POPC     C29      CEL1    -0.150000       12.0110           0
     16696 MEMB     86       POPC     H91      HEL1     0.150000       1.00800           0
     16697 MEMB     86       POPC     C210     CEL1    -0.150000       12.0110           0
     16698 MEMB     86       POPC     H101     HEL1     0.150000       1.00800           0
     16699 MEMB     86       POPC     C211     CTL2    -0.180000       12.0110           0
     16700 MEMB     86       POPC     H11R     HAL2     0.900000E-01   1.00800           0
     16701 MEMB     86       POPC     H11S     HAL2     0.900000E-01   1.00800           0
     16702 MEMB     86       POPC     C212     CTL2    -0.180000       12.0110           0
     16703 MEMB     86       POPC     H12R     HAL2     0.900000E-01   1.00800           0
     16704 MEMB     86       POPC     H12S     HAL2     0.900000E-01   1.00800           0
     16705 MEMB     86       POPC     C213     CTL2    -0.180000       12.0110           0
     16706 MEMB     86       POPC     H13R     HAL2     0.900000E-01   1.00800           0
     16707 MEMB     86       POPC     H13S     HAL2     0.900000E-01   1.00800           0
     16708 MEMB     86       POPC     C214     CTL2    -0.180000       12.0110           0
     16709 MEMB     86       POPC     H14R     HAL2     0.900000E-01   1.00800           0
     16710 MEMB     86       POPC     H14S     HAL2     0.900000E-01   1.00800           0
     16711 MEMB     86       POPC     C215     CTL2    -0.180000       12.0110           0
     16712 MEMB     86       POPC     H15R     HAL2     0.900000E-01   1.00800           0
     16713 MEMB     86       POPC     H15S     HAL2     0.900000E-01   1.00800           0
     16714 MEMB     86       POPC     C216     CTL2    -0.180000       12.0110           0
     16715 MEMB     86       POPC     H16R     HAL2     0.900000E-01   1.00800           0
     16716 MEMB     86       POPC     H16S     HAL2     0.900000E-01   1.00800           0
     16717 MEMB     86       POPC     C217     CTL2    -0.180000       12.0110           0
     16718 MEMB     86       POPC     H17R     HAL2     0.900000E-01   1.00800           0
     16719 MEMB     86       POPC     H17S     HAL2     0.900000E-01   1.00800           0
     16720 MEMB     86       POPC     C218     CTL3    -0.270000       12.0110           0
     16721 MEMB     86       POPC     H18R     HAL3     0.900000E-01   1.00800           0
     16722 MEMB     86       POPC     H18S     HAL3     0.900000E-01   1.00800           0
     16723 MEMB     86       POPC     H18T     HAL3     0.900000E-01   1.00800           0
     16724 MEMB     86       POPC     C33      CTL2    -0.180000       12.0110           0
     16725 MEMB     86       POPC     H3X      HAL2     0.900000E-01   1.00800           0
     16726 MEMB     86       POPC     H3Y      HAL2     0.900000E-01   1.00800           0
     16727 MEMB     86       POPC     C34      CTL2    -0.180000       12.0110           0
     16728 MEMB     86       POPC     H4X      HAL2     0.900000E-01   1.00800           0
     16729 MEMB     86       POPC     H4Y      HAL2     0.900000E-01   1.00800           0
     16730 MEMB     86       POPC     C35      CTL2    -0.180000       12.0110           0
     16731 MEMB     86       POPC     H5X      HAL2     0.900000E-01   1.00800           0
     16732 MEMB     86       POPC     H5Y      HAL2     0.900000E-01   1.00800           0
     16733 MEMB     86       POPC     C36      CTL2    -0.180000       12.0110           0
     16734 MEMB     86       POPC     H6X      HAL2     0.900000E-01   1.00800           0
     16735 MEMB     86       POPC     H6Y      HAL2     0.900000E-01   1.00800           0
     16736 MEMB     86       POPC     C37      CTL2    -0.180000       12.0110           0
     16737 MEMB     86       POPC     H7X      HAL2     0.900000E-01   1.00800           0
     16738 MEMB     86       POPC     H7Y      HAL2     0.900000E-01   1.00800           0
     16739 MEMB     86       POPC     C38      CTL2    -0.180000       12.0110           0
     16740 MEMB     86       POPC     H8X      HAL2     0.900000E-01   1.00800           0
     16741 MEMB     86       POPC     H8Y      HAL2     0.900000E-01   1.00800           0
     16742 MEMB     86       POPC     C39      CTL2    -0.180000       12.0110           0
     16743 MEMB     86       POPC     H9X      HAL2     0.900000E-01   1.00800           0
     16744 MEMB     86       POPC     H9Y      HAL2     0.900000E-01   1.00800           0
     16745 MEMB     86       POPC     C310     CTL2    -0.180000       12.0110           0
     16746 MEMB     86       POPC     H10X     HAL2     0.900000E-01   1.00800           0
     16747 MEMB     86       POPC     H10Y     HAL2     0.900000E-01   1.00800           0
     16748 MEMB     86       POPC     C311     CTL2    -0.180000       12.0110           0
     16749 MEMB     86       POPC     H11X     HAL2     0.900000E-01   1.00800           0
     16750 MEMB     86       POPC     H11Y     HAL2     0.900000E-01   1.00800           0
     16751 MEMB     86       POPC     C312     CTL2    -0.180000       12.0110           0
     16752 MEMB     86       POPC     H12X     HAL2     0.900000E-01   1.00800           0
     16753 MEMB     86       POPC     H12Y     HAL2     0.900000E-01   1.00800           0
     16754 MEMB     86       POPC     C313     CTL2    -0.180000       12.0110           0
     16755 MEMB     86       POPC     H13X     HAL2     0.900000E-01   1.00800           0
     16756 MEMB     86       POPC     H13Y     HAL2     0.900000E-01   1.00800           0
     16757 MEMB     86       POPC     C314     CTL2    -0.180000       12.0110           0
     16758 MEMB     86       POPC     H14X     HAL2     0.900000E-01   1.00800           0
     16759 MEMB     86       POPC     H14Y     HAL2     0.900000E-01   1.00800           0
     16760 MEMB     86       POPC     C315     CTL2    -0.180000       12.0110           0
     16761 MEMB     86       POPC     H15X     HAL2     0.900000E-01   1.00800           0
     16762 MEMB     86       POPC     H15Y     HAL2     0.900000E-01   1.00800           0
     16763 MEMB     86       POPC     C316     CTL3    -0.270000       12.0110           0
     16764 MEMB     86       POPC     H16X     HAL3     0.900000E-01   1.00800           0
     16765 MEMB     86       POPC     H16Y     HAL3     0.900000E-01   1.00800           0
     16766 MEMB     86       POPC     H16Z     HAL3     0.900000E-01   1.00800           0
     16767 MEMB     87       POPC     N        NTL     -0.600000       14.0070           0
     16768 MEMB     87       POPC     C12      CTL2    -0.100000       12.0110           0
     16769 MEMB     87       POPC     H12A     HL       0.250000       1.00800           0
     16770 MEMB     87       POPC     H12B     HL       0.250000       1.00800           0
     16771 MEMB     87       POPC     C13      CTL5    -0.350000       12.0110           0
     16772 MEMB     87       POPC     H13A     HL       0.250000       1.00800           0
     16773 MEMB     87       POPC     H13B     HL       0.250000       1.00800           0
     16774 MEMB     87       POPC     H13C     HL       0.250000       1.00800           0
     16775 MEMB     87       POPC     C14      CTL5    -0.350000       12.0110           0
     16776 MEMB     87       POPC     H14A     HL       0.250000       1.00800           0
     16777 MEMB     87       POPC     H14B     HL       0.250000       1.00800           0
     16778 MEMB     87       POPC     H14C     HL       0.250000       1.00800           0
     16779 MEMB     87       POPC     C15      CTL5    -0.350000       12.0110           0
     16780 MEMB     87       POPC     H15A     HL       0.250000       1.00800           0
     16781 MEMB     87       POPC     H15B     HL       0.250000       1.00800           0
     16782 MEMB     87       POPC     H15C     HL       0.250000       1.00800           0
     16783 MEMB     87       POPC     C11      CTL2    -0.800000E-01   12.0110           0
     16784 MEMB     87       POPC     H11A     HAL2     0.900000E-01   1.00800           0
     16785 MEMB     87       POPC     H11B     HAL2     0.900000E-01   1.00800           0
     16786 MEMB     87       POPC     P        PL       1.500000       30.9740           0
     16787 MEMB     87       POPC     O13      O2L     -0.780000       15.9994           0
     16788 MEMB     87       POPC     O14      O2L     -0.780000       15.9994           0
     16789 MEMB     87       POPC     O12      OSLP    -0.570000       15.9994           0
     16790 MEMB     87       POPC     O11      OSLP    -0.570000       15.9994           0
     16791 MEMB     87       POPC     C1       CTL2    -0.800000E-01   12.0110           0
     16792 MEMB     87       POPC     HA       HAL2     0.900000E-01   1.00800           0
     16793 MEMB     87       POPC     HB       HAL2     0.900000E-01   1.00800           0
     16794 MEMB     87       POPC     C2       CTL1     0.170000       12.0110           0
     16795 MEMB     87       POPC     HS       HAL1     0.900000E-01   1.00800           0
     16796 MEMB     87       POPC     O21      OSL     -0.490000       15.9994           0
     16797 MEMB     87       POPC     C21      CL       0.900000       12.0110           0
     16798 MEMB     87       POPC     O22      OBL     -0.630000       15.9994           0
     16799 MEMB     87       POPC     C22      CTL2    -0.220000       12.0110           0
     16800 MEMB     87       POPC     H2R      HAL2     0.900000E-01   1.00800           0
     16801 MEMB     87       POPC     H2S      HAL2     0.900000E-01   1.00800           0
     16802 MEMB     87       POPC     C3       CTL2     0.800000E-01   12.0110           0
     16803 MEMB     87       POPC     HX       HAL2     0.900000E-01   1.00800           0
     16804 MEMB     87       POPC     HY       HAL2     0.900000E-01   1.00800           0
     16805 MEMB     87       POPC     O31      OSL     -0.490000       15.9994           0
     16806 MEMB     87       POPC     C31      CL       0.900000       12.0110           0
     16807 MEMB     87       POPC     O32      OBL     -0.630000       15.9994           0
     16808 MEMB     87       POPC     C32      CTL2    -0.220000       12.0110           0
     16809 MEMB     87       POPC     H2X      HAL2     0.900000E-01   1.00800           0
     16810 MEMB     87       POPC     H2Y      HAL2     0.900000E-01   1.00800           0
     16811 MEMB     87       POPC     C23      CTL2    -0.180000       12.0110           0
     16812 MEMB     87       POPC     H3R      HAL2     0.900000E-01   1.00800           0
     16813 MEMB     87       POPC     H3S      HAL2     0.900000E-01   1.00800           0
     16814 MEMB     87       POPC     C24      CTL2    -0.180000       12.0110           0
     16815 MEMB     87       POPC     H4R      HAL2     0.900000E-01   1.00800           0
     16816 MEMB     87       POPC     H4S      HAL2     0.900000E-01   1.00800           0
     16817 MEMB     87       POPC     C25      CTL2    -0.180000       12.0110           0
     16818 MEMB     87       POPC     H5R      HAL2     0.900000E-01   1.00800           0
     16819 MEMB     87       POPC     H5S      HAL2     0.900000E-01   1.00800           0
     16820 MEMB     87       POPC     C26      CTL2    -0.180000       12.0110           0
     16821 MEMB     87       POPC     H6R      HAL2     0.900000E-01   1.00800           0
     16822 MEMB     87       POPC     H6S      HAL2     0.900000E-01   1.00800           0
     16823 MEMB     87       POPC     C27      CTL2    -0.180000       12.0110           0
     16824 MEMB     87       POPC     H7R      HAL2     0.900000E-01   1.00800           0
     16825 MEMB     87       POPC     H7S      HAL2     0.900000E-01   1.00800           0
     16826 MEMB     87       POPC     C28      CTL2    -0.180000       12.0110           0
     16827 MEMB     87       POPC     H8R      HAL2     0.900000E-01   1.00800           0
     16828 MEMB     87       POPC     H8S      HAL2     0.900000E-01   1.00800           0
     16829 MEMB     87       POPC     C29      CEL1    -0.150000       12.0110           0
     16830 MEMB     87       POPC     H91      HEL1     0.150000       1.00800           0
     16831 MEMB     87       POPC     C210     CEL1    -0.150000       12.0110           0
     16832 MEMB     87       POPC     H101     HEL1     0.150000       1.00800           0
     16833 MEMB     87       POPC     C211     CTL2    -0.180000       12.0110           0
     16834 MEMB     87       POPC     H11R     HAL2     0.900000E-01   1.00800           0
     16835 MEMB     87       POPC     H11S     HAL2     0.900000E-01   1.00800           0
     16836 MEMB     87       POPC     C212     CTL2    -0.180000       12.0110           0
     16837 MEMB     87       POPC     H12R     HAL2     0.900000E-01   1.00800           0
     16838 MEMB     87       POPC     H12S     HAL2     0.900000E-01   1.00800           0
     16839 MEMB     87       POPC     C213     CTL2    -0.180000       12.0110           0
     16840 MEMB     87       POPC     H13R     HAL2     0.900000E-01   1.00800           0
     16841 MEMB     87       POPC     H13S     HAL2     0.900000E-01   1.00800           0
     16842 MEMB     87       POPC     C214     CTL2    -0.180000       12.0110           0
     16843 MEMB     87       POPC     H14R     HAL2     0.900000E-01   1.00800           0
     16844 MEMB     87       POPC     H14S     HAL2     0.900000E-01   1.00800           0
     16845 MEMB     87       POPC     C215     CTL2    -0.180000       12.0110           0
     16846 MEMB     87       POPC     H15R     HAL2     0.900000E-01   1.00800           0
     16847 MEMB     87       POPC     H15S     HAL2     0.900000E-01   1.00800           0
     16848 MEMB     87       POPC     C216     CTL2    -0.180000       12.0110           0
     16849 MEMB     87       POPC     H16R     HAL2     0.900000E-01   1.00800           0
     16850 MEMB     87       POPC     H16S     HAL2     0.900000E-01   1.00800           0
     16851 MEMB     87       POPC     C217     CTL2    -0.180000       12.0110           0
     16852 MEMB     87       POPC     H17R     HAL2     0.900000E-01   1.00800           0
     16853 MEMB     87       POPC     H17S     HAL2     0.900000E-01   1.00800           0
     16854 MEMB     87       POPC     C218     CTL3    -0.270000       12.0110           0
     16855 MEMB     87       POPC     H18R     HAL3     0.900000E-01   1.00800           0
     16856 MEMB     87       POPC     H18S     HAL3     0.900000E-01   1.00800           0
     16857 MEMB     87       POPC     H18T     HAL3     0.900000E-01   1.00800           0
     16858 MEMB     87       POPC     C33      CTL2    -0.180000       12.0110           0
     16859 MEMB     87       POPC     H3X      HAL2     0.900000E-01   1.00800           0
     16860 MEMB     87       POPC     H3Y      HAL2     0.900000E-01   1.00800           0
     16861 MEMB     87       POPC     C34      CTL2    -0.180000       12.0110           0
     16862 MEMB     87       POPC     H4X      HAL2     0.900000E-01   1.00800           0
     16863 MEMB     87       POPC     H4Y      HAL2     0.900000E-01   1.00800           0
     16864 MEMB     87       POPC     C35      CTL2    -0.180000       12.0110           0
     16865 MEMB     87       POPC     H5X      HAL2     0.900000E-01   1.00800           0
     16866 MEMB     87       POPC     H5Y      HAL2     0.900000E-01   1.00800           0
     16867 MEMB     87       POPC     C36      CTL2    -0.180000       12.0110           0
     16868 MEMB     87       POPC     H6X      HAL2     0.900000E-01   1.00800           0
     16869 MEMB     87       POPC     H6Y      HAL2     0.900000E-01   1.00800           0
     16870 MEMB     87       POPC     C37      CTL2    -0.180000       12.0110           0
     16871 MEMB     87       POPC     H7X      HAL2     0.900000E-01   1.00800           0
     16872 MEMB     87       POPC     H7Y      HAL2     0.900000E-01   1.00800           0
     16873 MEMB     87       POPC     C38      CTL2    -0.180000       12.0110           0
     16874 MEMB     87       POPC     H8X      HAL2     0.900000E-01   1.00800           0
     16875 MEMB     87       POPC     H8Y      HAL2     0.900000E-01   1.00800           0
     16876 MEMB     87       POPC     C39      CTL2    -0.180000       12.0110           0
     16877 MEMB     87       POPC     H9X      HAL2     0.900000E-01   1.00800           0
     16878 MEMB     87       POPC     H9Y      HAL2     0.900000E-01   1.00800           0
     16879 MEMB     87       POPC     C310     CTL2    -0.180000       12.0110           0
     16880 MEMB     87       POPC     H10X     HAL2     0.900000E-01   1.00800           0
     16881 MEMB     87       POPC     H10Y     HAL2     0.900000E-01   1.00800           0
     16882 MEMB     87       POPC     C311     CTL2    -0.180000       12.0110           0
     16883 MEMB     87       POPC     H11X     HAL2     0.900000E-01   1.00800           0
     16884 MEMB     87       POPC     H11Y     HAL2     0.900000E-01   1.00800           0
     16885 MEMB     87       POPC     C312     CTL2    -0.180000       12.0110           0
     16886 MEMB     87       POPC     H12X     HAL2     0.900000E-01   1.00800           0
     16887 MEMB     87       POPC     H12Y     HAL2     0.900000E-01   1.00800           0
     16888 MEMB     87       POPC     C313     CTL2    -0.180000       12.0110           0
     16889 MEMB     87       POPC     H13X     HAL2     0.900000E-01   1.00800           0
     16890 MEMB     87       POPC     H13Y     HAL2     0.900000E-01   1.00800           0
     16891 MEMB     87       POPC     C314     CTL2    -0.180000       12.0110           0
     16892 MEMB     87       POPC     H14X     HAL2     0.900000E-01   1.00800           0
     16893 MEMB     87       POPC     H14Y     HAL2     0.900000E-01   1.00800           0
     16894 MEMB     87       POPC     C315     CTL2    -0.180000       12.0110           0
     16895 MEMB     87       POPC     H15X     HAL2     0.900000E-01   1.00800           0
     16896 MEMB     87       POPC     H15Y     HAL2     0.900000E-01   1.00800           0
     16897 MEMB     87       POPC     C316     CTL3    -0.270000       12.0110           0
     16898 MEMB     87       POPC     H16X     HAL3     0.900000E-01   1.00800           0
     16899 MEMB     87       POPC     H16Y     HAL3     0.900000E-01   1.00800           0
     16900 MEMB     87       POPC     H16Z     HAL3     0.900000E-01   1.00800           0
     16901 MEMB     88       POPC     N        NTL     -0.600000       14.0070           0
     16902 MEMB     88       POPC     C12      CTL2    -0.100000       12.0110           0
     16903 MEMB     88       POPC     H12A     HL       0.250000       1.00800           0
     16904 MEMB     88       POPC     H12B     HL       0.250000       1.00800           0
     16905 MEMB     88       POPC     C13      CTL5    -0.350000       12.0110           0
     16906 MEMB     88       POPC     H13A     HL       0.250000       1.00800           0
     16907 MEMB     88       POPC     H13B     HL       0.250000       1.00800           0
     16908 MEMB     88       POPC     H13C     HL       0.250000       1.00800           0
     16909 MEMB     88       POPC     C14      CTL5    -0.350000       12.0110           0
     16910 MEMB     88       POPC     H14A     HL       0.250000       1.00800           0
     16911 MEMB     88       POPC     H14B     HL       0.250000       1.00800           0
     16912 MEMB     88       POPC     H14C     HL       0.250000       1.00800           0
     16913 MEMB     88       POPC     C15      CTL5    -0.350000       12.0110           0
     16914 MEMB     88       POPC     H15A     HL       0.250000       1.00800           0
     16915 MEMB     88       POPC     H15B     HL       0.250000       1.00800           0
     16916 MEMB     88       POPC     H15C     HL       0.250000       1.00800           0
     16917 MEMB     88       POPC     C11      CTL2    -0.800000E-01   12.0110           0
     16918 MEMB     88       POPC     H11A     HAL2     0.900000E-01   1.00800           0
     16919 MEMB     88       POPC     H11B     HAL2     0.900000E-01   1.00800           0
     16920 MEMB     88       POPC     P        PL       1.500000       30.9740           0
     16921 MEMB     88       POPC     O13      O2L     -0.780000       15.9994           0
     16922 MEMB     88       POPC     O14      O2L     -0.780000       15.9994           0
     16923 MEMB     88       POPC     O12      OSLP    -0.570000       15.9994           0
     16924 MEMB     88       POPC     O11      OSLP    -0.570000       15.9994           0
     16925 MEMB     88       POPC     C1       CTL2    -0.800000E-01   12.0110           0
     16926 MEMB     88       POPC     HA       HAL2     0.900000E-01   1.00800           0
     16927 MEMB     88       POPC     HB       HAL2     0.900000E-01   1.00800           0
     16928 MEMB     88       POPC     C2       CTL1     0.170000       12.0110           0
     16929 MEMB     88       POPC     HS       HAL1     0.900000E-01   1.00800           0
     16930 MEMB     88       POPC     O21      OSL     -0.490000       15.9994           0
     16931 MEMB     88       POPC     C21      CL       0.900000       12.0110           0
     16932 MEMB     88       POPC     O22      OBL     -0.630000       15.9994           0
     16933 MEMB     88       POPC     C22      CTL2    -0.220000       12.0110           0
     16934 MEMB     88       POPC     H2R      HAL2     0.900000E-01   1.00800           0
     16935 MEMB     88       POPC     H2S      HAL2     0.900000E-01   1.00800           0
     16936 MEMB     88       POPC     C3       CTL2     0.800000E-01   12.0110           0
     16937 MEMB     88       POPC     HX       HAL2     0.900000E-01   1.00800           0
     16938 MEMB     88       POPC     HY       HAL2     0.900000E-01   1.00800           0
     16939 MEMB     88       POPC     O31      OSL     -0.490000       15.9994           0
     16940 MEMB     88       POPC     C31      CL       0.900000       12.0110           0
     16941 MEMB     88       POPC     O32      OBL     -0.630000       15.9994           0
     16942 MEMB     88       POPC     C32      CTL2    -0.220000       12.0110           0
     16943 MEMB     88       POPC     H2X      HAL2     0.900000E-01   1.00800           0
     16944 MEMB     88       POPC     H2Y      HAL2     0.900000E-01   1.00800           0
     16945 MEMB     88       POPC     C23      CTL2    -0.180000       12.0110           0
     16946 MEMB     88       POPC     H3R      HAL2     0.900000E-01   1.00800           0
     16947 MEMB     88       POPC     H3S      HAL2     0.900000E-01   1.00800           0
     16948 MEMB     88       POPC     C24      CTL2    -0.180000       12.0110           0
     16949 MEMB     88       POPC     H4R      HAL2     0.900000E-01   1.00800           0
     16950 MEMB     88       POPC     H4S      HAL2     0.900000E-01   1.00800           0
     16951 MEMB     88       POPC     C25      CTL2    -0.180000       12.0110           0
     16952 MEMB     88       POPC     H5R      HAL2     0.900000E-01   1.00800           0
     16953 MEMB     88       POPC     H5S      HAL2     0.900000E-01   1.00800           0
     16954 MEMB     88       POPC     C26      CTL2    -0.180000       12.0110           0
     16955 MEMB     88       POPC     H6R      HAL2     0.900000E-01   1.00800           0
     16956 MEMB     88       POPC     H6S      HAL2     0.900000E-01   1.00800           0
     16957 MEMB     88       POPC     C27      CTL2    -0.180000       12.0110           0
     16958 MEMB     88       POPC     H7R      HAL2     0.900000E-01   1.00800           0
     16959 MEMB     88       POPC     H7S      HAL2     0.900000E-01   1.00800           0
     16960 MEMB     88       POPC     C28      CTL2    -0.180000       12.0110           0
     16961 MEMB     88       POPC     H8R      HAL2     0.900000E-01   1.00800           0
     16962 MEMB     88       POPC     H8S      HAL2     0.900000E-01   1.00800           0
     16963 MEMB     88       POPC     C29      CEL1    -0.150000       12.0110           0
     16964 MEMB     88       POPC     H91      HEL1     0.150000       1.00800           0
     16965 MEMB     88       POPC     C210     CEL1    -0.150000       12.0110           0
     16966 MEMB     88       POPC     H101     HEL1     0.150000       1.00800           0
     16967 MEMB     88       POPC     C211     CTL2    -0.180000       12.0110           0
     16968 MEMB     88       POPC     H11R     HAL2     0.900000E-01   1.00800           0
     16969 MEMB     88       POPC     H11S     HAL2     0.900000E-01   1.00800           0
     16970 MEMB     88       POPC     C212     CTL2    -0.180000       12.0110           0
     16971 MEMB     88       POPC     H12R     HAL2     0.900000E-01   1.00800           0
     16972 MEMB     88       POPC     H12S     HAL2     0.900000E-01   1.00800           0
     16973 MEMB     88       POPC     C213     CTL2    -0.180000       12.0110           0
     16974 MEMB     88       POPC     H13R     HAL2     0.900000E-01   1.00800           0
     16975 MEMB     88       POPC     H13S     HAL2     0.900000E-01   1.00800           0
     16976 MEMB     88       POPC     C214     CTL2    -0.180000       12.0110           0
     16977 MEMB     88       POPC     H14R     HAL2     0.900000E-01   1.00800           0
     16978 MEMB     88       POPC     H14S     HAL2     0.900000E-01   1.00800           0
     16979 MEMB     88       POPC     C215     CTL2    -0.180000       12.0110           0
     16980 MEMB     88       POPC     H15R     HAL2     0.900000E-01   1.00800           0
     16981 MEMB     88       POPC     H15S     HAL2     0.900000E-01   1.00800           0
     16982 MEMB     88       POPC     C216     CTL2    -0.180000       12.0110           0
     16983 MEMB     88       POPC     H16R     HAL2     0.900000E-01   1.00800           0
     16984 MEMB     88       POPC     H16S     HAL2     0.900000E-01   1.00800           0
     16985 MEMB     88       POPC     C217     CTL2    -0.180000       12.0110           0
     16986 MEMB     88       POPC     H17R     HAL2     0.900000E-01   1.00800           0
     16987 MEMB     88       POPC     H17S     HAL2     0.900000E-01   1.00800           0
     16988 MEMB     88       POPC     C218     CTL3    -0.270000       12.0110           0
     16989 MEMB     88       POPC     H18R     HAL3     0.900000E-01   1.00800           0
     16990 MEMB     88       POPC     H18S     HAL3     0.900000E-01   1.00800           0
     16991 MEMB     88       POPC     H18T     HAL3     0.900000E-01   1.00800           0
     16992 MEMB     88       POPC     C33      CTL2    -0.180000       12.0110           0
     16993 MEMB     88       POPC     H3X      HAL2     0.900000E-01   1.00800           0
     16994 MEMB     88       POPC     H3Y      HAL2     0.900000E-01   1.00800           0
     16995 MEMB     88       POPC     C34      CTL2    -0.180000       12.0110           0
     16996 MEMB     88       POPC     H4X      HAL2     0.900000E-01   1.00800           0
     16997 MEMB     88       POPC     H4Y      HAL2     0.900000E-01   1.00800           0
     16998 MEMB     88       POPC     C35      CTL2    -0.180000       12.0110           0
     16999 MEMB     88       POPC     H5X      HAL2     0.900000E-01   1.00800           0
     17000 MEMB     88       POPC     H5Y      HAL2     0.900000E-01   1.00800           0
     17001 MEMB     88       POPC     C36      CTL2    -0.180000       12.0110           0
     17002 MEMB     88       POPC     H6X      HAL2     0.900000E-01   1.00800           0
     17003 MEMB     88       POPC     H6Y      HAL2     0.900000E-01   1.00800           0
     17004 MEMB     88       POPC     C37      CTL2    -0.180000       12.0110           0
     17005 MEMB     88       POPC     H7X      HAL2     0.900000E-01   1.00800           0
     17006 MEMB     88       POPC     H7Y      HAL2     0.900000E-01   1.00800           0
     17007 MEMB     88       POPC     C38      CTL2    -0.180000       12.0110           0
     17008 MEMB     88       POPC     H8X      HAL2     0.900000E-01   1.00800           0
     17009 MEMB     88       POPC     H8Y      HAL2     0.900000E-01   1.00800           0
     17010 MEMB     88       POPC     C39      CTL2    -0.180000       12.0110           0
     17011 MEMB     88       POPC     H9X      HAL2     0.900000E-01   1.00800           0
     17012 MEMB     88       POPC     H9Y      HAL2     0.900000E-01   1.00800           0
     17013 MEMB     88       POPC     C310     CTL2    -0.180000       12.0110           0
     17014 MEMB     88       POPC     H10X     HAL2     0.900000E-01   1.00800           0
     17015 MEMB     88       POPC     H10Y     HAL2     0.900000E-01   1.00800           0
     17016 MEMB     88       POPC     C311     CTL2    -0.180000       12.0110           0
     17017 MEMB     88       POPC     H11X     HAL2     0.900000E-01   1.00800           0
     17018 MEMB     88       POPC     H11Y     HAL2     0.900000E-01   1.00800           0
     17019 MEMB     88       POPC     C312     CTL2    -0.180000       12.0110           0
     17020 MEMB     88       POPC     H12X     HAL2     0.900000E-01   1.00800           0
     17021 MEMB     88       POPC     H12Y     HAL2     0.900000E-01   1.00800           0
     17022 MEMB     88       POPC     C313     CTL2    -0.180000       12.0110           0
     17023 MEMB     88       POPC     H13X     HAL2     0.900000E-01   1.00800           0
     17024 MEMB     88       POPC     H13Y     HAL2     0.900000E-01   1.00800           0
     17025 MEMB     88       POPC     C314     CTL2    -0.180000       12.0110           0
     17026 MEMB     88       POPC     H14X     HAL2     0.900000E-01   1.00800           0
     17027 MEMB     88       POPC     H14Y     HAL2     0.900000E-01   1.00800           0
     17028 MEMB     88       POPC     C315     CTL2    -0.180000       12.0110           0
     17029 MEMB     88       POPC     H15X     HAL2     0.900000E-01   1.00800           0
     17030 MEMB     88       POPC     H15Y     HAL2     0.900000E-01   1.00800           0
     17031 MEMB     88       POPC     C316     CTL3    -0.270000       12.0110           0
     17032 MEMB     88       POPC     H16X     HAL3     0.900000E-01   1.00800           0
     17033 MEMB     88       POPC     H16Y     HAL3     0.900000E-01   1.00800           0
     17034 MEMB     88       POPC     H16Z     HAL3     0.900000E-01   1.00800           0
     17035 MEMB     89       POPC     N        NTL     -0.600000       14.0070           0
     17036 MEMB     89       POPC     C12      CTL2    -0.100000       12.0110           0
     17037 MEMB     89       POPC     H12A     HL       0.250000       1.00800           0
     17038 MEMB     89       POPC     H12B     HL       0.250000       1.00800           0
     17039 MEMB     89       POPC     C13      CTL5    -0.350000       12.0110           0
     17040 MEMB     89       POPC     H13A     HL       0.250000       1.00800           0
     17041 MEMB     89       POPC     H13B     HL       0.250000       1.00800           0
     17042 MEMB     89       POPC     H13C     HL       0.250000       1.00800           0
     17043 MEMB     89       POPC     C14      CTL5    -0.350000       12.0110           0
     17044 MEMB     89       POPC     H14A     HL       0.250000       1.00800           0
     17045 MEMB     89       POPC     H14B     HL       0.250000       1.00800           0
     17046 MEMB     89       POPC     H14C     HL       0.250000       1.00800           0
     17047 MEMB     89       POPC     C15      CTL5    -0.350000       12.0110           0
     17048 MEMB     89       POPC     H15A     HL       0.250000       1.00800           0
     17049 MEMB     89       POPC     H15B     HL       0.250000       1.00800           0
     17050 MEMB     89       POPC     H15C     HL       0.250000       1.00800           0
     17051 MEMB     89       POPC     C11      CTL2    -0.800000E-01   12.0110           0
     17052 MEMB     89       POPC     H11A     HAL2     0.900000E-01   1.00800           0
     17053 MEMB     89       POPC     H11B     HAL2     0.900000E-01   1.00800           0
     17054 MEMB     89       POPC     P        PL       1.500000       30.9740           0
     17055 MEMB     89       POPC     O13      O2L     -0.780000       15.9994           0
     17056 MEMB     89       POPC     O14      O2L     -0.780000       15.9994           0
     17057 MEMB     89       POPC     O12      OSLP    -0.570000       15.9994           0
     17058 MEMB     89       POPC     O11      OSLP    -0.570000       15.9994           0
     17059 MEMB     89       POPC     C1       CTL2    -0.800000E-01   12.0110           0
     17060 MEMB     89       POPC     HA       HAL2     0.900000E-01   1.00800           0
     17061 MEMB     89       POPC     HB       HAL2     0.900000E-01   1.00800           0
     17062 MEMB     89       POPC     C2       CTL1     0.170000       12.0110           0
     17063 MEMB     89       POPC     HS       HAL1     0.900000E-01   1.00800           0
     17064 MEMB     89       POPC     O21      OSL     -0.490000       15.9994           0
     17065 MEMB     89       POPC     C21      CL       0.900000       12.0110           0
     17066 MEMB     89       POPC     O22      OBL     -0.630000       15.9994           0
     17067 MEMB     89       POPC     C22      CTL2    -0.220000       12.0110           0
     17068 MEMB     89       POPC     H2R      HAL2     0.900000E-01   1.00800           0
     17069 MEMB     89       POPC     H2S      HAL2     0.900000E-01   1.00800           0
     17070 MEMB     89       POPC     C3       CTL2     0.800000E-01   12.0110           0
     17071 MEMB     89       POPC     HX       HAL2     0.900000E-01   1.00800           0
     17072 MEMB     89       POPC     HY       HAL2     0.900000E-01   1.00800           0
     17073 MEMB     89       POPC     O31      OSL     -0.490000       15.9994           0
     17074 MEMB     89       POPC     C31      CL       0.900000       12.0110           0
     17075 MEMB     89       POPC     O32      OBL     -0.630000       15.9994           0
     17076 MEMB     89       POPC     C32      CTL2    -0.220000       12.0110           0
     17077 MEMB     89       POPC     H2X      HAL2     0.900000E-01   1.00800           0
     17078 MEMB     89       POPC     H2Y      HAL2     0.900000E-01   1.00800           0
     17079 MEMB     89       POPC     C23      CTL2    -0.180000       12.0110           0
     17080 MEMB     89       POPC     H3R      HAL2     0.900000E-01   1.00800           0
     17081 MEMB     89       POPC     H3S      HAL2     0.900000E-01   1.00800           0
     17082 MEMB     89       POPC     C24      CTL2    -0.180000       12.0110           0
     17083 MEMB     89       POPC     H4R      HAL2     0.900000E-01   1.00800           0
     17084 MEMB     89       POPC     H4S      HAL2     0.900000E-01   1.00800           0
     17085 MEMB     89       POPC     C25      CTL2    -0.180000       12.0110           0
     17086 MEMB     89       POPC     H5R      HAL2     0.900000E-01   1.00800           0
     17087 MEMB     89       POPC     H5S      HAL2     0.900000E-01   1.00800           0
     17088 MEMB     89       POPC     C26      CTL2    -0.180000       12.0110           0
     17089 MEMB     89       POPC     H6R      HAL2     0.900000E-01   1.00800           0
     17090 MEMB     89       POPC     H6S      HAL2     0.900000E-01   1.00800           0
     17091 MEMB     89       POPC     C27      CTL2    -0.180000       12.0110           0
     17092 MEMB     89       POPC     H7R      HAL2     0.900000E-01   1.00800           0
     17093 MEMB     89       POPC     H7S      HAL2     0.900000E-01   1.00800           0
     17094 MEMB     89       POPC     C28      CTL2    -0.180000       12.0110           0
     17095 MEMB     89       POPC     H8R      HAL2     0.900000E-01   1.00800           0
     17096 MEMB     89       POPC     H8S      HAL2     0.900000E-01   1.00800           0
     17097 MEMB     89       POPC     C29      CEL1    -0.150000       12.0110           0
     17098 MEMB     89       POPC     H91      HEL1     0.150000       1.00800           0
     17099 MEMB     89       POPC     C210     CEL1    -0.150000       12.0110           0
     17100 MEMB     89       POPC     H101     HEL1     0.150000       1.00800           0
     17101 MEMB     89       POPC     C211     CTL2    -0.180000       12.0110           0
     17102 MEMB     89       POPC     H11R     HAL2     0.900000E-01   1.00800           0
     17103 MEMB     89       POPC     H11S     HAL2     0.900000E-01   1.00800           0
     17104 MEMB     89       POPC     C212     CTL2    -0.180000       12.0110           0
     17105 MEMB     89       POPC     H12R     HAL2     0.900000E-01   1.00800           0
     17106 MEMB     89       POPC     H12S     HAL2     0.900000E-01   1.00800           0
     17107 MEMB     89       POPC     C213     CTL2    -0.180000       12.0110           0
     17108 MEMB     89       POPC     H13R     HAL2     0.900000E-01   1.00800           0
     17109 MEMB     89       POPC     H13S     HAL2     0.900000E-01   1.00800           0
     17110 MEMB     89       POPC     C214     CTL2    -0.180000       12.0110           0
     17111 MEMB     89       POPC     H14R     HAL2     0.900000E-01   1.00800           0
     17112 MEMB     89       POPC     H14S     HAL2     0.900000E-01   1.00800           0
     17113 MEMB     89       POPC     C215     CTL2    -0.180000       12.0110           0
     17114 MEMB     89       POPC     H15R     HAL2     0.900000E-01   1.00800           0
     17115 MEMB     89       POPC     H15S     HAL2     0.900000E-01   1.00800           0
     17116 MEMB     89       POPC     C216     CTL2    -0.180000       12.0110           0
     17117 MEMB     89       POPC     H16R     HAL2     0.900000E-01   1.00800           0
     17118 MEMB     89       POPC     H16S     HAL2     0.900000E-01   1.00800           0
     17119 MEMB     89       POPC     C217     CTL2    -0.180000       12.0110           0
     17120 MEMB     89       POPC     H17R     HAL2     0.900000E-01   1.00800           0
     17121 MEMB     89       POPC     H17S     HAL2     0.900000E-01   1.00800           0
     17122 MEMB     89       POPC     C218     CTL3    -0.270000       12.0110           0
     17123 MEMB     89       POPC     H18R     HAL3     0.900000E-01   1.00800           0
     17124 MEMB     89       POPC     H18S     HAL3     0.900000E-01   1.00800           0
     17125 MEMB     89       POPC     H18T     HAL3     0.900000E-01   1.00800           0
     17126 MEMB     89       POPC     C33      CTL2    -0.180000       12.0110           0
     17127 MEMB     89       POPC     H3X      HAL2     0.900000E-01   1.00800           0
     17128 MEMB     89       POPC     H3Y      HAL2     0.900000E-01   1.00800           0
     17129 MEMB     89       POPC     C34      CTL2    -0.180000       12.0110           0
     17130 MEMB     89       POPC     H4X      HAL2     0.900000E-01   1.00800           0
     17131 MEMB     89       POPC     H4Y      HAL2     0.900000E-01   1.00800           0
     17132 MEMB     89       POPC     C35      CTL2    -0.180000       12.0110           0
     17133 MEMB     89       POPC     H5X      HAL2     0.900000E-01   1.00800           0
     17134 MEMB     89       POPC     H5Y      HAL2     0.900000E-01   1.00800           0
     17135 MEMB     89       POPC     C36      CTL2    -0.180000       12.0110           0
     17136 MEMB     89       POPC     H6X      HAL2     0.900000E-01   1.00800           0
     17137 MEMB     89       POPC     H6Y      HAL2     0.900000E-01   1.00800           0
     17138 MEMB     89       POPC     C37      CTL2    -0.180000       12.0110           0
     17139 MEMB     89       POPC     H7X      HAL2     0.900000E-01   1.00800           0
     17140 MEMB     89       POPC     H7Y      HAL2     0.900000E-01   1.00800           0
     17141 MEMB     89       POPC     C38      CTL2    -0.180000       12.0110           0
     17142 MEMB     89       POPC     H8X      HAL2     0.900000E-01   1.00800           0
     17143 MEMB     89       POPC     H8Y      HAL2     0.900000E-01   1.00800           0
     17144 MEMB     89       POPC     C39      CTL2    -0.180000       12.0110           0
     17145 MEMB     89       POPC     H9X      HAL2     0.900000E-01   1.00800           0
     17146 MEMB     89       POPC     H9Y      HAL2     0.900000E-01   1.00800           0
     17147 MEMB     89       POPC     C310     CTL2    -0.180000       12.0110           0
     17148 MEMB     89       POPC     H10X     HAL2     0.900000E-01   1.00800           0
     17149 MEMB     89       POPC     H10Y     HAL2     0.900000E-01   1.00800           0
     17150 MEMB     89       POPC     C311     CTL2    -0.180000       12.0110           0
     17151 MEMB     89       POPC     H11X     HAL2     0.900000E-01   1.00800           0
     17152 MEMB     89       POPC     H11Y     HAL2     0.900000E-01   1.00800           0
     17153 MEMB     89       POPC     C312     CTL2    -0.180000       12.0110           0
     17154 MEMB     89       POPC     H12X     HAL2     0.900000E-01   1.00800           0
     17155 MEMB     89       POPC     H12Y     HAL2     0.900000E-01   1.00800           0
     17156 MEMB     89       POPC     C313     CTL2    -0.180000       12.0110           0
     17157 MEMB     89       POPC     H13X     HAL2     0.900000E-01   1.00800           0
     17158 MEMB     89       POPC     H13Y     HAL2     0.900000E-01   1.00800           0
     17159 MEMB     89       POPC     C314     CTL2    -0.180000       12.0110           0
     17160 MEMB     89       POPC     H14X     HAL2     0.900000E-01   1.00800           0
     17161 MEMB     89       POPC     H14Y     HAL2     0.900000E-01   1.00800           0
     17162 MEMB     89       POPC     C315     CTL2    -0.180000       12.0110           0
     17163 MEMB     89       POPC     H15X     HAL2     0.900000E-01   1.00800           0
     17164 MEMB     89       POPC     H15Y     HAL2     0.900000E-01   1.00800           0
     17165 MEMB     89       POPC     C316     CTL3    -0.270000       12.0110           0
     17166 MEMB     89       POPC     H16X     HAL3     0.900000E-01   1.00800           0
     17167 MEMB     89       POPC     H16Y     HAL3     0.900000E-01   1.00800           0
     17168 MEMB     89       POPC     H16Z     HAL3     0.900000E-01   1.00800           0
     17169 MEMB     91       POPC     N        NTL     -0.600000       14.0070           0
     17170 MEMB     91       POPC     C12      CTL2    -0.100000       12.0110           0
     17171 MEMB     91       POPC     H12A     HL       0.250000       1.00800           0
     17172 MEMB     91       POPC     H12B     HL       0.250000       1.00800           0
     17173 MEMB     91       POPC     C13      CTL5    -0.350000       12.0110           0
     17174 MEMB     91       POPC     H13A     HL       0.250000       1.00800           0
     17175 MEMB     91       POPC     H13B     HL       0.250000       1.00800           0
     17176 MEMB     91       POPC     H13C     HL       0.250000       1.00800           0
     17177 MEMB     91       POPC     C14      CTL5    -0.350000       12.0110           0
     17178 MEMB     91       POPC     H14A     HL       0.250000       1.00800           0
     17179 MEMB     91       POPC     H14B     HL       0.250000       1.00800           0
     17180 MEMB     91       POPC     H14C     HL       0.250000       1.00800           0
     17181 MEMB     91       POPC     C15      CTL5    -0.350000       12.0110           0
     17182 MEMB     91       POPC     H15A     HL       0.250000       1.00800           0
     17183 MEMB     91       POPC     H15B     HL       0.250000       1.00800           0
     17184 MEMB     91       POPC     H15C     HL       0.250000       1.00800           0
     17185 MEMB     91       POPC     C11      CTL2    -0.800000E-01   12.0110           0
     17186 MEMB     91       POPC     H11A     HAL2     0.900000E-01   1.00800           0
     17187 MEMB     91       POPC     H11B     HAL2     0.900000E-01   1.00800           0
     17188 MEMB     91       POPC     P        PL       1.500000       30.9740           0
     17189 MEMB     91       POPC     O13      O2L     -0.780000       15.9994           0
     17190 MEMB     91       POPC     O14      O2L     -0.780000       15.9994           0
     17191 MEMB     91       POPC     O12      OSLP    -0.570000       15.9994           0
     17192 MEMB     91       POPC     O11      OSLP    -0.570000       15.9994           0
     17193 MEMB     91       POPC     C1       CTL2    -0.800000E-01   12.0110           0
     17194 MEMB     91       POPC     HA       HAL2     0.900000E-01   1.00800           0
     17195 MEMB     91       POPC     HB       HAL2     0.900000E-01   1.00800           0
     17196 MEMB     91       POPC     C2       CTL1     0.170000       12.0110           0
     17197 MEMB     91       POPC     HS       HAL1     0.900000E-01   1.00800           0
     17198 MEMB     91       POPC     O21      OSL     -0.490000       15.9994           0
     17199 MEMB     91       POPC     C21      CL       0.900000       12.0110           0
     17200 MEMB     91       POPC     O22      OBL     -0.630000       15.9994           0
     17201 MEMB     91       POPC     C22      CTL2    -0.220000       12.0110           0
     17202 MEMB     91       POPC     H2R      HAL2     0.900000E-01   1.00800           0
     17203 MEMB     91       POPC     H2S      HAL2     0.900000E-01   1.00800           0
     17204 MEMB     91       POPC     C3       CTL2     0.800000E-01   12.0110           0
     17205 MEMB     91       POPC     HX       HAL2     0.900000E-01   1.00800           0
     17206 MEMB     91       POPC     HY       HAL2     0.900000E-01   1.00800           0
     17207 MEMB     91       POPC     O31      OSL     -0.490000       15.9994           0
     17208 MEMB     91       POPC     C31      CL       0.900000       12.0110           0
     17209 MEMB     91       POPC     O32      OBL     -0.630000       15.9994           0
     17210 MEMB     91       POPC     C32      CTL2    -0.220000       12.0110           0
     17211 MEMB     91       POPC     H2X      HAL2     0.900000E-01   1.00800           0
     17212 MEMB     91       POPC     H2Y      HAL2     0.900000E-01   1.00800           0
     17213 MEMB     91       POPC     C23      CTL2    -0.180000       12.0110           0
     17214 MEMB     91       POPC     H3R      HAL2     0.900000E-01   1.00800           0
     17215 MEMB     91       POPC     H3S      HAL2     0.900000E-01   1.00800           0
     17216 MEMB     91       POPC     C24      CTL2    -0.180000       12.0110           0
     17217 MEMB     91       POPC     H4R      HAL2     0.900000E-01   1.00800           0
     17218 MEMB     91       POPC     H4S      HAL2     0.900000E-01   1.00800           0
     17219 MEMB     91       POPC     C25      CTL2    -0.180000       12.0110           0
     17220 MEMB     91       POPC     H5R      HAL2     0.900000E-01   1.00800           0
     17221 MEMB     91       POPC     H5S      HAL2     0.900000E-01   1.00800           0
     17222 MEMB     91       POPC     C26      CTL2    -0.180000       12.0110           0
     17223 MEMB     91       POPC     H6R      HAL2     0.900000E-01   1.00800           0
     17224 MEMB     91       POPC     H6S      HAL2     0.900000E-01   1.00800           0
     17225 MEMB     91       POPC     C27      CTL2    -0.180000       12.0110           0
     17226 MEMB     91       POPC     H7R      HAL2     0.900000E-01   1.00800           0
     17227 MEMB     91       POPC     H7S      HAL2     0.900000E-01   1.00800           0
     17228 MEMB     91       POPC     C28      CTL2    -0.180000       12.0110           0
     17229 MEMB     91       POPC     H8R      HAL2     0.900000E-01   1.00800           0
     17230 MEMB     91       POPC     H8S      HAL2     0.900000E-01   1.00800           0
     17231 MEMB     91       POPC     C29      CEL1    -0.150000       12.0110           0
     17232 MEMB     91       POPC     H91      HEL1     0.150000       1.00800           0
     17233 MEMB     91       POPC     C210     CEL1    -0.150000       12.0110           0
     17234 MEMB     91       POPC     H101     HEL1     0.150000       1.00800           0
     17235 MEMB     91       POPC     C211     CTL2    -0.180000       12.0110           0
     17236 MEMB     91       POPC     H11R     HAL2     0.900000E-01   1.00800           0
     17237 MEMB     91       POPC     H11S     HAL2     0.900000E-01   1.00800           0
     17238 MEMB     91       POPC     C212     CTL2    -0.180000       12.0110           0
     17239 MEMB     91       POPC     H12R     HAL2     0.900000E-01   1.00800           0
     17240 MEMB     91       POPC     H12S     HAL2     0.900000E-01   1.00800           0
     17241 MEMB     91       POPC     C213     CTL2    -0.180000       12.0110           0
     17242 MEMB     91       POPC     H13R     HAL2     0.900000E-01   1.00800           0
     17243 MEMB     91       POPC     H13S     HAL2     0.900000E-01   1.00800           0
     17244 MEMB     91       POPC     C214     CTL2    -0.180000       12.0110           0
     17245 MEMB     91       POPC     H14R     HAL2     0.900000E-01   1.00800           0
     17246 MEMB     91       POPC     H14S     HAL2     0.900000E-01   1.00800           0
     17247 MEMB     91       POPC     C215     CTL2    -0.180000       12.0110           0
     17248 MEMB     91       POPC     H15R     HAL2     0.900000E-01   1.00800           0
     17249 MEMB     91       POPC     H15S     HAL2     0.900000E-01   1.00800           0
     17250 MEMB     91       POPC     C216     CTL2    -0.180000       12.0110           0
     17251 MEMB     91       POPC     H16R     HAL2     0.900000E-01   1.00800           0
     17252 MEMB     91       POPC     H16S     HAL2     0.900000E-01   1.00800           0
     17253 MEMB     91       POPC     C217     CTL2    -0.180000       12.0110           0
     17254 MEMB     91       POPC     H17R     HAL2     0.900000E-01   1.00800           0
     17255 MEMB     91       POPC     H17S     HAL2     0.900000E-01   1.00800           0
     17256 MEMB     91       POPC     C218     CTL3    -0.270000       12.0110           0
     17257 MEMB     91       POPC     H18R     HAL3     0.900000E-01   1.00800           0
     17258 MEMB     91       POPC     H18S     HAL3     0.900000E-01   1.00800           0
     17259 MEMB     91       POPC     H18T     HAL3     0.900000E-01   1.00800           0
     17260 MEMB     91       POPC     C33      CTL2    -0.180000       12.0110           0
     17261 MEMB     91       POPC     H3X      HAL2     0.900000E-01   1.00800           0
     17262 MEMB     91       POPC     H3Y      HAL2     0.900000E-01   1.00800           0
     17263 MEMB     91       POPC     C34      CTL2    -0.180000       12.0110           0
     17264 MEMB     91       POPC     H4X      HAL2     0.900000E-01   1.00800           0
     17265 MEMB     91       POPC     H4Y      HAL2     0.900000E-01   1.00800           0
     17266 MEMB     91       POPC     C35      CTL2    -0.180000       12.0110           0
     17267 MEMB     91       POPC     H5X      HAL2     0.900000E-01   1.00800           0
     17268 MEMB     91       POPC     H5Y      HAL2     0.900000E-01   1.00800           0
     17269 MEMB     91       POPC     C36      CTL2    -0.180000       12.0110           0
     17270 MEMB     91       POPC     H6X      HAL2     0.900000E-01   1.00800           0
     17271 MEMB     91       POPC     H6Y      HAL2     0.900000E-01   1.00800           0
     17272 MEMB     91       POPC     C37      CTL2    -0.180000       12.0110           0
     17273 MEMB     91       POPC     H7X      HAL2     0.900000E-01   1.00800           0
     17274 MEMB     91       POPC     H7Y      HAL2     0.900000E-01   1.00800           0
     17275 MEMB     91       POPC     C38      CTL2    -0.180000       12.0110           0
     17276 MEMB     91       POPC     H8X      HAL2     0.900000E-01   1.00800           0
     17277 MEMB     91       POPC     H8Y      HAL2     0.900000E-01   1.00800           0
     17278 MEMB     91       POPC     C39      CTL2    -0.180000       12.0110           0
     17279 MEMB     91       POPC     H9X      HAL2     0.900000E-01   1.00800           0
     17280 MEMB     91       POPC     H9Y      HAL2     0.900000E-01   1.00800           0
     17281 MEMB     91       POPC     C310     CTL2    -0.180000       12.0110           0
     17282 MEMB     91       POPC     H10X     HAL2     0.900000E-01   1.00800           0
     17283 MEMB     91       POPC     H10Y     HAL2     0.900000E-01   1.00800           0
     17284 MEMB     91       POPC     C311     CTL2    -0.180000       12.0110           0
     17285 MEMB     91       POPC     H11X     HAL2     0.900000E-01   1.00800           0
     17286 MEMB     91       POPC     H11Y     HAL2     0.900000E-01   1.00800           0
     17287 MEMB     91       POPC     C312     CTL2    -0.180000       12.0110           0
     17288 MEMB     91       POPC     H12X     HAL2     0.900000E-01   1.00800           0
     17289 MEMB     91       POPC     H12Y     HAL2     0.900000E-01   1.00800           0
     17290 MEMB     91       POPC     C313     CTL2    -0.180000       12.0110           0
     17291 MEMB     91       POPC     H13X     HAL2     0.900000E-01   1.00800           0
     17292 MEMB     91       POPC     H13Y     HAL2     0.900000E-01   1.00800           0
     17293 MEMB     91       POPC     C314     CTL2    -0.180000       12.0110           0
     17294 MEMB     91       POPC     H14X     HAL2     0.900000E-01   1.00800           0
     17295 MEMB     91       POPC     H14Y     HAL2     0.900000E-01   1.00800           0
     17296 MEMB     91       POPC     C315     CTL2    -0.180000       12.0110           0
     17297 MEMB     91       POPC     H15X     HAL2     0.900000E-01   1.00800           0
     17298 MEMB     91       POPC     H15Y     HAL2     0.900000E-01   1.00800           0
     17299 MEMB     91       POPC     C316     CTL3    -0.270000       12.0110           0
     17300 MEMB     91       POPC     H16X     HAL3     0.900000E-01   1.00800           0
     17301 MEMB     91       POPC     H16Y     HAL3     0.900000E-01   1.00800           0
     17302 MEMB     91       POPC     H16Z     HAL3     0.900000E-01   1.00800           0
     17303 MEMB     95       POPC     N        NTL     -0.600000       14.0070           0
     17304 MEMB     95       POPC     C12      CTL2    -0.100000       12.0110           0
     17305 MEMB     95       POPC     H12A     HL       0.250000       1.00800           0
     17306 MEMB     95       POPC     H12B     HL       0.250000       1.00800           0
     17307 MEMB     95       POPC     C13      CTL5    -0.350000       12.0110           0
     17308 MEMB     95       POPC     H13A     HL       0.250000       1.00800           0
     17309 MEMB     95       POPC     H13B     HL       0.250000       1.00800           0
     17310 MEMB     95       POPC     H13C     HL       0.250000       1.00800           0
     17311 MEMB     95       POPC     C14      CTL5    -0.350000       12.0110           0
     17312 MEMB     95       POPC     H14A     HL       0.250000       1.00800           0
     17313 MEMB     95       POPC     H14B     HL       0.250000       1.00800           0
     17314 MEMB     95       POPC     H14C     HL       0.250000       1.00800           0
     17315 MEMB     95       POPC     C15      CTL5    -0.350000       12.0110           0
     17316 MEMB     95       POPC     H15A     HL       0.250000       1.00800           0
     17317 MEMB     95       POPC     H15B     HL       0.250000       1.00800           0
     17318 MEMB     95       POPC     H15C     HL       0.250000       1.00800           0
     17319 MEMB     95       POPC     C11      CTL2    -0.800000E-01   12.0110           0
     17320 MEMB     95       POPC     H11A     HAL2     0.900000E-01   1.00800           0
     17321 MEMB     95       POPC     H11B     HAL2     0.900000E-01   1.00800           0
     17322 MEMB     95       POPC     P        PL       1.500000       30.9740           0
     17323 MEMB     95       POPC     O13      O2L     -0.780000       15.9994           0
     17324 MEMB     95       POPC     O14      O2L     -0.780000       15.9994           0
     17325 MEMB     95       POPC     O12      OSLP    -0.570000       15.9994           0
     17326 MEMB     95       POPC     O11      OSLP    -0.570000       15.9994           0
     17327 MEMB     95       POPC     C1       CTL2    -0.800000E-01   12.0110           0
     17328 MEMB     95       POPC     HA       HAL2     0.900000E-01   1.00800           0
     17329 MEMB     95       POPC     HB       HAL2     0.900000E-01   1.00800           0
     17330 MEMB     95       POPC     C2       CTL1     0.170000       12.0110           0
     17331 MEMB     95       POPC     HS       HAL1     0.900000E-01   1.00800           0
     17332 MEMB     95       POPC     O21      OSL     -0.490000       15.9994           0
     17333 MEMB     95       POPC     C21      CL       0.900000       12.0110           0
     17334 MEMB     95       POPC     O22      OBL     -0.630000       15.9994           0
     17335 MEMB     95       POPC     C22      CTL2    -0.220000       12.0110           0
     17336 MEMB     95       POPC     H2R      HAL2     0.900000E-01   1.00800           0
     17337 MEMB     95       POPC     H2S      HAL2     0.900000E-01   1.00800           0
     17338 MEMB     95       POPC     C3       CTL2     0.800000E-01   12.0110           0
     17339 MEMB     95       POPC     HX       HAL2     0.900000E-01   1.00800           0
     17340 MEMB     95       POPC     HY       HAL2     0.900000E-01   1.00800           0
     17341 MEMB     95       POPC     O31      OSL     -0.490000       15.9994           0
     17342 MEMB     95       POPC     C31      CL       0.900000       12.0110           0
     17343 MEMB     95       POPC     O32      OBL     -0.630000       15.9994           0
     17344 MEMB     95       POPC     C32      CTL2    -0.220000       12.0110           0
     17345 MEMB     95       POPC     H2X      HAL2     0.900000E-01   1.00800           0
     17346 MEMB     95       POPC     H2Y      HAL2     0.900000E-01   1.00800           0
     17347 MEMB     95       POPC     C23      CTL2    -0.180000       12.0110           0
     17348 MEMB     95       POPC     H3R      HAL2     0.900000E-01   1.00800           0
     17349 MEMB     95       POPC     H3S      HAL2     0.900000E-01   1.00800           0
     17350 MEMB     95       POPC     C24      CTL2    -0.180000       12.0110           0
     17351 MEMB     95       POPC     H4R      HAL2     0.900000E-01   1.00800           0
     17352 MEMB     95       POPC     H4S      HAL2     0.900000E-01   1.00800           0
     17353 MEMB     95       POPC     C25      CTL2    -0.180000       12.0110           0
     17354 MEMB     95       POPC     H5R      HAL2     0.900000E-01   1.00800           0
     17355 MEMB     95       POPC     H5S      HAL2     0.900000E-01   1.00800           0
     17356 MEMB     95       POPC     C26      CTL2    -0.180000       12.0110           0
     17357 MEMB     95       POPC     H6R      HAL2     0.900000E-01   1.00800           0
     17358 MEMB     95       POPC     H6S      HAL2     0.900000E-01   1.00800           0
     17359 MEMB     95       POPC     C27      CTL2    -0.180000       12.0110           0
     17360 MEMB     95       POPC     H7R      HAL2     0.900000E-01   1.00800           0
     17361 MEMB     95       POPC     H7S      HAL2     0.900000E-01   1.00800           0
     17362 MEMB     95       POPC     C28      CTL2    -0.180000       12.0110           0
     17363 MEMB     95       POPC     H8R      HAL2     0.900000E-01   1.00800           0
     17364 MEMB     95       POPC     H8S      HAL2     0.900000E-01   1.00800           0
     17365 MEMB     95       POPC     C29      CEL1    -0.150000       12.0110           0
     17366 MEMB     95       POPC     H91      HEL1     0.150000       1.00800           0
     17367 MEMB     95       POPC     C210     CEL1    -0.150000       12.0110           0
     17368 MEMB     95       POPC     H101     HEL1     0.150000       1.00800           0
     17369 MEMB     95       POPC     C211     CTL2    -0.180000       12.0110           0
     17370 MEMB     95       POPC     H11R     HAL2     0.900000E-01   1.00800           0
     17371 MEMB     95       POPC     H11S     HAL2     0.900000E-01   1.00800           0
     17372 MEMB     95       POPC     C212     CTL2    -0.180000       12.0110           0
     17373 MEMB     95       POPC     H12R     HAL2     0.900000E-01   1.00800           0
     17374 MEMB     95       POPC     H12S     HAL2     0.900000E-01   1.00800           0
     17375 MEMB     95       POPC     C213     CTL2    -0.180000       12.0110           0
     17376 MEMB     95       POPC     H13R     HAL2     0.900000E-01   1.00800           0
     17377 MEMB     95       POPC     H13S     HAL2     0.900000E-01   1.00800           0
     17378 MEMB     95       POPC     C214     CTL2    -0.180000       12.0110           0
     17379 MEMB     95       POPC     H14R     HAL2     0.900000E-01   1.00800           0
     17380 MEMB     95       POPC     H14S     HAL2     0.900000E-01   1.00800           0
     17381 MEMB     95       POPC     C215     CTL2    -0.180000       12.0110           0
     17382 MEMB     95       POPC     H15R     HAL2     0.900000E-01   1.00800           0
     17383 MEMB     95       POPC     H15S     HAL2     0.900000E-01   1.00800           0
     17384 MEMB     95       POPC     C216     CTL2    -0.180000       12.0110           0
     17385 MEMB     95       POPC     H16R     HAL2     0.900000E-01   1.00800           0
     17386 MEMB     95       POPC     H16S     HAL2     0.900000E-01   1.00800           0
     17387 MEMB     95       POPC     C217     CTL2    -0.180000       12.0110           0
     17388 MEMB     95       POPC     H17R     HAL2     0.900000E-01   1.00800           0
     17389 MEMB     95       POPC     H17S     HAL2     0.900000E-01   1.00800           0
     17390 MEMB     95       POPC     C218     CTL3    -0.270000       12.0110           0
     17391 MEMB     95       POPC     H18R     HAL3     0.900000E-01   1.00800           0
     17392 MEMB     95       POPC     H18S     HAL3     0.900000E-01   1.00800           0
     17393 MEMB     95       POPC     H18T     HAL3     0.900000E-01   1.00800           0
     17394 MEMB     95       POPC     C33      CTL2    -0.180000       12.0110           0
     17395 MEMB     95       POPC     H3X      HAL2     0.900000E-01   1.00800           0
     17396 MEMB     95       POPC     H3Y      HAL2     0.900000E-01   1.00800           0
     17397 MEMB     95       POPC     C34      CTL2    -0.180000       12.0110           0
     17398 MEMB     95       POPC     H4X      HAL2     0.900000E-01   1.00800           0
     17399 MEMB     95       POPC     H4Y      HAL2     0.900000E-01   1.00800           0
     17400 MEMB     95       POPC     C35      CTL2    -0.180000       12.0110           0
     17401 MEMB     95       POPC     H5X      HAL2     0.900000E-01   1.00800           0
     17402 MEMB     95       POPC     H5Y      HAL2     0.900000E-01   1.00800           0
     17403 MEMB     95       POPC     C36      CTL2    -0.180000       12.0110           0
     17404 MEMB     95       POPC     H6X      HAL2     0.900000E-01   1.00800           0
     17405 MEMB     95       POPC     H6Y      HAL2     0.900000E-01   1.00800           0
     17406 MEMB     95       POPC     C37      CTL2    -0.180000       12.0110           0
     17407 MEMB     95       POPC     H7X      HAL2     0.900000E-01   1.00800           0
     17408 MEMB     95       POPC     H7Y      HAL2     0.900000E-01   1.00800           0
     17409 MEMB     95       POPC     C38      CTL2    -0.180000       12.0110           0
     17410 MEMB     95       POPC     H8X      HAL2     0.900000E-01   1.00800           0
     17411 MEMB     95       POPC     H8Y      HAL2     0.900000E-01   1.00800           0
     17412 MEMB     95       POPC     C39      CTL2    -0.180000       12.0110           0
     17413 MEMB     95       POPC     H9X      HAL2     0.900000E-01   1.00800           0
     17414 MEMB     95       POPC     H9Y      HAL2     0.900000E-01   1.00800           0
     17415 MEMB     95       POPC     C310     CTL2    -0.180000       12.0110           0
     17416 MEMB     95       POPC     H10X     HAL2     0.900000E-01   1.00800           0
     17417 MEMB     95       POPC     H10Y     HAL2     0.900000E-01   1.00800           0
     17418 MEMB     95       POPC     C311     CTL2    -0.180000       12.0110           0
     17419 MEMB     95       POPC     H11X     HAL2     0.900000E-01   1.00800           0
     17420 MEMB     95       POPC     H11Y     HAL2     0.900000E-01   1.00800           0
     17421 MEMB     95       POPC     C312     CTL2    -0.180000       12.0110           0
     17422 MEMB     95       POPC     H12X     HAL2     0.900000E-01   1.00800           0
     17423 MEMB     95       POPC     H12Y     HAL2     0.900000E-01   1.00800           0
     17424 MEMB     95       POPC     C313     CTL2    -0.180000       12.0110           0
     17425 MEMB     95       POPC     H13X     HAL2     0.900000E-01   1.00800           0
     17426 MEMB     95       POPC     H13Y     HAL2     0.900000E-01   1.00800           0
     17427 MEMB     95       POPC     C314     CTL2    -0.180000       12.0110           0
     17428 MEMB     95       POPC     H14X     HAL2     0.900000E-01   1.00800           0
     17429 MEMB     95       POPC     H14Y     HAL2     0.900000E-01   1.00800           0
     17430 MEMB     95       POPC     C315     CTL2    -0.180000       12.0110           0
     17431 MEMB     95       POPC     H15X     HAL2     0.900000E-01   1.00800           0
     17432 MEMB     95       POPC     H15Y     HAL2     0.900000E-01   1.00800           0
     17433 MEMB     95       POPC     C316     CTL3    -0.270000       12.0110           0
     17434 MEMB     95       POPC     H16X     HAL3     0.900000E-01   1.00800           0
     17435 MEMB     95       POPC     H16Y     HAL3     0.900000E-01   1.00800           0
     17436 MEMB     95       POPC     H16Z     HAL3     0.900000E-01   1.00800           0
     17437 MEMB     98       POPC     N        NTL     -0.600000       14.0070           0
     17438 MEMB     98       POPC     C12      CTL2    -0.100000       12.0110           0
     17439 MEMB     98       POPC     H12A     HL       0.250000       1.00800           0
     17440 MEMB     98       POPC     H12B     HL       0.250000       1.00800           0
     17441 MEMB     98       POPC     C13      CTL5    -0.350000       12.0110           0
     17442 MEMB     98       POPC     H13A     HL       0.250000       1.00800           0
     17443 MEMB     98       POPC     H13B     HL       0.250000       1.00800           0
     17444 MEMB     98       POPC     H13C     HL       0.250000       1.00800           0
     17445 MEMB     98       POPC     C14      CTL5    -0.350000       12.0110           0
     17446 MEMB     98       POPC     H14A     HL       0.250000       1.00800           0
     17447 MEMB     98       POPC     H14B     HL       0.250000       1.00800           0
     17448 MEMB     98       POPC     H14C     HL       0.250000       1.00800           0
     17449 MEMB     98       POPC     C15      CTL5    -0.350000       12.0110           0
     17450 MEMB     98       POPC     H15A     HL       0.250000       1.00800           0
     17451 MEMB     98       POPC     H15B     HL       0.250000       1.00800           0
     17452 MEMB     98       POPC     H15C     HL       0.250000       1.00800           0
     17453 MEMB     98       POPC     C11      CTL2    -0.800000E-01   12.0110           0
     17454 MEMB     98       POPC     H11A     HAL2     0.900000E-01   1.00800           0
     17455 MEMB     98       POPC     H11B     HAL2     0.900000E-01   1.00800           0
     17456 MEMB     98       POPC     P        PL       1.500000       30.9740           0
     17457 MEMB     98       POPC     O13      O2L     -0.780000       15.9994           0
     17458 MEMB     98       POPC     O14      O2L     -0.780000       15.9994           0
     17459 MEMB     98       POPC     O12      OSLP    -0.570000       15.9994           0
     17460 MEMB     98       POPC     O11      OSLP    -0.570000       15.9994           0
     17461 MEMB     98       POPC     C1       CTL2    -0.800000E-01   12.0110           0
     17462 MEMB     98       POPC     HA       HAL2     0.900000E-01   1.00800           0
     17463 MEMB     98       POPC     HB       HAL2     0.900000E-01   1.00800           0
     17464 MEMB     98       POPC     C2       CTL1     0.170000       12.0110           0
     17465 MEMB     98       POPC     HS       HAL1     0.900000E-01   1.00800           0
     17466 MEMB     98       POPC     O21      OSL     -0.490000       15.9994           0
     17467 MEMB     98       POPC     C21      CL       0.900000       12.0110           0
     17468 MEMB     98       POPC     O22      OBL     -0.630000       15.9994           0
     17469 MEMB     98       POPC     C22      CTL2    -0.220000       12.0110           0
     17470 MEMB     98       POPC     H2R      HAL2     0.900000E-01   1.00800           0
     17471 MEMB     98       POPC     H2S      HAL2     0.900000E-01   1.00800           0
     17472 MEMB     98       POPC     C3       CTL2     0.800000E-01   12.0110           0
     17473 MEMB     98       POPC     HX       HAL2     0.900000E-01   1.00800           0
     17474 MEMB     98       POPC     HY       HAL2     0.900000E-01   1.00800           0
     17475 MEMB     98       POPC     O31      OSL     -0.490000       15.9994           0
     17476 MEMB     98       POPC     C31      CL       0.900000       12.0110           0
     17477 MEMB     98       POPC     O32      OBL     -0.630000       15.9994           0
     17478 MEMB     98       POPC     C32      CTL2    -0.220000       12.0110           0
     17479 MEMB     98       POPC     H2X      HAL2     0.900000E-01   1.00800           0
     17480 MEMB     98       POPC     H2Y      HAL2     0.900000E-01   1.00800           0
     17481 MEMB     98       POPC     C23      CTL2    -0.180000       12.0110           0
     17482 MEMB     98       POPC     H3R      HAL2     0.900000E-01   1.00800           0
     17483 MEMB     98       POPC     H3S      HAL2     0.900000E-01   1.00800           0
     17484 MEMB     98       POPC     C24      CTL2    -0.180000       12.0110           0
     17485 MEMB     98       POPC     H4R      HAL2     0.900000E-01   1.00800           0
     17486 MEMB     98       POPC     H4S      HAL2     0.900000E-01   1.00800           0
     17487 MEMB     98       POPC     C25      CTL2    -0.180000       12.0110           0
     17488 MEMB     98       POPC     H5R      HAL2     0.900000E-01   1.00800           0
     17489 MEMB     98       POPC     H5S      HAL2     0.900000E-01   1.00800           0
     17490 MEMB     98       POPC     C26      CTL2    -0.180000       12.0110           0
     17491 MEMB     98       POPC     H6R      HAL2     0.900000E-01   1.00800           0
     17492 MEMB     98       POPC     H6S      HAL2     0.900000E-01   1.00800           0
     17493 MEMB     98       POPC     C27      CTL2    -0.180000       12.0110           0
     17494 MEMB     98       POPC     H7R      HAL2     0.900000E-01   1.00800           0
     17495 MEMB     98       POPC     H7S      HAL2     0.900000E-01   1.00800           0
     17496 MEMB     98       POPC     C28      CTL2    -0.180000       12.0110           0
     17497 MEMB     98       POPC     H8R      HAL2     0.900000E-01   1.00800           0
     17498 MEMB     98       POPC     H8S      HAL2     0.900000E-01   1.00800           0
     17499 MEMB     98       POPC     C29      CEL1    -0.150000       12.0110           0
     17500 MEMB     98       POPC     H91      HEL1     0.150000       1.00800           0
     17501 MEMB     98       POPC     C210     CEL1    -0.150000       12.0110           0
     17502 MEMB     98       POPC     H101     HEL1     0.150000       1.00800           0
     17503 MEMB     98       POPC     C211     CTL2    -0.180000       12.0110           0
     17504 MEMB     98       POPC     H11R     HAL2     0.900000E-01   1.00800           0
     17505 MEMB     98       POPC     H11S     HAL2     0.900000E-01   1.00800           0
     17506 MEMB     98       POPC     C212     CTL2    -0.180000       12.0110           0
     17507 MEMB     98       POPC     H12R     HAL2     0.900000E-01   1.00800           0
     17508 MEMB     98       POPC     H12S     HAL2     0.900000E-01   1.00800           0
     17509 MEMB     98       POPC     C213     CTL2    -0.180000       12.0110           0
     17510 MEMB     98       POPC     H13R     HAL2     0.900000E-01   1.00800           0
     17511 MEMB     98       POPC     H13S     HAL2     0.900000E-01   1.00800           0
     17512 MEMB     98       POPC     C214     CTL2    -0.180000       12.0110           0
     17513 MEMB     98       POPC     H14R     HAL2     0.900000E-01   1.00800           0
     17514 MEMB     98       POPC     H14S     HAL2     0.900000E-01   1.00800           0
     17515 MEMB     98       POPC     C215     CTL2    -0.180000       12.0110           0
     17516 MEMB     98       POPC     H15R     HAL2     0.900000E-01   1.00800           0
     17517 MEMB     98       POPC     H15S     HAL2     0.900000E-01   1.00800           0
     17518 MEMB     98       POPC     C216     CTL2    -0.180000       12.0110           0
     17519 MEMB     98       POPC     H16R     HAL2     0.900000E-01   1.00800           0
     17520 MEMB     98       POPC     H16S     HAL2     0.900000E-01   1.00800           0
     17521 MEMB     98       POPC     C217     CTL2    -0.180000       12.0110           0
     17522 MEMB     98       POPC     H17R     HAL2     0.900000E-01   1.00800           0
     17523 MEMB     98       POPC     H17S     HAL2     0.900000E-01   1.00800           0
     17524 MEMB     98       POPC     C218     CTL3    -0.270000       12.0110           0
     17525 MEMB     98       POPC     H18R     HAL3     0.900000E-01   1.00800           0
     17526 MEMB     98       POPC     H18S     HAL3     0.900000E-01   1.00800           0
     17527 MEMB     98       POPC     H18T     HAL3     0.900000E-01   1.00800           0
     17528 MEMB     98       POPC     C33      CTL2    -0.180000       12.0110           0
     17529 MEMB     98       POPC     H3X      HAL2     0.900000E-01   1.00800           0
     17530 MEMB     98       POPC     H3Y      HAL2     0.900000E-01   1.00800           0
     17531 MEMB     98       POPC     C34      CTL2    -0.180000       12.0110           0
     17532 MEMB     98       POPC     H4X      HAL2     0.900000E-01   1.00800           0
     17533 MEMB     98       POPC     H4Y      HAL2     0.900000E-01   1.00800           0
     17534 MEMB     98       POPC     C35      CTL2    -0.180000       12.0110           0
     17535 MEMB     98       POPC     H5X      HAL2     0.900000E-01   1.00800           0
     17536 MEMB     98       POPC     H5Y      HAL2     0.900000E-01   1.00800           0
     17537 MEMB     98       POPC     C36      CTL2    -0.180000       12.0110           0
     17538 MEMB     98       POPC     H6X      HAL2     0.900000E-01   1.00800           0
     17539 MEMB     98       POPC     H6Y      HAL2     0.900000E-01   1.00800           0
     17540 MEMB     98       POPC     C37      CTL2    -0.180000       12.0110           0
     17541 MEMB     98       POPC     H7X      HAL2     0.900000E-01   1.00800           0
     17542 MEMB     98       POPC     H7Y      HAL2     0.900000E-01   1.00800           0
     17543 MEMB     98       POPC     C38      CTL2    -0.180000       12.0110           0
     17544 MEMB     98       POPC     H8X      HAL2     0.900000E-01   1.00800           0
     17545 MEMB     98       POPC     H8Y      HAL2     0.900000E-01   1.00800           0
     17546 MEMB     98       POPC     C39      CTL2    -0.180000       12.0110           0
     17547 MEMB     98       POPC     H9X      HAL2     0.900000E-01   1.00800           0
     17548 MEMB     98       POPC     H9Y      HAL2     0.900000E-01   1.00800           0
     17549 MEMB     98       POPC     C310     CTL2    -0.180000       12.0110           0
     17550 MEMB     98       POPC     H10X     HAL2     0.900000E-01   1.00800           0
     17551 MEMB     98       POPC     H10Y     HAL2     0.900000E-01   1.00800           0
     17552 MEMB     98       POPC     C311     CTL2    -0.180000       12.0110           0
     17553 MEMB     98       POPC     H11X     HAL2     0.900000E-01   1.00800           0
     17554 MEMB     98       POPC     H11Y     HAL2     0.900000E-01   1.00800           0
     17555 MEMB     98       POPC     C312     CTL2    -0.180000       12.0110           0
     17556 MEMB     98       POPC     H12X     HAL2     0.900000E-01   1.00800           0
     17557 MEMB     98       POPC     H12Y     HAL2     0.900000E-01   1.00800           0
     17558 MEMB     98       POPC     C313     CTL2    -0.180000       12.0110           0
     17559 MEMB     98       POPC     H13X     HAL2     0.900000E-01   1.00800           0
     17560 MEMB     98       POPC     H13Y     HAL2     0.900000E-01   1.00800           0
     17561 MEMB     98       POPC     C314     CTL2    -0.180000       12.0110           0
     17562 MEMB     98       POPC     H14X     HAL2     0.900000E-01   1.00800           0
     17563 MEMB     98       POPC     H14Y     HAL2     0.900000E-01   1.00800           0
     17564 MEMB     98       POPC     C315     CTL2    -0.180000       12.0110           0
     17565 MEMB     98       POPC     H15X     HAL2     0.900000E-01   1.00800           0
     17566 MEMB     98       POPC     H15Y     HAL2     0.900000E-01   1.00800           0
     17567 MEMB     98       POPC     C316     CTL3    -0.270000       12.0110           0
     17568 MEMB     98       POPC     H16X     HAL3     0.900000E-01   1.00800           0
     17569 MEMB     98       POPC     H16Y     HAL3     0.900000E-01   1.00800           0
     17570 MEMB     98       POPC     H16Z     HAL3     0.900000E-01   1.00800           0
     17571 MEMB     103      POPC     N        NTL     -0.600000       14.0070           0
     17572 MEMB     103      POPC     C12      CTL2    -0.100000       12.0110           0
     17573 MEMB     103      POPC     H12A     HL       0.250000       1.00800           0
     17574 MEMB     103      POPC     H12B     HL       0.250000       1.00800           0
     17575 MEMB     103      POPC     C13      CTL5    -0.350000       12.0110           0
     17576 MEMB     103      POPC     H13A     HL       0.250000       1.00800           0
     17577 MEMB     103      POPC     H13B     HL       0.250000       1.00800           0
     17578 MEMB     103      POPC     H13C     HL       0.250000       1.00800           0
     17579 MEMB     103      POPC     C14      CTL5    -0.350000       12.0110           0
     17580 MEMB     103      POPC     H14A     HL       0.250000       1.00800           0
     17581 MEMB     103      POPC     H14B     HL       0.250000       1.00800           0
     17582 MEMB     103      POPC     H14C     HL       0.250000       1.00800           0
     17583 MEMB     103      POPC     C15      CTL5    -0.350000       12.0110           0
     17584 MEMB     103      POPC     H15A     HL       0.250000       1.00800           0
     17585 MEMB     103      POPC     H15B     HL       0.250000       1.00800           0
     17586 MEMB     103      POPC     H15C     HL       0.250000       1.00800           0
     17587 MEMB     103      POPC     C11      CTL2    -0.800000E-01   12.0110           0
     17588 MEMB     103      POPC     H11A     HAL2     0.900000E-01   1.00800           0
     17589 MEMB     103      POPC     H11B     HAL2     0.900000E-01   1.00800           0
     17590 MEMB     103      POPC     P        PL       1.500000       30.9740           0
     17591 MEMB     103      POPC     O13      O2L     -0.780000       15.9994           0
     17592 MEMB     103      POPC     O14      O2L     -0.780000       15.9994           0
     17593 MEMB     103      POPC     O12      OSLP    -0.570000       15.9994           0
     17594 MEMB     103      POPC     O11      OSLP    -0.570000       15.9994           0
     17595 MEMB     103      POPC     C1       CTL2    -0.800000E-01   12.0110           0
     17596 MEMB     103      POPC     HA       HAL2     0.900000E-01   1.00800           0
     17597 MEMB     103      POPC     HB       HAL2     0.900000E-01   1.00800           0
     17598 MEMB     103      POPC     C2       CTL1     0.170000       12.0110           0
     17599 MEMB     103      POPC     HS       HAL1     0.900000E-01   1.00800           0
     17600 MEMB     103      POPC     O21      OSL     -0.490000       15.9994           0
     17601 MEMB     103      POPC     C21      CL       0.900000       12.0110           0
     17602 MEMB     103      POPC     O22      OBL     -0.630000       15.9994           0
     17603 MEMB     103      POPC     C22      CTL2    -0.220000       12.0110           0
     17604 MEMB     103      POPC     H2R      HAL2     0.900000E-01   1.00800           0
     17605 MEMB     103      POPC     H2S      HAL2     0.900000E-01   1.00800           0
     17606 MEMB     103      POPC     C3       CTL2     0.800000E-01   12.0110           0
     17607 MEMB     103      POPC     HX       HAL2     0.900000E-01   1.00800           0
     17608 MEMB     103      POPC     HY       HAL2     0.900000E-01   1.00800           0
     17609 MEMB     103      POPC     O31      OSL     -0.490000       15.9994           0
     17610 MEMB     103      POPC     C31      CL       0.900000       12.0110           0
     17611 MEMB     103      POPC     O32      OBL     -0.630000       15.9994           0
     17612 MEMB     103      POPC     C32      CTL2    -0.220000       12.0110           0
     17613 MEMB     103      POPC     H2X      HAL2     0.900000E-01   1.00800           0
     17614 MEMB     103      POPC     H2Y      HAL2     0.900000E-01   1.00800           0
     17615 MEMB     103      POPC     C23      CTL2    -0.180000       12.0110           0
     17616 MEMB     103      POPC     H3R      HAL2     0.900000E-01   1.00800           0
     17617 MEMB     103      POPC     H3S      HAL2     0.900000E-01   1.00800           0
     17618 MEMB     103      POPC     C24      CTL2    -0.180000       12.0110           0
     17619 MEMB     103      POPC     H4R      HAL2     0.900000E-01   1.00800           0
     17620 MEMB     103      POPC     H4S      HAL2     0.900000E-01   1.00800           0
     17621 MEMB     103      POPC     C25      CTL2    -0.180000       12.0110           0
     17622 MEMB     103      POPC     H5R      HAL2     0.900000E-01   1.00800           0
     17623 MEMB     103      POPC     H5S      HAL2     0.900000E-01   1.00800           0
     17624 MEMB     103      POPC     C26      CTL2    -0.180000       12.0110           0
     17625 MEMB     103      POPC     H6R      HAL2     0.900000E-01   1.00800           0
     17626 MEMB     103      POPC     H6S      HAL2     0.900000E-01   1.00800           0
     17627 MEMB     103      POPC     C27      CTL2    -0.180000       12.0110           0
     17628 MEMB     103      POPC     H7R      HAL2     0.900000E-01   1.00800           0
     17629 MEMB     103      POPC     H7S      HAL2     0.900000E-01   1.00800           0
     17630 MEMB     103      POPC     C28      CTL2    -0.180000       12.0110           0
     17631 MEMB     103      POPC     H8R      HAL2     0.900000E-01   1.00800           0
     17632 MEMB     103      POPC     H8S      HAL2     0.900000E-01   1.00800           0
     17633 MEMB     103      POPC     C29      CEL1    -0.150000       12.0110           0
     17634 MEMB     103      POPC     H91      HEL1     0.150000       1.00800           0
     17635 MEMB     103      POPC     C210     CEL1    -0.150000       12.0110           0
     17636 MEMB     103      POPC     H101     HEL1     0.150000       1.00800           0
     17637 MEMB     103      POPC     C211     CTL2    -0.180000       12.0110           0
     17638 MEMB     103      POPC     H11R     HAL2     0.900000E-01   1.00800           0
     17639 MEMB     103      POPC     H11S     HAL2     0.900000E-01   1.00800           0
     17640 MEMB     103      POPC     C212     CTL2    -0.180000       12.0110           0
     17641 MEMB     103      POPC     H12R     HAL2     0.900000E-01   1.00800           0
     17642 MEMB     103      POPC     H12S     HAL2     0.900000E-01   1.00800           0
     17643 MEMB     103      POPC     C213     CTL2    -0.180000       12.0110           0
     17644 MEMB     103      POPC     H13R     HAL2     0.900000E-01   1.00800           0
     17645 MEMB     103      POPC     H13S     HAL2     0.900000E-01   1.00800           0
     17646 MEMB     103      POPC     C214     CTL2    -0.180000       12.0110           0
     17647 MEMB     103      POPC     H14R     HAL2     0.900000E-01   1.00800           0
     17648 MEMB     103      POPC     H14S     HAL2     0.900000E-01   1.00800           0
     17649 MEMB     103      POPC     C215     CTL2    -0.180000       12.0110           0
     17650 MEMB     103      POPC     H15R     HAL2     0.900000E-01   1.00800           0
     17651 MEMB     103      POPC     H15S     HAL2     0.900000E-01   1.00800           0
     17652 MEMB     103      POPC     C216     CTL2    -0.180000       12.0110           0
     17653 MEMB     103      POPC     H16R     HAL2     0.900000E-01   1.00800           0
     17654 MEMB     103      POPC     H16S     HAL2     0.900000E-01   1.00800           0
     17655 MEMB     103      POPC     C217     CTL2    -0.180000       12.0110           0
     17656 MEMB     103      POPC     H17R     HAL2     0.900000E-01   1.00800           0
     17657 MEMB     103      POPC     H17S     HAL2     0.900000E-01   1.00800           0
     17658 MEMB     103      POPC     C218     CTL3    -0.270000       12.0110           0
     17659 MEMB     103      POPC     H18R     HAL3     0.900000E-01   1.00800           0
     17660 MEMB     103      POPC     H18S     HAL3     0.900000E-01   1.00800           0
     17661 MEMB     103      POPC     H18T     HAL3     0.900000E-01   1.00800           0
     17662 MEMB     103      POPC     C33      CTL2    -0.180000       12.0110           0
     17663 MEMB     103      POPC     H3X      HAL2     0.900000E-01   1.00800           0
     17664 MEMB     103      POPC     H3Y      HAL2     0.900000E-01   1.00800           0
     17665 MEMB     103      POPC     C34      CTL2    -0.180000       12.0110           0
     17666 MEMB     103      POPC     H4X      HAL2     0.900000E-01   1.00800           0
     17667 MEMB     103      POPC     H4Y      HAL2     0.900000E-01   1.00800           0
     17668 MEMB     103      POPC     C35      CTL2    -0.180000       12.0110           0
     17669 MEMB     103      POPC     H5X      HAL2     0.900000E-01   1.00800           0
     17670 MEMB     103      POPC     H5Y      HAL2     0.900000E-01   1.00800           0
     17671 MEMB     103      POPC     C36      CTL2    -0.180000       12.0110           0
     17672 MEMB     103      POPC     H6X      HAL2     0.900000E-01   1.00800           0
     17673 MEMB     103      POPC     H6Y      HAL2     0.900000E-01   1.00800           0
     17674 MEMB     103      POPC     C37      CTL2    -0.180000       12.0110           0
     17675 MEMB     103      POPC     H7X      HAL2     0.900000E-01   1.00800           0
     17676 MEMB     103      POPC     H7Y      HAL2     0.900000E-01   1.00800           0
     17677 MEMB     103      POPC     C38      CTL2    -0.180000       12.0110           0
     17678 MEMB     103      POPC     H8X      HAL2     0.900000E-01   1.00800           0
     17679 MEMB     103      POPC     H8Y      HAL2     0.900000E-01   1.00800           0
     17680 MEMB     103      POPC     C39      CTL2    -0.180000       12.0110           0
     17681 MEMB     103      POPC     H9X      HAL2     0.900000E-01   1.00800           0
     17682 MEMB     103      POPC     H9Y      HAL2     0.900000E-01   1.00800           0
     17683 MEMB     103      POPC     C310     CTL2    -0.180000       12.0110           0
     17684 MEMB     103      POPC     H10X     HAL2     0.900000E-01   1.00800           0
     17685 MEMB     103      POPC     H10Y     HAL2     0.900000E-01   1.00800           0
     17686 MEMB     103      POPC     C311     CTL2    -0.180000       12.0110           0
     17687 MEMB     103      POPC     H11X     HAL2     0.900000E-01   1.00800           0
     17688 MEMB     103      POPC     H11Y     HAL2     0.900000E-01   1.00800           0
     17689 MEMB     103      POPC     C312     CTL2    -0.180000       12.0110           0
     17690 MEMB     103      POPC     H12X     HAL2     0.900000E-01   1.00800           0
     17691 MEMB     103      POPC     H12Y     HAL2     0.900000E-01   1.00800           0
     17692 MEMB     103      POPC     C313     CTL2    -0.180000       12.0110           0
     17693 MEMB     103      POPC     H13X     HAL2     0.900000E-01   1.00800           0
     17694 MEMB     103      POPC     H13Y     HAL2     0.900000E-01   1.00800           0
     17695 MEMB     103      POPC     C314     CTL2    -0.180000       12.0110           0
     17696 MEMB     103      POPC     H14X     HAL2     0.900000E-01   1.00800           0
     17697 MEMB     103      POPC     H14Y     HAL2     0.900000E-01   1.00800           0
     17698 MEMB     103      POPC     C315     CTL2    -0.180000       12.0110           0
     17699 MEMB     103      POPC     H15X     HAL2     0.900000E-01   1.00800           0
     17700 MEMB     103      POPC     H15Y     HAL2     0.900000E-01   1.00800           0
     17701 MEMB     103      POPC     C316     CTL3    -0.270000       12.0110           0
     17702 MEMB     103      POPC     H16X     HAL3     0.900000E-01   1.00800           0
     17703 MEMB     103      POPC     H16Y     HAL3     0.900000E-01   1.00800           0
     17704 MEMB     103      POPC     H16Z     HAL3     0.900000E-01   1.00800           0
     17705 MEMB     109      POPC     N        NTL     -0.600000       14.0070           0
     17706 MEMB     109      POPC     C12      CTL2    -0.100000       12.0110           0
     17707 MEMB     109      POPC     H12A     HL       0.250000       1.00800           0
     17708 MEMB     109      POPC     H12B     HL       0.250000       1.00800           0
     17709 MEMB     109      POPC     C13      CTL5    -0.350000       12.0110           0
     17710 MEMB     109      POPC     H13A     HL       0.250000       1.00800           0
     17711 MEMB     109      POPC     H13B     HL       0.250000       1.00800           0
     17712 MEMB     109      POPC     H13C     HL       0.250000       1.00800           0
     17713 MEMB     109      POPC     C14      CTL5    -0.350000       12.0110           0
     17714 MEMB     109      POPC     H14A     HL       0.250000       1.00800           0
     17715 MEMB     109      POPC     H14B     HL       0.250000       1.00800           0
     17716 MEMB     109      POPC     H14C     HL       0.250000       1.00800           0
     17717 MEMB     109      POPC     C15      CTL5    -0.350000       12.0110           0
     17718 MEMB     109      POPC     H15A     HL       0.250000       1.00800           0
     17719 MEMB     109      POPC     H15B     HL       0.250000       1.00800           0
     17720 MEMB     109      POPC     H15C     HL       0.250000       1.00800           0
     17721 MEMB     109      POPC     C11      CTL2    -0.800000E-01   12.0110           0
     17722 MEMB     109      POPC     H11A     HAL2     0.900000E-01   1.00800           0
     17723 MEMB     109      POPC     H11B     HAL2     0.900000E-01   1.00800           0
     17724 MEMB     109      POPC     P        PL       1.500000       30.9740           0
     17725 MEMB     109      POPC     O13      O2L     -0.780000       15.9994           0
     17726 MEMB     109      POPC     O14      O2L     -0.780000       15.9994           0
     17727 MEMB     109      POPC     O12      OSLP    -0.570000       15.9994           0
     17728 MEMB     109      POPC     O11      OSLP    -0.570000       15.9994           0
     17729 MEMB     109      POPC     C1       CTL2    -0.800000E-01   12.0110           0
     17730 MEMB     109      POPC     HA       HAL2     0.900000E-01   1.00800           0
     17731 MEMB     109      POPC     HB       HAL2     0.900000E-01   1.00800           0
     17732 MEMB     109      POPC     C2       CTL1     0.170000       12.0110           0
     17733 MEMB     109      POPC     HS       HAL1     0.900000E-01   1.00800           0
     17734 MEMB     109      POPC     O21      OSL     -0.490000       15.9994           0
     17735 MEMB     109      POPC     C21      CL       0.900000       12.0110           0
     17736 MEMB     109      POPC     O22      OBL     -0.630000       15.9994           0
     17737 MEMB     109      POPC     C22      CTL2    -0.220000       12.0110           0
     17738 MEMB     109      POPC     H2R      HAL2     0.900000E-01   1.00800           0
     17739 MEMB     109      POPC     H2S      HAL2     0.900000E-01   1.00800           0
     17740 MEMB     109      POPC     C3       CTL2     0.800000E-01   12.0110           0
     17741 MEMB     109      POPC     HX       HAL2     0.900000E-01   1.00800           0
     17742 MEMB     109      POPC     HY       HAL2     0.900000E-01   1.00800           0
     17743 MEMB     109      POPC     O31      OSL     -0.490000       15.9994           0
     17744 MEMB     109      POPC     C31      CL       0.900000       12.0110           0
     17745 MEMB     109      POPC     O32      OBL     -0.630000       15.9994           0
     17746 MEMB     109      POPC     C32      CTL2    -0.220000       12.0110           0
     17747 MEMB     109      POPC     H2X      HAL2     0.900000E-01   1.00800           0
     17748 MEMB     109      POPC     H2Y      HAL2     0.900000E-01   1.00800           0
     17749 MEMB     109      POPC     C23      CTL2    -0.180000       12.0110           0
     17750 MEMB     109      POPC     H3R      HAL2     0.900000E-01   1.00800           0
     17751 MEMB     109      POPC     H3S      HAL2     0.900000E-01   1.00800           0
     17752 MEMB     109      POPC     C24      CTL2    -0.180000       12.0110           0
     17753 MEMB     109      POPC     H4R      HAL2     0.900000E-01   1.00800           0
     17754 MEMB     109      POPC     H4S      HAL2     0.900000E-01   1.00800           0
     17755 MEMB     109      POPC     C25      CTL2    -0.180000       12.0110           0
     17756 MEMB     109      POPC     H5R      HAL2     0.900000E-01   1.00800           0
     17757 MEMB     109      POPC     H5S      HAL2     0.900000E-01   1.00800           0
     17758 MEMB     109      POPC     C26      CTL2    -0.180000       12.0110           0
     17759 MEMB     109      POPC     H6R      HAL2     0.900000E-01   1.00800           0
     17760 MEMB     109      POPC     H6S      HAL2     0.900000E-01   1.00800           0
     17761 MEMB     109      POPC     C27      CTL2    -0.180000       12.0110           0
     17762 MEMB     109      POPC     H7R      HAL2     0.900000E-01   1.00800           0
     17763 MEMB     109      POPC     H7S      HAL2     0.900000E-01   1.00800           0
     17764 MEMB     109      POPC     C28      CTL2    -0.180000       12.0110           0
     17765 MEMB     109      POPC     H8R      HAL2     0.900000E-01   1.00800           0
     17766 MEMB     109      POPC     H8S      HAL2     0.900000E-01   1.00800           0
     17767 MEMB     109      POPC     C29      CEL1    -0.150000       12.0110           0
     17768 MEMB     109      POPC     H91      HEL1     0.150000       1.00800           0
     17769 MEMB     109      POPC     C210     CEL1    -0.150000       12.0110           0
     17770 MEMB     109      POPC     H101     HEL1     0.150000       1.00800           0
     17771 MEMB     109      POPC     C211     CTL2    -0.180000       12.0110           0
     17772 MEMB     109      POPC     H11R     HAL2     0.900000E-01   1.00800           0
     17773 MEMB     109      POPC     H11S     HAL2     0.900000E-01   1.00800           0
     17774 MEMB     109      POPC     C212     CTL2    -0.180000       12.0110           0
     17775 MEMB     109      POPC     H12R     HAL2     0.900000E-01   1.00800           0
     17776 MEMB     109      POPC     H12S     HAL2     0.900000E-01   1.00800           0
     17777 MEMB     109      POPC     C213     CTL2    -0.180000       12.0110           0
     17778 MEMB     109      POPC     H13R     HAL2     0.900000E-01   1.00800           0
     17779 MEMB     109      POPC     H13S     HAL2     0.900000E-01   1.00800           0
     17780 MEMB     109      POPC     C214     CTL2    -0.180000       12.0110           0
     17781 MEMB     109      POPC     H14R     HAL2     0.900000E-01   1.00800           0
     17782 MEMB     109      POPC     H14S     HAL2     0.900000E-01   1.00800           0
     17783 MEMB     109      POPC     C215     CTL2    -0.180000       12.0110           0
     17784 MEMB     109      POPC     H15R     HAL2     0.900000E-01   1.00800           0
     17785 MEMB     109      POPC     H15S     HAL2     0.900000E-01   1.00800           0
     17786 MEMB     109      POPC     C216     CTL2    -0.180000       12.0110           0
     17787 MEMB     109      POPC     H16R     HAL2     0.900000E-01   1.00800           0
     17788 MEMB     109      POPC     H16S     HAL2     0.900000E-01   1.00800           0
     17789 MEMB     109      POPC     C217     CTL2    -0.180000       12.0110           0
     17790 MEMB     109      POPC     H17R     HAL2     0.900000E-01   1.00800           0
     17791 MEMB     109      POPC     H17S     HAL2     0.900000E-01   1.00800           0
     17792 MEMB     109      POPC     C218     CTL3    -0.270000       12.0110           0
     17793 MEMB     109      POPC     H18R     HAL3     0.900000E-01   1.00800           0
     17794 MEMB     109      POPC     H18S     HAL3     0.900000E-01   1.00800           0
     17795 MEMB     109      POPC     H18T     HAL3     0.900000E-01   1.00800           0
     17796 MEMB     109      POPC     C33      CTL2    -0.180000       12.0110           0
     17797 MEMB     109      POPC     H3X      HAL2     0.900000E-01   1.00800           0
     17798 MEMB     109      POPC     H3Y      HAL2     0.900000E-01   1.00800           0
     17799 MEMB     109      POPC     C34      CTL2    -0.180000       12.0110           0
     17800 MEMB     109      POPC     H4X      HAL2     0.900000E-01   1.00800           0
     17801 MEMB     109      POPC     H4Y      HAL2     0.900000E-01   1.00800           0
     17802 MEMB     109      POPC     C35      CTL2    -0.180000       12.0110           0
     17803 MEMB     109      POPC     H5X      HAL2     0.900000E-01   1.00800           0
     17804 MEMB     109      POPC     H5Y      HAL2     0.900000E-01   1.00800           0
     17805 MEMB     109      POPC     C36      CTL2    -0.180000       12.0110           0
     17806 MEMB     109      POPC     H6X      HAL2     0.900000E-01   1.00800           0
     17807 MEMB     109      POPC     H6Y      HAL2     0.900000E-01   1.00800           0
     17808 MEMB     109      POPC     C37      CTL2    -0.180000       12.0110           0
     17809 MEMB     109      POPC     H7X      HAL2     0.900000E-01   1.00800           0
     17810 MEMB     109      POPC     H7Y      HAL2     0.900000E-01   1.00800           0
     17811 MEMB     109      POPC     C38      CTL2    -0.180000       12.0110           0
     17812 MEMB     109      POPC     H8X      HAL2     0.900000E-01   1.00800           0
     17813 MEMB     109      POPC     H8Y      HAL2     0.900000E-01   1.00800           0
     17814 MEMB     109      POPC     C39      CTL2    -0.180000       12.0110           0
     17815 MEMB     109      POPC     H9X      HAL2     0.900000E-01   1.00800           0
     17816 MEMB     109      POPC     H9Y      HAL2     0.900000E-01   1.00800           0
     17817 MEMB     109      POPC     C310     CTL2    -0.180000       12.0110           0
     17818 MEMB     109      POPC     H10X     HAL2     0.900000E-01   1.00800           0
     17819 MEMB     109      POPC     H10Y     HAL2     0.900000E-01   1.00800           0
     17820 MEMB     109      POPC     C311     CTL2    -0.180000       12.0110           0
     17821 MEMB     109      POPC     H11X     HAL2     0.900000E-01   1.00800           0
     17822 MEMB     109      POPC     H11Y     HAL2     0.900000E-01   1.00800           0
     17823 MEMB     109      POPC     C312     CTL2    -0.180000       12.0110           0
     17824 MEMB     109      POPC     H12X     HAL2     0.900000E-01   1.00800           0
     17825 MEMB     109      POPC     H12Y     HAL2     0.900000E-01   1.00800           0
     17826 MEMB     109      POPC     C313     CTL2    -0.180000       12.0110           0
     17827 MEMB     109      POPC     H13X     HAL2     0.900000E-01   1.00800           0
     17828 MEMB     109      POPC     H13Y     HAL2     0.900000E-01   1.00800           0
     17829 MEMB     109      POPC     C314     CTL2    -0.180000       12.0110           0
     17830 MEMB     109      POPC     H14X     HAL2     0.900000E-01   1.00800           0
     17831 MEMB     109      POPC     H14Y     HAL2     0.900000E-01   1.00800           0
     17832 MEMB     109      POPC     C315     CTL2    -0.180000       12.0110           0
     17833 MEMB     109      POPC     H15X     HAL2     0.900000E-01   1.00800           0
     17834 MEMB     109      POPC     H15Y     HAL2     0.900000E-01   1.00800           0
     17835 MEMB     109      POPC     C316     CTL3    -0.270000       12.0110           0
     17836 MEMB     109      POPC     H16X     HAL3     0.900000E-01   1.00800           0
     17837 MEMB     109      POPC     H16Y     HAL3     0.900000E-01   1.00800           0
     17838 MEMB     109      POPC     H16Z     HAL3     0.900000E-01   1.00800           0
     17839 MEMB     110      POPC     N        NTL     -0.600000       14.0070           0
     17840 MEMB     110      POPC     C12      CTL2    -0.100000       12.0110           0
     17841 MEMB     110      POPC     H12A     HL       0.250000       1.00800           0
     17842 MEMB     110      POPC     H12B     HL       0.250000       1.00800           0
     17843 MEMB     110      POPC     C13      CTL5    -0.350000       12.0110           0
     17844 MEMB     110      POPC     H13A     HL       0.250000       1.00800           0
     17845 MEMB     110      POPC     H13B     HL       0.250000       1.00800           0
     17846 MEMB     110      POPC     H13C     HL       0.250000       1.00800           0
     17847 MEMB     110      POPC     C14      CTL5    -0.350000       12.0110           0
     17848 MEMB     110      POPC     H14A     HL       0.250000       1.00800           0
     17849 MEMB     110      POPC     H14B     HL       0.250000       1.00800           0
     17850 MEMB     110      POPC     H14C     HL       0.250000       1.00800           0
     17851 MEMB     110      POPC     C15      CTL5    -0.350000       12.0110           0
     17852 MEMB     110      POPC     H15A     HL       0.250000       1.00800           0
     17853 MEMB     110      POPC     H15B     HL       0.250000       1.00800           0
     17854 MEMB     110      POPC     H15C     HL       0.250000       1.00800           0
     17855 MEMB     110      POPC     C11      CTL2    -0.800000E-01   12.0110           0
     17856 MEMB     110      POPC     H11A     HAL2     0.900000E-01   1.00800           0
     17857 MEMB     110      POPC     H11B     HAL2     0.900000E-01   1.00800           0
     17858 MEMB     110      POPC     P        PL       1.500000       30.9740           0
     17859 MEMB     110      POPC     O13      O2L     -0.780000       15.9994           0
     17860 MEMB     110      POPC     O14      O2L     -0.780000       15.9994           0
     17861 MEMB     110      POPC     O12      OSLP    -0.570000       15.9994           0
     17862 MEMB     110      POPC     O11      OSLP    -0.570000       15.9994           0
     17863 MEMB     110      POPC     C1       CTL2    -0.800000E-01   12.0110           0
     17864 MEMB     110      POPC     HA       HAL2     0.900000E-01   1.00800           0
     17865 MEMB     110      POPC     HB       HAL2     0.900000E-01   1.00800           0
     17866 MEMB     110      POPC     C2       CTL1     0.170000       12.0110           0
     17867 MEMB     110      POPC     HS       HAL1     0.900000E-01   1.00800           0
     17868 MEMB     110      POPC     O21      OSL     -0.490000       15.9994           0
     17869 MEMB     110      POPC     C21      CL       0.900000       12.0110           0
     17870 MEMB     110      POPC     O22      OBL     -0.630000       15.9994           0
     17871 MEMB     110      POPC     C22      CTL2    -0.220000       12.0110           0
     17872 MEMB     110      POPC     H2R      HAL2     0.900000E-01   1.00800           0
     17873 MEMB     110      POPC     H2S      HAL2     0.900000E-01   1.00800           0
     17874 MEMB     110      POPC     C3       CTL2     0.800000E-01   12.0110           0
     17875 MEMB     110      POPC     HX       HAL2     0.900000E-01   1.00800           0
     17876 MEMB     110      POPC     HY       HAL2     0.900000E-01   1.00800           0
     17877 MEMB     110      POPC     O31      OSL     -0.490000       15.9994           0
     17878 MEMB     110      POPC     C31      CL       0.900000       12.0110           0
     17879 MEMB     110      POPC     O32      OBL     -0.630000       15.9994           0
     17880 MEMB     110      POPC     C32      CTL2    -0.220000       12.0110           0
     17881 MEMB     110      POPC     H2X      HAL2     0.900000E-01   1.00800           0
     17882 MEMB     110      POPC     H2Y      HAL2     0.900000E-01   1.00800           0
     17883 MEMB     110      POPC     C23      CTL2    -0.180000       12.0110           0
     17884 MEMB     110      POPC     H3R      HAL2     0.900000E-01   1.00800           0
     17885 MEMB     110      POPC     H3S      HAL2     0.900000E-01   1.00800           0
     17886 MEMB     110      POPC     C24      CTL2    -0.180000       12.0110           0
     17887 MEMB     110      POPC     H4R      HAL2     0.900000E-01   1.00800           0
     17888 MEMB     110      POPC     H4S      HAL2     0.900000E-01   1.00800           0
     17889 MEMB     110      POPC     C25      CTL2    -0.180000       12.0110           0
     17890 MEMB     110      POPC     H5R      HAL2     0.900000E-01   1.00800           0
     17891 MEMB     110      POPC     H5S      HAL2     0.900000E-01   1.00800           0
     17892 MEMB     110      POPC     C26      CTL2    -0.180000       12.0110           0
     17893 MEMB     110      POPC     H6R      HAL2     0.900000E-01   1.00800           0
     17894 MEMB     110      POPC     H6S      HAL2     0.900000E-01   1.00800           0
     17895 MEMB     110      POPC     C27      CTL2    -0.180000       12.0110           0
     17896 MEMB     110      POPC     H7R      HAL2     0.900000E-01   1.00800           0
     17897 MEMB     110      POPC     H7S      HAL2     0.900000E-01   1.00800           0
     17898 MEMB     110      POPC     C28      CTL2    -0.180000       12.0110           0
     17899 MEMB     110      POPC     H8R      HAL2     0.900000E-01   1.00800           0
     17900 MEMB     110      POPC     H8S      HAL2     0.900000E-01   1.00800           0
     17901 MEMB     110      POPC     C29      CEL1    -0.150000       12.0110           0
     17902 MEMB     110      POPC     H91      HEL1     0.150000       1.00800           0
     17903 MEMB     110      POPC     C210     CEL1    -0.150000       12.0110           0
     17904 MEMB     110      POPC     H101     HEL1     0.150000       1.00800           0
     17905 MEMB     110      POPC     C211     CTL2    -0.180000       12.0110           0
     17906 MEMB     110      POPC     H11R     HAL2     0.900000E-01   1.00800           0
     17907 MEMB     110      POPC     H11S     HAL2     0.900000E-01   1.00800           0
     17908 MEMB     110      POPC     C212     CTL2    -0.180000       12.0110           0
     17909 MEMB     110      POPC     H12R     HAL2     0.900000E-01   1.00800           0
     17910 MEMB     110      POPC     H12S     HAL2     0.900000E-01   1.00800           0
     17911 MEMB     110      POPC     C213     CTL2    -0.180000       12.0110           0
     17912 MEMB     110      POPC     H13R     HAL2     0.900000E-01   1.00800           0
     17913 MEMB     110      POPC     H13S     HAL2     0.900000E-01   1.00800           0
     17914 MEMB     110      POPC     C214     CTL2    -0.180000       12.0110           0
     17915 MEMB     110      POPC     H14R     HAL2     0.900000E-01   1.00800           0
     17916 MEMB     110      POPC     H14S     HAL2     0.900000E-01   1.00800           0
     17917 MEMB     110      POPC     C215     CTL2    -0.180000       12.0110           0
     17918 MEMB     110      POPC     H15R     HAL2     0.900000E-01   1.00800           0
     17919 MEMB     110      POPC     H15S     HAL2     0.900000E-01   1.00800           0
     17920 MEMB     110      POPC     C216     CTL2    -0.180000       12.0110           0
     17921 MEMB     110      POPC     H16R     HAL2     0.900000E-01   1.00800           0
     17922 MEMB     110      POPC     H16S     HAL2     0.900000E-01   1.00800           0
     17923 MEMB     110      POPC     C217     CTL2    -0.180000       12.0110           0
     17924 MEMB     110      POPC     H17R     HAL2     0.900000E-01   1.00800           0
     17925 MEMB     110      POPC     H17S     HAL2     0.900000E-01   1.00800           0
     17926 MEMB     110      POPC     C218     CTL3    -0.270000       12.0110           0
     17927 MEMB     110      POPC     H18R     HAL3     0.900000E-01   1.00800           0
     17928 MEMB     110      POPC     H18S     HAL3     0.900000E-01   1.00800           0
     17929 MEMB     110      POPC     H18T     HAL3     0.900000E-01   1.00800           0
     17930 MEMB     110      POPC     C33      CTL2    -0.180000       12.0110           0
     17931 MEMB     110      POPC     H3X      HAL2     0.900000E-01   1.00800           0
     17932 MEMB     110      POPC     H3Y      HAL2     0.900000E-01   1.00800           0
     17933 MEMB     110      POPC     C34      CTL2    -0.180000       12.0110           0
     17934 MEMB     110      POPC     H4X      HAL2     0.900000E-01   1.00800           0
     17935 MEMB     110      POPC     H4Y      HAL2     0.900000E-01   1.00800           0
     17936 MEMB     110      POPC     C35      CTL2    -0.180000       12.0110           0
     17937 MEMB     110      POPC     H5X      HAL2     0.900000E-01   1.00800           0
     17938 MEMB     110      POPC     H5Y      HAL2     0.900000E-01   1.00800           0
     17939 MEMB     110      POPC     C36      CTL2    -0.180000       12.0110           0
     17940 MEMB     110      POPC     H6X      HAL2     0.900000E-01   1.00800           0
     17941 MEMB     110      POPC     H6Y      HAL2     0.900000E-01   1.00800           0
     17942 MEMB     110      POPC     C37      CTL2    -0.180000       12.0110           0
     17943 MEMB     110      POPC     H7X      HAL2     0.900000E-01   1.00800           0
     17944 MEMB     110      POPC     H7Y      HAL2     0.900000E-01   1.00800           0
     17945 MEMB     110      POPC     C38      CTL2    -0.180000       12.0110           0
     17946 MEMB     110      POPC     H8X      HAL2     0.900000E-01   1.00800           0
     17947 MEMB     110      POPC     H8Y      HAL2     0.900000E-01   1.00800           0
     17948 MEMB     110      POPC     C39      CTL2    -0.180000       12.0110           0
     17949 MEMB     110      POPC     H9X      HAL2     0.900000E-01   1.00800           0
     17950 MEMB     110      POPC     H9Y      HAL2     0.900000E-01   1.00800           0
     17951 MEMB     110      POPC     C310     CTL2    -0.180000       12.0110           0
     17952 MEMB     110      POPC     H10X     HAL2     0.900000E-01   1.00800           0
     17953 MEMB     110      POPC     H10Y     HAL2     0.900000E-01   1.00800           0
     17954 MEMB     110      POPC     C311     CTL2    -0.180000       12.0110           0
     17955 MEMB     110      POPC     H11X     HAL2     0.900000E-01   1.00800           0
     17956 MEMB     110      POPC     H11Y     HAL2     0.900000E-01   1.00800           0
     17957 MEMB     110      POPC     C312     CTL2    -0.180000       12.0110           0
     17958 MEMB     110      POPC     H12X     HAL2     0.900000E-01   1.00800           0
     17959 MEMB     110      POPC     H12Y     HAL2     0.900000E-01   1.00800           0
     17960 MEMB     110      POPC     C313     CTL2    -0.180000       12.0110           0
     17961 MEMB     110      POPC     H13X     HAL2     0.900000E-01   1.00800           0
     17962 MEMB     110      POPC     H13Y     HAL2     0.900000E-01   1.00800           0
     17963 MEMB     110      POPC     C314     CTL2    -0.180000       12.0110           0
     17964 MEMB     110      POPC     H14X     HAL2     0.900000E-01   1.00800           0
     17965 MEMB     110      POPC     H14Y     HAL2     0.900000E-01   1.00800           0
     17966 MEMB     110      POPC     C315     CTL2    -0.180000       12.0110           0
     17967 MEMB     110      POPC     H15X     HAL2     0.900000E-01   1.00800           0
     17968 MEMB     110      POPC     H15Y     HAL2     0.900000E-01   1.00800           0
     17969 MEMB     110      POPC     C316     CTL3    -0.270000       12.0110           0
     17970 MEMB     110      POPC     H16X     HAL3     0.900000E-01   1.00800           0
     17971 MEMB     110      POPC     H16Y     HAL3     0.900000E-01   1.00800           0
     17972 MEMB     110      POPC     H16Z     HAL3     0.900000E-01   1.00800           0
     17973 MEMB     111      POPC     N        NTL     -0.600000       14.0070           0
     17974 MEMB     111      POPC     C12      CTL2    -0.100000       12.0110           0
     17975 MEMB     111      POPC     H12A     HL       0.250000       1.00800           0
     17976 MEMB     111      POPC     H12B     HL       0.250000       1.00800           0
     17977 MEMB     111      POPC     C13      CTL5    -0.350000       12.0110           0
     17978 MEMB     111      POPC     H13A     HL       0.250000       1.00800           0
     17979 MEMB     111      POPC     H13B     HL       0.250000       1.00800           0
     17980 MEMB     111      POPC     H13C     HL       0.250000       1.00800           0
     17981 MEMB     111      POPC     C14      CTL5    -0.350000       12.0110           0
     17982 MEMB     111      POPC     H14A     HL       0.250000       1.00800           0
     17983 MEMB     111      POPC     H14B     HL       0.250000       1.00800           0
     17984 MEMB     111      POPC     H14C     HL       0.250000       1.00800           0
     17985 MEMB     111      POPC     C15      CTL5    -0.350000       12.0110           0
     17986 MEMB     111      POPC     H15A     HL       0.250000       1.00800           0
     17987 MEMB     111      POPC     H15B     HL       0.250000       1.00800           0
     17988 MEMB     111      POPC     H15C     HL       0.250000       1.00800           0
     17989 MEMB     111      POPC     C11      CTL2    -0.800000E-01   12.0110           0
     17990 MEMB     111      POPC     H11A     HAL2     0.900000E-01   1.00800           0
     17991 MEMB     111      POPC     H11B     HAL2     0.900000E-01   1.00800           0
     17992 MEMB     111      POPC     P        PL       1.500000       30.9740           0
     17993 MEMB     111      POPC     O13      O2L     -0.780000       15.9994           0
     17994 MEMB     111      POPC     O14      O2L     -0.780000       15.9994           0
     17995 MEMB     111      POPC     O12      OSLP    -0.570000       15.9994           0
     17996 MEMB     111      POPC     O11      OSLP    -0.570000       15.9994           0
     17997 MEMB     111      POPC     C1       CTL2    -0.800000E-01   12.0110           0
     17998 MEMB     111      POPC     HA       HAL2     0.900000E-01   1.00800           0
     17999 MEMB     111      POPC     HB       HAL2     0.900000E-01   1.00800           0
     18000 MEMB     111      POPC     C2       CTL1     0.170000       12.0110           0
     18001 MEMB     111      POPC     HS       HAL1     0.900000E-01   1.00800           0
     18002 MEMB     111      POPC     O21      OSL     -0.490000       15.9994           0
     18003 MEMB     111      POPC     C21      CL       0.900000       12.0110           0
     18004 MEMB     111      POPC     O22      OBL     -0.630000       15.9994           0
     18005 MEMB     111      POPC     C22      CTL2    -0.220000       12.0110           0
     18006 MEMB     111      POPC     H2R      HAL2     0.900000E-01   1.00800           0
     18007 MEMB     111      POPC     H2S      HAL2     0.900000E-01   1.00800           0
     18008 MEMB     111      POPC     C3       CTL2     0.800000E-01   12.0110           0
     18009 MEMB     111      POPC     HX       HAL2     0.900000E-01   1.00800           0
     18010 MEMB     111      POPC     HY       HAL2     0.900000E-01   1.00800           0
     18011 MEMB     111      POPC     O31      OSL     -0.490000       15.9994           0
     18012 MEMB     111      POPC     C31      CL       0.900000       12.0110           0
     18013 MEMB     111      POPC     O32      OBL     -0.630000       15.9994           0
     18014 MEMB     111      POPC     C32      CTL2    -0.220000       12.0110           0
     18015 MEMB     111      POPC     H2X      HAL2     0.900000E-01   1.00800           0
     18016 MEMB     111      POPC     H2Y      HAL2     0.900000E-01   1.00800           0
     18017 MEMB     111      POPC     C23      CTL2    -0.180000       12.0110           0
     18018 MEMB     111      POPC     H3R      HAL2     0.900000E-01   1.00800           0
     18019 MEMB     111      POPC     H3S      HAL2     0.900000E-01   1.00800           0
     18020 MEMB     111      POPC     C24      CTL2    -0.180000       12.0110           0
     18021 MEMB     111      POPC     H4R      HAL2     0.900000E-01   1.00800           0
     18022 MEMB     111      POPC     H4S      HAL2     0.900000E-01   1.00800           0
     18023 MEMB     111      POPC     C25      CTL2    -0.180000       12.0110           0
     18024 MEMB     111      POPC     H5R      HAL2     0.900000E-01   1.00800           0
     18025 MEMB     111      POPC     H5S      HAL2     0.900000E-01   1.00800           0
     18026 MEMB     111      POPC     C26      CTL2    -0.180000       12.0110           0
     18027 MEMB     111      POPC     H6R      HAL2     0.900000E-01   1.00800           0
     18028 MEMB     111      POPC     H6S      HAL2     0.900000E-01   1.00800           0
     18029 MEMB     111      POPC     C27      CTL2    -0.180000       12.0110           0
     18030 MEMB     111      POPC     H7R      HAL2     0.900000E-01   1.00800           0
     18031 MEMB     111      POPC     H7S      HAL2     0.900000E-01   1.00800           0
     18032 MEMB     111      POPC     C28      CTL2    -0.180000       12.0110           0
     18033 MEMB     111      POPC     H8R      HAL2     0.900000E-01   1.00800           0
     18034 MEMB     111      POPC     H8S      HAL2     0.900000E-01   1.00800           0
     18035 MEMB     111      POPC     C29      CEL1    -0.150000       12.0110           0
     18036 MEMB     111      POPC     H91      HEL1     0.150000       1.00800           0
     18037 MEMB     111      POPC     C210     CEL1    -0.150000       12.0110           0
     18038 MEMB     111      POPC     H101     HEL1     0.150000       1.00800           0
     18039 MEMB     111      POPC     C211     CTL2    -0.180000       12.0110           0
     18040 MEMB     111      POPC     H11R     HAL2     0.900000E-01   1.00800           0
     18041 MEMB     111      POPC     H11S     HAL2     0.900000E-01   1.00800           0
     18042 MEMB     111      POPC     C212     CTL2    -0.180000       12.0110           0
     18043 MEMB     111      POPC     H12R     HAL2     0.900000E-01   1.00800           0
     18044 MEMB     111      POPC     H12S     HAL2     0.900000E-01   1.00800           0
     18045 MEMB     111      POPC     C213     CTL2    -0.180000       12.0110           0
     18046 MEMB     111      POPC     H13R     HAL2     0.900000E-01   1.00800           0
     18047 MEMB     111      POPC     H13S     HAL2     0.900000E-01   1.00800           0
     18048 MEMB     111      POPC     C214     CTL2    -0.180000       12.0110           0
     18049 MEMB     111      POPC     H14R     HAL2     0.900000E-01   1.00800           0
     18050 MEMB     111      POPC     H14S     HAL2     0.900000E-01   1.00800           0
     18051 MEMB     111      POPC     C215     CTL2    -0.180000       12.0110           0
     18052 MEMB     111      POPC     H15R     HAL2     0.900000E-01   1.00800           0
     18053 MEMB     111      POPC     H15S     HAL2     0.900000E-01   1.00800           0
     18054 MEMB     111      POPC     C216     CTL2    -0.180000       12.0110           0
     18055 MEMB     111      POPC     H16R     HAL2     0.900000E-01   1.00800           0
     18056 MEMB     111      POPC     H16S     HAL2     0.900000E-01   1.00800           0
     18057 MEMB     111      POPC     C217     CTL2    -0.180000       12.0110           0
     18058 MEMB     111      POPC     H17R     HAL2     0.900000E-01   1.00800           0
     18059 MEMB     111      POPC     H17S     HAL2     0.900000E-01   1.00800           0
     18060 MEMB     111      POPC     C218     CTL3    -0.270000       12.0110           0
     18061 MEMB     111      POPC     H18R     HAL3     0.900000E-01   1.00800           0
     18062 MEMB     111      POPC     H18S     HAL3     0.900000E-01   1.00800           0
     18063 MEMB     111      POPC     H18T     HAL3     0.900000E-01   1.00800           0
     18064 MEMB     111      POPC     C33      CTL2    -0.180000       12.0110           0
     18065 MEMB     111      POPC     H3X      HAL2     0.900000E-01   1.00800           0
     18066 MEMB     111      POPC     H3Y      HAL2     0.900000E-01   1.00800           0
     18067 MEMB     111      POPC     C34      CTL2    -0.180000       12.0110           0
     18068 MEMB     111      POPC     H4X      HAL2     0.900000E-01   1.00800           0
     18069 MEMB     111      POPC     H4Y      HAL2     0.900000E-01   1.00800           0
     18070 MEMB     111      POPC     C35      CTL2    -0.180000       12.0110           0
     18071 MEMB     111      POPC     H5X      HAL2     0.900000E-01   1.00800           0
     18072 MEMB     111      POPC     H5Y      HAL2     0.900000E-01   1.00800           0
     18073 MEMB     111      POPC     C36      CTL2    -0.180000       12.0110           0
     18074 MEMB     111      POPC     H6X      HAL2     0.900000E-01   1.00800           0
     18075 MEMB     111      POPC     H6Y      HAL2     0.900000E-01   1.00800           0
     18076 MEMB     111      POPC     C37      CTL2    -0.180000       12.0110           0
     18077 MEMB     111      POPC     H7X      HAL2     0.900000E-01   1.00800           0
     18078 MEMB     111      POPC     H7Y      HAL2     0.900000E-01   1.00800           0
     18079 MEMB     111      POPC     C38      CTL2    -0.180000       12.0110           0
     18080 MEMB     111      POPC     H8X      HAL2     0.900000E-01   1.00800           0
     18081 MEMB     111      POPC     H8Y      HAL2     0.900000E-01   1.00800           0
     18082 MEMB     111      POPC     C39      CTL2    -0.180000       12.0110           0
     18083 MEMB     111      POPC     H9X      HAL2     0.900000E-01   1.00800           0
     18084 MEMB     111      POPC     H9Y      HAL2     0.900000E-01   1.00800           0
     18085 MEMB     111      POPC     C310     CTL2    -0.180000       12.0110           0
     18086 MEMB     111      POPC     H10X     HAL2     0.900000E-01   1.00800           0
     18087 MEMB     111      POPC     H10Y     HAL2     0.900000E-01   1.00800           0
     18088 MEMB     111      POPC     C311     CTL2    -0.180000       12.0110           0
     18089 MEMB     111      POPC     H11X     HAL2     0.900000E-01   1.00800           0
     18090 MEMB     111      POPC     H11Y     HAL2     0.900000E-01   1.00800           0
     18091 MEMB     111      POPC     C312     CTL2    -0.180000       12.0110           0
     18092 MEMB     111      POPC     H12X     HAL2     0.900000E-01   1.00800           0
     18093 MEMB     111      POPC     H12Y     HAL2     0.900000E-01   1.00800           0
     18094 MEMB     111      POPC     C313     CTL2    -0.180000       12.0110           0
     18095 MEMB     111      POPC     H13X     HAL2     0.900000E-01   1.00800           0
     18096 MEMB     111      POPC     H13Y     HAL2     0.900000E-01   1.00800           0
     18097 MEMB     111      POPC     C314     CTL2    -0.180000       12.0110           0
     18098 MEMB     111      POPC     H14X     HAL2     0.900000E-01   1.00800           0
     18099 MEMB     111      POPC     H14Y     HAL2     0.900000E-01   1.00800           0
     18100 MEMB     111      POPC     C315     CTL2    -0.180000       12.0110           0
     18101 MEMB     111      POPC     H15X     HAL2     0.900000E-01   1.00800           0
     18102 MEMB     111      POPC     H15Y     HAL2     0.900000E-01   1.00800           0
     18103 MEMB     111      POPC     C316     CTL3    -0.270000       12.0110           0
     18104 MEMB     111      POPC     H16X     HAL3     0.900000E-01   1.00800           0
     18105 MEMB     111      POPC     H16Y     HAL3     0.900000E-01   1.00800           0
     18106 MEMB     111      POPC     H16Z     HAL3     0.900000E-01   1.00800           0
     18107 MEMB     112      POPC     N        NTL     -0.600000       14.0070           0
     18108 MEMB     112      POPC     C12      CTL2    -0.100000       12.0110           0
     18109 MEMB     112      POPC     H12A     HL       0.250000       1.00800           0
     18110 MEMB     112      POPC     H12B     HL       0.250000       1.00800           0
     18111 MEMB     112      POPC     C13      CTL5    -0.350000       12.0110           0
     18112 MEMB     112      POPC     H13A     HL       0.250000       1.00800           0
     18113 MEMB     112      POPC     H13B     HL       0.250000       1.00800           0
     18114 MEMB     112      POPC     H13C     HL       0.250000       1.00800           0
     18115 MEMB     112      POPC     C14      CTL5    -0.350000       12.0110           0
     18116 MEMB     112      POPC     H14A     HL       0.250000       1.00800           0
     18117 MEMB     112      POPC     H14B     HL       0.250000       1.00800           0
     18118 MEMB     112      POPC     H14C     HL       0.250000       1.00800           0
     18119 MEMB     112      POPC     C15      CTL5    -0.350000       12.0110           0
     18120 MEMB     112      POPC     H15A     HL       0.250000       1.00800           0
     18121 MEMB     112      POPC     H15B     HL       0.250000       1.00800           0
     18122 MEMB     112      POPC     H15C     HL       0.250000       1.00800           0
     18123 MEMB     112      POPC     C11      CTL2    -0.800000E-01   12.0110           0
     18124 MEMB     112      POPC     H11A     HAL2     0.900000E-01   1.00800           0
     18125 MEMB     112      POPC     H11B     HAL2     0.900000E-01   1.00800           0
     18126 MEMB     112      POPC     P        PL       1.500000       30.9740           0
     18127 MEMB     112      POPC     O13      O2L     -0.780000       15.9994           0
     18128 MEMB     112      POPC     O14      O2L     -0.780000       15.9994           0
     18129 MEMB     112      POPC     O12      OSLP    -0.570000       15.9994           0
     18130 MEMB     112      POPC     O11      OSLP    -0.570000       15.9994           0
     18131 MEMB     112      POPC     C1       CTL2    -0.800000E-01   12.0110           0
     18132 MEMB     112      POPC     HA       HAL2     0.900000E-01   1.00800           0
     18133 MEMB     112      POPC     HB       HAL2     0.900000E-01   1.00800           0
     18134 MEMB     112      POPC     C2       CTL1     0.170000       12.0110           0
     18135 MEMB     112      POPC     HS       HAL1     0.900000E-01   1.00800           0
     18136 MEMB     112      POPC     O21      OSL     -0.490000       15.9994           0
     18137 MEMB     112      POPC     C21      CL       0.900000       12.0110           0
     18138 MEMB     112      POPC     O22      OBL     -0.630000       15.9994           0
     18139 MEMB     112      POPC     C22      CTL2    -0.220000       12.0110           0
     18140 MEMB     112      POPC     H2R      HAL2     0.900000E-01   1.00800           0
     18141 MEMB     112      POPC     H2S      HAL2     0.900000E-01   1.00800           0
     18142 MEMB     112      POPC     C3       CTL2     0.800000E-01   12.0110           0
     18143 MEMB     112      POPC     HX       HAL2     0.900000E-01   1.00800           0
     18144 MEMB     112      POPC     HY       HAL2     0.900000E-01   1.00800           0
     18145 MEMB     112      POPC     O31      OSL     -0.490000       15.9994           0
     18146 MEMB     112      POPC     C31      CL       0.900000       12.0110           0
     18147 MEMB     112      POPC     O32      OBL     -0.630000       15.9994           0
     18148 MEMB     112      POPC     C32      CTL2    -0.220000       12.0110           0
     18149 MEMB     112      POPC     H2X      HAL2     0.900000E-01   1.00800           0
     18150 MEMB     112      POPC     H2Y      HAL2     0.900000E-01   1.00800           0
     18151 MEMB     112      POPC     C23      CTL2    -0.180000       12.0110           0
     18152 MEMB     112      POPC     H3R      HAL2     0.900000E-01   1.00800           0
     18153 MEMB     112      POPC     H3S      HAL2     0.900000E-01   1.00800           0
     18154 MEMB     112      POPC     C24      CTL2    -0.180000       12.0110           0
     18155 MEMB     112      POPC     H4R      HAL2     0.900000E-01   1.00800           0
     18156 MEMB     112      POPC     H4S      HAL2     0.900000E-01   1.00800           0
     18157 MEMB     112      POPC     C25      CTL2    -0.180000       12.0110           0
     18158 MEMB     112      POPC     H5R      HAL2     0.900000E-01   1.00800           0
     18159 MEMB     112      POPC     H5S      HAL2     0.900000E-01   1.00800           0
     18160 MEMB     112      POPC     C26      CTL2    -0.180000       12.0110           0
     18161 MEMB     112      POPC     H6R      HAL2     0.900000E-01   1.00800           0
     18162 MEMB     112      POPC     H6S      HAL2     0.900000E-01   1.00800           0
     18163 MEMB     112      POPC     C27      CTL2    -0.180000       12.0110           0
     18164 MEMB     112      POPC     H7R      HAL2     0.900000E-01   1.00800           0
     18165 MEMB     112      POPC     H7S      HAL2     0.900000E-01   1.00800           0
     18166 MEMB     112      POPC     C28      CTL2    -0.180000       12.0110           0
     18167 MEMB     112      POPC     H8R      HAL2     0.900000E-01   1.00800           0
     18168 MEMB     112      POPC     H8S      HAL2     0.900000E-01   1.00800           0
     18169 MEMB     112      POPC     C29      CEL1    -0.150000       12.0110           0
     18170 MEMB     112      POPC     H91      HEL1     0.150000       1.00800           0
     18171 MEMB     112      POPC     C210     CEL1    -0.150000       12.0110           0
     18172 MEMB     112      POPC     H101     HEL1     0.150000       1.00800           0
     18173 MEMB     112      POPC     C211     CTL2    -0.180000       12.0110           0
     18174 MEMB     112      POPC     H11R     HAL2     0.900000E-01   1.00800           0
     18175 MEMB     112      POPC     H11S     HAL2     0.900000E-01   1.00800           0
     18176 MEMB     112      POPC     C212     CTL2    -0.180000       12.0110           0
     18177 MEMB     112      POPC     H12R     HAL2     0.900000E-01   1.00800           0
     18178 MEMB     112      POPC     H12S     HAL2     0.900000E-01   1.00800           0
     18179 MEMB     112      POPC     C213     CTL2    -0.180000       12.0110           0
     18180 MEMB     112      POPC     H13R     HAL2     0.900000E-01   1.00800           0
     18181 MEMB     112      POPC     H13S     HAL2     0.900000E-01   1.00800           0
     18182 MEMB     112      POPC     C214     CTL2    -0.180000       12.0110           0
     18183 MEMB     112      POPC     H14R     HAL2     0.900000E-01   1.00800           0
     18184 MEMB     112      POPC     H14S     HAL2     0.900000E-01   1.00800           0
     18185 MEMB     112      POPC     C215     CTL2    -0.180000       12.0110           0
     18186 MEMB     112      POPC     H15R     HAL2     0.900000E-01   1.00800           0
     18187 MEMB     112      POPC     H15S     HAL2     0.900000E-01   1.00800           0
     18188 MEMB     112      POPC     C216     CTL2    -0.180000       12.0110           0
     18189 MEMB     112      POPC     H16R     HAL2     0.900000E-01   1.00800           0
     18190 MEMB     112      POPC     H16S     HAL2     0.900000E-01   1.00800           0
     18191 MEMB     112      POPC     C217     CTL2    -0.180000       12.0110           0
     18192 MEMB     112      POPC     H17R     HAL2     0.900000E-01   1.00800           0
     18193 MEMB     112      POPC     H17S     HAL2     0.900000E-01   1.00800           0
     18194 MEMB     112      POPC     C218     CTL3    -0.270000       12.0110           0
     18195 MEMB     112      POPC     H18R     HAL3     0.900000E-01   1.00800           0
     18196 MEMB     112      POPC     H18S     HAL3     0.900000E-01   1.00800           0
     18197 MEMB     112      POPC     H18T     HAL3     0.900000E-01   1.00800           0
     18198 MEMB     112      POPC     C33      CTL2    -0.180000       12.0110           0
     18199 MEMB     112      POPC     H3X      HAL2     0.900000E-01   1.00800           0
     18200 MEMB     112      POPC     H3Y      HAL2     0.900000E-01   1.00800           0
     18201 MEMB     112      POPC     C34      CTL2    -0.180000       12.0110           0
     18202 MEMB     112      POPC     H4X      HAL2     0.900000E-01   1.00800           0
     18203 MEMB     112      POPC     H4Y      HAL2     0.900000E-01   1.00800           0
     18204 MEMB     112      POPC     C35      CTL2    -0.180000       12.0110           0
     18205 MEMB     112      POPC     H5X      HAL2     0.900000E-01   1.00800           0
     18206 MEMB     112      POPC     H5Y      HAL2     0.900000E-01   1.00800           0
     18207 MEMB     112      POPC     C36      CTL2    -0.180000       12.0110           0
     18208 MEMB     112      POPC     H6X      HAL2     0.900000E-01   1.00800           0
     18209 MEMB     112      POPC     H6Y      HAL2     0.900000E-01   1.00800           0
     18210 MEMB     112      POPC     C37      CTL2    -0.180000       12.0110           0
     18211 MEMB     112      POPC     H7X      HAL2     0.900000E-01   1.00800           0
     18212 MEMB     112      POPC     H7Y      HAL2     0.900000E-01   1.00800           0
     18213 MEMB     112      POPC     C38      CTL2    -0.180000       12.0110           0
     18214 MEMB     112      POPC     H8X      HAL2     0.900000E-01   1.00800           0
     18215 MEMB     112      POPC     H8Y      HAL2     0.900000E-01   1.00800           0
     18216 MEMB     112      POPC     C39      CTL2    -0.180000       12.0110           0
     18217 MEMB     112      POPC     H9X      HAL2     0.900000E-01   1.00800           0
     18218 MEMB     112      POPC     H9Y      HAL2     0.900000E-01   1.00800           0
     18219 MEMB     112      POPC     C310     CTL2    -0.180000       12.0110           0
     18220 MEMB     112      POPC     H10X     HAL2     0.900000E-01   1.00800           0
     18221 MEMB     112      POPC     H10Y     HAL2     0.900000E-01   1.00800           0
     18222 MEMB     112      POPC     C311     CTL2    -0.180000       12.0110           0
     18223 MEMB     112      POPC     H11X     HAL2     0.900000E-01   1.00800           0
     18224 MEMB     112      POPC     H11Y     HAL2     0.900000E-01   1.00800           0
     18225 MEMB     112      POPC     C312     CTL2    -0.180000       12.0110           0
     18226 MEMB     112      POPC     H12X     HAL2     0.900000E-01   1.00800           0
     18227 MEMB     112      POPC     H12Y     HAL2     0.900000E-01   1.00800           0
     18228 MEMB     112      POPC     C313     CTL2    -0.180000       12.0110           0
     18229 MEMB     112      POPC     H13X     HAL2     0.900000E-01   1.00800           0
     18230 MEMB     112      POPC     H13Y     HAL2     0.900000E-01   1.00800           0
     18231 MEMB     112      POPC     C314     CTL2    -0.180000       12.0110           0
     18232 MEMB     112      POPC     H14X     HAL2     0.900000E-01   1.00800           0
     18233 MEMB     112      POPC     H14Y     HAL2     0.900000E-01   1.00800           0
     18234 MEMB     112      POPC     C315     CTL2    -0.180000       12.0110           0
     18235 MEMB     112      POPC     H15X     HAL2     0.900000E-01   1.00800           0
     18236 MEMB     112      POPC     H15Y     HAL2     0.900000E-01   1.00800           0
     18237 MEMB     112      POPC     C316     CTL3    -0.270000       12.0110           0
     18238 MEMB     112      POPC     H16X     HAL3     0.900000E-01   1.00800           0
     18239 MEMB     112      POPC     H16Y     HAL3     0.900000E-01   1.00800           0
     18240 MEMB     112      POPC     H16Z     HAL3     0.900000E-01   1.00800           0
     18241 MEMB     115      POPC     N        NTL     -0.600000       14.0070           0
     18242 MEMB     115      POPC     C12      CTL2    -0.100000       12.0110           0
     18243 MEMB     115      POPC     H12A     HL       0.250000       1.00800           0
     18244 MEMB     115      POPC     H12B     HL       0.250000       1.00800           0
     18245 MEMB     115      POPC     C13      CTL5    -0.350000       12.0110           0
     18246 MEMB     115      POPC     H13A     HL       0.250000       1.00800           0
     18247 MEMB     115      POPC     H13B     HL       0.250000       1.00800           0
     18248 MEMB     115      POPC     H13C     HL       0.250000       1.00800           0
     18249 MEMB     115      POPC     C14      CTL5    -0.350000       12.0110           0
     18250 MEMB     115      POPC     H14A     HL       0.250000       1.00800           0
     18251 MEMB     115      POPC     H14B     HL       0.250000       1.00800           0
     18252 MEMB     115      POPC     H14C     HL       0.250000       1.00800           0
     18253 MEMB     115      POPC     C15      CTL5    -0.350000       12.0110           0
     18254 MEMB     115      POPC     H15A     HL       0.250000       1.00800           0
     18255 MEMB     115      POPC     H15B     HL       0.250000       1.00800           0
     18256 MEMB     115      POPC     H15C     HL       0.250000       1.00800           0
     18257 MEMB     115      POPC     C11      CTL2    -0.800000E-01   12.0110           0
     18258 MEMB     115      POPC     H11A     HAL2     0.900000E-01   1.00800           0
     18259 MEMB     115      POPC     H11B     HAL2     0.900000E-01   1.00800           0
     18260 MEMB     115      POPC     P        PL       1.500000       30.9740           0
     18261 MEMB     115      POPC     O13      O2L     -0.780000       15.9994           0
     18262 MEMB     115      POPC     O14      O2L     -0.780000       15.9994           0
     18263 MEMB     115      POPC     O12      OSLP    -0.570000       15.9994           0
     18264 MEMB     115      POPC     O11      OSLP    -0.570000       15.9994           0
     18265 MEMB     115      POPC     C1       CTL2    -0.800000E-01   12.0110           0
     18266 MEMB     115      POPC     HA       HAL2     0.900000E-01   1.00800           0
     18267 MEMB     115      POPC     HB       HAL2     0.900000E-01   1.00800           0
     18268 MEMB     115      POPC     C2       CTL1     0.170000       12.0110           0
     18269 MEMB     115      POPC     HS       HAL1     0.900000E-01   1.00800           0
     18270 MEMB     115      POPC     O21      OSL     -0.490000       15.9994           0
     18271 MEMB     115      POPC     C21      CL       0.900000       12.0110           0
     18272 MEMB     115      POPC     O22      OBL     -0.630000       15.9994           0
     18273 MEMB     115      POPC     C22      CTL2    -0.220000       12.0110           0
     18274 MEMB     115      POPC     H2R      HAL2     0.900000E-01   1.00800           0
     18275 MEMB     115      POPC     H2S      HAL2     0.900000E-01   1.00800           0
     18276 MEMB     115      POPC     C3       CTL2     0.800000E-01   12.0110           0
     18277 MEMB     115      POPC     HX       HAL2     0.900000E-01   1.00800           0
     18278 MEMB     115      POPC     HY       HAL2     0.900000E-01   1.00800           0
     18279 MEMB     115      POPC     O31      OSL     -0.490000       15.9994           0
     18280 MEMB     115      POPC     C31      CL       0.900000       12.0110           0
     18281 MEMB     115      POPC     O32      OBL     -0.630000       15.9994           0
     18282 MEMB     115      POPC     C32      CTL2    -0.220000       12.0110           0
     18283 MEMB     115      POPC     H2X      HAL2     0.900000E-01   1.00800           0
     18284 MEMB     115      POPC     H2Y      HAL2     0.900000E-01   1.00800           0
     18285 MEMB     115      POPC     C23      CTL2    -0.180000       12.0110           0
     18286 MEMB     115      POPC     H3R      HAL2     0.900000E-01   1.00800           0
     18287 MEMB     115      POPC     H3S      HAL2     0.900000E-01   1.00800           0
     18288 MEMB     115      POPC     C24      CTL2    -0.180000       12.0110           0
     18289 MEMB     115      POPC     H4R      HAL2     0.900000E-01   1.00800           0
     18290 MEMB     115      POPC     H4S      HAL2     0.900000E-01   1.00800           0
     18291 MEMB     115      POPC     C25      CTL2    -0.180000       12.0110           0
     18292 MEMB     115      POPC     H5R      HAL2     0.900000E-01   1.00800           0
     18293 MEMB     115      POPC     H5S      HAL2     0.900000E-01   1.00800           0
     18294 MEMB     115      POPC     C26      CTL2    -0.180000       12.0110           0
     18295 MEMB     115      POPC     H6R      HAL2     0.900000E-01   1.00800           0
     18296 MEMB     115      POPC     H6S      HAL2     0.900000E-01   1.00800           0
     18297 MEMB     115      POPC     C27      CTL2    -0.180000       12.0110           0
     18298 MEMB     115      POPC     H7R      HAL2     0.900000E-01   1.00800           0
     18299 MEMB     115      POPC     H7S      HAL2     0.900000E-01   1.00800           0
     18300 MEMB     115      POPC     C28      CTL2    -0.180000       12.0110           0
     18301 MEMB     115      POPC     H8R      HAL2     0.900000E-01   1.00800           0
     18302 MEMB     115      POPC     H8S      HAL2     0.900000E-01   1.00800           0
     18303 MEMB     115      POPC     C29      CEL1    -0.150000       12.0110           0
     18304 MEMB     115      POPC     H91      HEL1     0.150000       1.00800           0
     18305 MEMB     115      POPC     C210     CEL1    -0.150000       12.0110           0
     18306 MEMB     115      POPC     H101     HEL1     0.150000       1.00800           0
     18307 MEMB     115      POPC     C211     CTL2    -0.180000       12.0110           0
     18308 MEMB     115      POPC     H11R     HAL2     0.900000E-01   1.00800           0
     18309 MEMB     115      POPC     H11S     HAL2     0.900000E-01   1.00800           0
     18310 MEMB     115      POPC     C212     CTL2    -0.180000       12.0110           0
     18311 MEMB     115      POPC     H12R     HAL2     0.900000E-01   1.00800           0
     18312 MEMB     115      POPC     H12S     HAL2     0.900000E-01   1.00800           0
     18313 MEMB     115      POPC     C213     CTL2    -0.180000       12.0110           0
     18314 MEMB     115      POPC     H13R     HAL2     0.900000E-01   1.00800           0
     18315 MEMB     115      POPC     H13S     HAL2     0.900000E-01   1.00800           0
     18316 MEMB     115      POPC     C214     CTL2    -0.180000       12.0110           0
     18317 MEMB     115      POPC     H14R     HAL2     0.900000E-01   1.00800           0
     18318 MEMB     115      POPC     H14S     HAL2     0.900000E-01   1.00800           0
     18319 MEMB     115      POPC     C215     CTL2    -0.180000       12.0110           0
     18320 MEMB     115      POPC     H15R     HAL2     0.900000E-01   1.00800           0
     18321 MEMB     115      POPC     H15S     HAL2     0.900000E-01   1.00800           0
     18322 MEMB     115      POPC     C216     CTL2    -0.180000       12.0110           0
     18323 MEMB     115      POPC     H16R     HAL2     0.900000E-01   1.00800           0
     18324 MEMB     115      POPC     H16S     HAL2     0.900000E-01   1.00800           0
     18325 MEMB     115      POPC     C217     CTL2    -0.180000       12.0110           0
     18326 MEMB     115      POPC     H17R     HAL2     0.900000E-01   1.00800           0
     18327 MEMB     115      POPC     H17S     HAL2     0.900000E-01   1.00800           0
     18328 MEMB     115      POPC     C218     CTL3    -0.270000       12.0110           0
     18329 MEMB     115      POPC     H18R     HAL3     0.900000E-01   1.00800           0
     18330 MEMB     115      POPC     H18S     HAL3     0.900000E-01   1.00800           0
     18331 MEMB     115      POPC     H18T     HAL3     0.900000E-01   1.00800           0
     18332 MEMB     115      POPC     C33      CTL2    -0.180000       12.0110           0
     18333 MEMB     115      POPC     H3X      HAL2     0.900000E-01   1.00800           0
     18334 MEMB     115      POPC     H3Y      HAL2     0.900000E-01   1.00800           0
     18335 MEMB     115      POPC     C34      CTL2    -0.180000       12.0110           0
     18336 MEMB     115      POPC     H4X      HAL2     0.900000E-01   1.00800           0
     18337 MEMB     115      POPC     H4Y      HAL2     0.900000E-01   1.00800           0
     18338 MEMB     115      POPC     C35      CTL2    -0.180000       12.0110           0
     18339 MEMB     115      POPC     H5X      HAL2     0.900000E-01   1.00800           0
     18340 MEMB     115      POPC     H5Y      HAL2     0.900000E-01   1.00800           0
     18341 MEMB     115      POPC     C36      CTL2    -0.180000       12.0110           0
     18342 MEMB     115      POPC     H6X      HAL2     0.900000E-01   1.00800           0
     18343 MEMB     115      POPC     H6Y      HAL2     0.900000E-01   1.00800           0
     18344 MEMB     115      POPC     C37      CTL2    -0.180000       12.0110           0
     18345 MEMB     115      POPC     H7X      HAL2     0.900000E-01   1.00800           0
     18346 MEMB     115      POPC     H7Y      HAL2     0.900000E-01   1.00800           0
     18347 MEMB     115      POPC     C38      CTL2    -0.180000       12.0110           0
     18348 MEMB     115      POPC     H8X      HAL2     0.900000E-01   1.00800           0
     18349 MEMB     115      POPC     H8Y      HAL2     0.900000E-01   1.00800           0
     18350 MEMB     115      POPC     C39      CTL2    -0.180000       12.0110           0
     18351 MEMB     115      POPC     H9X      HAL2     0.900000E-01   1.00800           0
     18352 MEMB     115      POPC     H9Y      HAL2     0.900000E-01   1.00800           0
     18353 MEMB     115      POPC     C310     CTL2    -0.180000       12.0110           0
     18354 MEMB     115      POPC     H10X     HAL2     0.900000E-01   1.00800           0
     18355 MEMB     115      POPC     H10Y     HAL2     0.900000E-01   1.00800           0
     18356 MEMB     115      POPC     C311     CTL2    -0.180000       12.0110           0
     18357 MEMB     115      POPC     H11X     HAL2     0.900000E-01   1.00800           0
     18358 MEMB     115      POPC     H11Y     HAL2     0.900000E-01   1.00800           0
     18359 MEMB     115      POPC     C312     CTL2    -0.180000       12.0110           0
     18360 MEMB     115      POPC     H12X     HAL2     0.900000E-01   1.00800           0
     18361 MEMB     115      POPC     H12Y     HAL2     0.900000E-01   1.00800           0
     18362 MEMB     115      POPC     C313     CTL2    -0.180000       12.0110           0
     18363 MEMB     115      POPC     H13X     HAL2     0.900000E-01   1.00800           0
     18364 MEMB     115      POPC     H13Y     HAL2     0.900000E-01   1.00800           0
     18365 MEMB     115      POPC     C314     CTL2    -0.180000       12.0110           0
     18366 MEMB     115      POPC     H14X     HAL2     0.900000E-01   1.00800           0
     18367 MEMB     115      POPC     H14Y     HAL2     0.900000E-01   1.00800           0
     18368 MEMB     115      POPC     C315     CTL2    -0.180000       12.0110           0
     18369 MEMB     115      POPC     H15X     HAL2     0.900000E-01   1.00800           0
     18370 MEMB     115      POPC     H15Y     HAL2     0.900000E-01   1.00800           0
     18371 MEMB     115      POPC     C316     CTL3    -0.270000       12.0110           0
     18372 MEMB     115      POPC     H16X     HAL3     0.900000E-01   1.00800           0
     18373 MEMB     115      POPC     H16Y     HAL3     0.900000E-01   1.00800           0
     18374 MEMB     115      POPC     H16Z     HAL3     0.900000E-01   1.00800           0
     18375 MEMB     118      POPC     N        NTL     -0.600000       14.0070           0
     18376 MEMB     118      POPC     C12      CTL2    -0.100000       12.0110           0
     18377 MEMB     118      POPC     H12A     HL       0.250000       1.00800           0
     18378 MEMB     118      POPC     H12B     HL       0.250000       1.00800           0
     18379 MEMB     118      POPC     C13      CTL5    -0.350000       12.0110           0
     18380 MEMB     118      POPC     H13A     HL       0.250000       1.00800           0
     18381 MEMB     118      POPC     H13B     HL       0.250000       1.00800           0
     18382 MEMB     118      POPC     H13C     HL       0.250000       1.00800           0
     18383 MEMB     118      POPC     C14      CTL5    -0.350000       12.0110           0
     18384 MEMB     118      POPC     H14A     HL       0.250000       1.00800           0
     18385 MEMB     118      POPC     H14B     HL       0.250000       1.00800           0
     18386 MEMB     118      POPC     H14C     HL       0.250000       1.00800           0
     18387 MEMB     118      POPC     C15      CTL5    -0.350000       12.0110           0
     18388 MEMB     118      POPC     H15A     HL       0.250000       1.00800           0
     18389 MEMB     118      POPC     H15B     HL       0.250000       1.00800           0
     18390 MEMB     118      POPC     H15C     HL       0.250000       1.00800           0
     18391 MEMB     118      POPC     C11      CTL2    -0.800000E-01   12.0110           0
     18392 MEMB     118      POPC     H11A     HAL2     0.900000E-01   1.00800           0
     18393 MEMB     118      POPC     H11B     HAL2     0.900000E-01   1.00800           0
     18394 MEMB     118      POPC     P        PL       1.500000       30.9740           0
     18395 MEMB     118      POPC     O13      O2L     -0.780000       15.9994           0
     18396 MEMB     118      POPC     O14      O2L     -0.780000       15.9994           0
     18397 MEMB     118      POPC     O12      OSLP    -0.570000       15.9994           0
     18398 MEMB     118      POPC     O11      OSLP    -0.570000       15.9994           0
     18399 MEMB     118      POPC     C1       CTL2    -0.800000E-01   12.0110           0
     18400 MEMB     118      POPC     HA       HAL2     0.900000E-01   1.00800           0
     18401 MEMB     118      POPC     HB       HAL2     0.900000E-01   1.00800           0
     18402 MEMB     118      POPC     C2       CTL1     0.170000       12.0110           0
     18403 MEMB     118      POPC     HS       HAL1     0.900000E-01   1.00800           0
     18404 MEMB     118      POPC     O21      OSL     -0.490000       15.9994           0
     18405 MEMB     118      POPC     C21      CL       0.900000       12.0110           0
     18406 MEMB     118      POPC     O22      OBL     -0.630000       15.9994           0
     18407 MEMB     118      POPC     C22      CTL2    -0.220000       12.0110           0
     18408 MEMB     118      POPC     H2R      HAL2     0.900000E-01   1.00800           0
     18409 MEMB     118      POPC     H2S      HAL2     0.900000E-01   1.00800           0
     18410 MEMB     118      POPC     C3       CTL2     0.800000E-01   12.0110           0
     18411 MEMB     118      POPC     HX       HAL2     0.900000E-01   1.00800           0
     18412 MEMB     118      POPC     HY       HAL2     0.900000E-01   1.00800           0
     18413 MEMB     118      POPC     O31      OSL     -0.490000       15.9994           0
     18414 MEMB     118      POPC     C31      CL       0.900000       12.0110           0
     18415 MEMB     118      POPC     O32      OBL     -0.630000       15.9994           0
     18416 MEMB     118      POPC     C32      CTL2    -0.220000       12.0110           0
     18417 MEMB     118      POPC     H2X      HAL2     0.900000E-01   1.00800           0
     18418 MEMB     118      POPC     H2Y      HAL2     0.900000E-01   1.00800           0
     18419 MEMB     118      POPC     C23      CTL2    -0.180000       12.0110           0
     18420 MEMB     118      POPC     H3R      HAL2     0.900000E-01   1.00800           0
     18421 MEMB     118      POPC     H3S      HAL2     0.900000E-01   1.00800           0
     18422 MEMB     118      POPC     C24      CTL2    -0.180000       12.0110           0
     18423 MEMB     118      POPC     H4R      HAL2     0.900000E-01   1.00800           0
     18424 MEMB     118      POPC     H4S      HAL2     0.900000E-01   1.00800           0
     18425 MEMB     118      POPC     C25      CTL2    -0.180000       12.0110           0
     18426 MEMB     118      POPC     H5R      HAL2     0.900000E-01   1.00800           0
     18427 MEMB     118      POPC     H5S      HAL2     0.900000E-01   1.00800           0
     18428 MEMB     118      POPC     C26      CTL2    -0.180000       12.0110           0
     18429 MEMB     118      POPC     H6R      HAL2     0.900000E-01   1.00800           0
     18430 MEMB     118      POPC     H6S      HAL2     0.900000E-01   1.00800           0
     18431 MEMB     118      POPC     C27      CTL2    -0.180000       12.0110           0
     18432 MEMB     118      POPC     H7R      HAL2     0.900000E-01   1.00800           0
     18433 MEMB     118      POPC     H7S      HAL2     0.900000E-01   1.00800           0
     18434 MEMB     118      POPC     C28      CTL2    -0.180000       12.0110           0
     18435 MEMB     118      POPC     H8R      HAL2     0.900000E-01   1.00800           0
     18436 MEMB     118      POPC     H8S      HAL2     0.900000E-01   1.00800           0
     18437 MEMB     118      POPC     C29      CEL1    -0.150000       12.0110           0
     18438 MEMB     118      POPC     H91      HEL1     0.150000       1.00800           0
     18439 MEMB     118      POPC     C210     CEL1    -0.150000       12.0110           0
     18440 MEMB     118      POPC     H101     HEL1     0.150000       1.00800           0
     18441 MEMB     118      POPC     C211     CTL2    -0.180000       12.0110           0
     18442 MEMB     118      POPC     H11R     HAL2     0.900000E-01   1.00800           0
     18443 MEMB     118      POPC     H11S     HAL2     0.900000E-01   1.00800           0
     18444 MEMB     118      POPC     C212     CTL2    -0.180000       12.0110           0
     18445 MEMB     118      POPC     H12R     HAL2     0.900000E-01   1.00800           0
     18446 MEMB     118      POPC     H12S     HAL2     0.900000E-01   1.00800           0
     18447 MEMB     118      POPC     C213     CTL2    -0.180000       12.0110           0
     18448 MEMB     118      POPC     H13R     HAL2     0.900000E-01   1.00800           0
     18449 MEMB     118      POPC     H13S     HAL2     0.900000E-01   1.00800           0
     18450 MEMB     118      POPC     C214     CTL2    -0.180000       12.0110           0
     18451 MEMB     118      POPC     H14R     HAL2     0.900000E-01   1.00800           0
     18452 MEMB     118      POPC     H14S     HAL2     0.900000E-01   1.00800           0
     18453 MEMB     118      POPC     C215     CTL2    -0.180000       12.0110           0
     18454 MEMB     118      POPC     H15R     HAL2     0.900000E-01   1.00800           0
     18455 MEMB     118      POPC     H15S     HAL2     0.900000E-01   1.00800           0
     18456 MEMB     118      POPC     C216     CTL2    -0.180000       12.0110           0
     18457 MEMB     118      POPC     H16R     HAL2     0.900000E-01   1.00800           0
     18458 MEMB     118      POPC     H16S     HAL2     0.900000E-01   1.00800           0
     18459 MEMB     118      POPC     C217     CTL2    -0.180000       12.0110           0
     18460 MEMB     118      POPC     H17R     HAL2     0.900000E-01   1.00800           0
     18461 MEMB     118      POPC     H17S     HAL2     0.900000E-01   1.00800           0
     18462 MEMB     118      POPC     C218     CTL3    -0.270000       12.0110           0
     18463 MEMB     118      POPC     H18R     HAL3     0.900000E-01   1.00800           0
     18464 MEMB     118      POPC     H18S     HAL3     0.900000E-01   1.00800           0
     18465 MEMB     118      POPC     H18T     HAL3     0.900000E-01   1.00800           0
     18466 MEMB     118      POPC     C33      CTL2    -0.180000       12.0110           0
     18467 MEMB     118      POPC     H3X      HAL2     0.900000E-01   1.00800           0
     18468 MEMB     118      POPC     H3Y      HAL2     0.900000E-01   1.00800           0
     18469 MEMB     118      POPC     C34      CTL2    -0.180000       12.0110           0
     18470 MEMB     118      POPC     H4X      HAL2     0.900000E-01   1.00800           0
     18471 MEMB     118      POPC     H4Y      HAL2     0.900000E-01   1.00800           0
     18472 MEMB     118      POPC     C35      CTL2    -0.180000       12.0110           0
     18473 MEMB     118      POPC     H5X      HAL2     0.900000E-01   1.00800           0
     18474 MEMB     118      POPC     H5Y      HAL2     0.900000E-01   1.00800           0
     18475 MEMB     118      POPC     C36      CTL2    -0.180000       12.0110           0
     18476 MEMB     118      POPC     H6X      HAL2     0.900000E-01   1.00800           0
     18477 MEMB     118      POPC     H6Y      HAL2     0.900000E-01   1.00800           0
     18478 MEMB     118      POPC     C37      CTL2    -0.180000       12.0110           0
     18479 MEMB     118      POPC     H7X      HAL2     0.900000E-01   1.00800           0
     18480 MEMB     118      POPC     H7Y      HAL2     0.900000E-01   1.00800           0
     18481 MEMB     118      POPC     C38      CTL2    -0.180000       12.0110           0
     18482 MEMB     118      POPC     H8X      HAL2     0.900000E-01   1.00800           0
     18483 MEMB     118      POPC     H8Y      HAL2     0.900000E-01   1.00800           0
     18484 MEMB     118      POPC     C39      CTL2    -0.180000       12.0110           0
     18485 MEMB     118      POPC     H9X      HAL2     0.900000E-01   1.00800           0
     18486 MEMB     118      POPC     H9Y      HAL2     0.900000E-01   1.00800           0
     18487 MEMB     118      POPC     C310     CTL2    -0.180000       12.0110           0
     18488 MEMB     118      POPC     H10X     HAL2     0.900000E-01   1.00800           0
     18489 MEMB     118      POPC     H10Y     HAL2     0.900000E-01   1.00800           0
     18490 MEMB     118      POPC     C311     CTL2    -0.180000       12.0110           0
     18491 MEMB     118      POPC     H11X     HAL2     0.900000E-01   1.00800           0
     18492 MEMB     118      POPC     H11Y     HAL2     0.900000E-01   1.00800           0
     18493 MEMB     118      POPC     C312     CTL2    -0.180000       12.0110           0
     18494 MEMB     118      POPC     H12X     HAL2     0.900000E-01   1.00800           0
     18495 MEMB     118      POPC     H12Y     HAL2     0.900000E-01   1.00800           0
     18496 MEMB     118      POPC     C313     CTL2    -0.180000       12.0110           0
     18497 MEMB     118      POPC     H13X     HAL2     0.900000E-01   1.00800           0
     18498 MEMB     118      POPC     H13Y     HAL2     0.900000E-01   1.00800           0
     18499 MEMB     118      POPC     C314     CTL2    -0.180000       12.0110           0
     18500 MEMB     118      POPC     H14X     HAL2     0.900000E-01   1.00800           0
     18501 MEMB     118      POPC     H14Y     HAL2     0.900000E-01   1.00800           0
     18502 MEMB     118      POPC     C315     CTL2    -0.180000       12.0110           0
     18503 MEMB     118      POPC     H15X     HAL2     0.900000E-01   1.00800           0
     18504 MEMB     118      POPC     H15Y     HAL2     0.900000E-01   1.00800           0
     18505 MEMB     118      POPC     C316     CTL3    -0.270000       12.0110           0
     18506 MEMB     118      POPC     H16X     HAL3     0.900000E-01   1.00800           0
     18507 MEMB     118      POPC     H16Y     HAL3     0.900000E-01   1.00800           0
     18508 MEMB     118      POPC     H16Z     HAL3     0.900000E-01   1.00800           0
     18509 MEMB     127      POPC     N        NTL     -0.600000       14.0070           0
     18510 MEMB     127      POPC     C12      CTL2    -0.100000       12.0110           0
     18511 MEMB     127      POPC     H12A     HL       0.250000       1.00800           0
     18512 MEMB     127      POPC     H12B     HL       0.250000       1.00800           0
     18513 MEMB     127      POPC     C13      CTL5    -0.350000       12.0110           0
     18514 MEMB     127      POPC     H13A     HL       0.250000       1.00800           0
     18515 MEMB     127      POPC     H13B     HL       0.250000       1.00800           0
     18516 MEMB     127      POPC     H13C     HL       0.250000       1.00800           0
     18517 MEMB     127      POPC     C14      CTL5    -0.350000       12.0110           0
     18518 MEMB     127      POPC     H14A     HL       0.250000       1.00800           0
     18519 MEMB     127      POPC     H14B     HL       0.250000       1.00800           0
     18520 MEMB     127      POPC     H14C     HL       0.250000       1.00800           0
     18521 MEMB     127      POPC     C15      CTL5    -0.350000       12.0110           0
     18522 MEMB     127      POPC     H15A     HL       0.250000       1.00800           0
     18523 MEMB     127      POPC     H15B     HL       0.250000       1.00800           0
     18524 MEMB     127      POPC     H15C     HL       0.250000       1.00800           0
     18525 MEMB     127      POPC     C11      CTL2    -0.800000E-01   12.0110           0
     18526 MEMB     127      POPC     H11A     HAL2     0.900000E-01   1.00800           0
     18527 MEMB     127      POPC     H11B     HAL2     0.900000E-01   1.00800           0
     18528 MEMB     127      POPC     P        PL       1.500000       30.9740           0
     18529 MEMB     127      POPC     O13      O2L     -0.780000       15.9994           0
     18530 MEMB     127      POPC     O14      O2L     -0.780000       15.9994           0
     18531 MEMB     127      POPC     O12      OSLP    -0.570000       15.9994           0
     18532 MEMB     127      POPC     O11      OSLP    -0.570000       15.9994           0
     18533 MEMB     127      POPC     C1       CTL2    -0.800000E-01   12.0110           0
     18534 MEMB     127      POPC     HA       HAL2     0.900000E-01   1.00800           0
     18535 MEMB     127      POPC     HB       HAL2     0.900000E-01   1.00800           0
     18536 MEMB     127      POPC     C2       CTL1     0.170000       12.0110           0
     18537 MEMB     127      POPC     HS       HAL1     0.900000E-01   1.00800           0
     18538 MEMB     127      POPC     O21      OSL     -0.490000       15.9994           0
     18539 MEMB     127      POPC     C21      CL       0.900000       12.0110           0
     18540 MEMB     127      POPC     O22      OBL     -0.630000       15.9994           0
     18541 MEMB     127      POPC     C22      CTL2    -0.220000       12.0110           0
     18542 MEMB     127      POPC     H2R      HAL2     0.900000E-01   1.00800           0
     18543 MEMB     127      POPC     H2S      HAL2     0.900000E-01   1.00800           0
     18544 MEMB     127      POPC     C3       CTL2     0.800000E-01   12.0110           0
     18545 MEMB     127      POPC     HX       HAL2     0.900000E-01   1.00800           0
     18546 MEMB     127      POPC     HY       HAL2     0.900000E-01   1.00800           0
     18547 MEMB     127      POPC     O31      OSL     -0.490000       15.9994           0
     18548 MEMB     127      POPC     C31      CL       0.900000       12.0110           0
     18549 MEMB     127      POPC     O32      OBL     -0.630000       15.9994           0
     18550 MEMB     127      POPC     C32      CTL2    -0.220000       12.0110           0
     18551 MEMB     127      POPC     H2X      HAL2     0.900000E-01   1.00800           0
     18552 MEMB     127      POPC     H2Y      HAL2     0.900000E-01   1.00800           0
     18553 MEMB     127      POPC     C23      CTL2    -0.180000       12.0110           0
     18554 MEMB     127      POPC     H3R      HAL2     0.900000E-01   1.00800           0
     18555 MEMB     127      POPC     H3S      HAL2     0.900000E-01   1.00800           0
     18556 MEMB     127      POPC     C24      CTL2    -0.180000       12.0110           0
     18557 MEMB     127      POPC     H4R      HAL2     0.900000E-01   1.00800           0
     18558 MEMB     127      POPC     H4S      HAL2     0.900000E-01   1.00800           0
     18559 MEMB     127      POPC     C25      CTL2    -0.180000       12.0110           0
     18560 MEMB     127      POPC     H5R      HAL2     0.900000E-01   1.00800           0
     18561 MEMB     127      POPC     H5S      HAL2     0.900000E-01   1.00800           0
     18562 MEMB     127      POPC     C26      CTL2    -0.180000       12.0110           0
     18563 MEMB     127      POPC     H6R      HAL2     0.900000E-01   1.00800           0
     18564 MEMB     127      POPC     H6S      HAL2     0.900000E-01   1.00800           0
     18565 MEMB     127      POPC     C27      CTL2    -0.180000       12.0110           0
     18566 MEMB     127      POPC     H7R      HAL2     0.900000E-01   1.00800           0
     18567 MEMB     127      POPC     H7S      HAL2     0.900000E-01   1.00800           0
     18568 MEMB     127      POPC     C28      CTL2    -0.180000       12.0110           0
     18569 MEMB     127      POPC     H8R      HAL2     0.900000E-01   1.00800           0
     18570 MEMB     127      POPC     H8S      HAL2     0.900000E-01   1.00800           0
     18571 MEMB     127      POPC     C29      CEL1    -0.150000       12.0110           0
     18572 MEMB     127      POPC     H91      HEL1     0.150000       1.00800           0
     18573 MEMB     127      POPC     C210     CEL1    -0.150000       12.0110           0
     18574 MEMB     127      POPC     H101     HEL1     0.150000       1.00800           0
     18575 MEMB     127      POPC     C211     CTL2    -0.180000       12.0110           0
     18576 MEMB     127      POPC     H11R     HAL2     0.900000E-01   1.00800           0
     18577 MEMB     127      POPC     H11S     HAL2     0.900000E-01   1.00800           0
     18578 MEMB     127      POPC     C212     CTL2    -0.180000       12.0110           0
     18579 MEMB     127      POPC     H12R     HAL2     0.900000E-01   1.00800           0
     18580 MEMB     127      POPC     H12S     HAL2     0.900000E-01   1.00800           0
     18581 MEMB     127      POPC     C213     CTL2    -0.180000       12.0110           0
     18582 MEMB     127      POPC     H13R     HAL2     0.900000E-01   1.00800           0
     18583 MEMB     127      POPC     H13S     HAL2     0.900000E-01   1.00800           0
     18584 MEMB     127      POPC     C214     CTL2    -0.180000       12.0110           0
     18585 MEMB     127      POPC     H14R     HAL2     0.900000E-01   1.00800           0
     18586 MEMB     127      POPC     H14S     HAL2     0.900000E-01   1.00800           0
     18587 MEMB     127      POPC     C215     CTL2    -0.180000       12.0110           0
     18588 MEMB     127      POPC     H15R     HAL2     0.900000E-01   1.00800           0
     18589 MEMB     127      POPC     H15S     HAL2     0.900000E-01   1.00800           0
     18590 MEMB     127      POPC     C216     CTL2    -0.180000       12.0110           0
     18591 MEMB     127      POPC     H16R     HAL2     0.900000E-01   1.00800           0
     18592 MEMB     127      POPC     H16S     HAL2     0.900000E-01   1.00800           0
     18593 MEMB     127      POPC     C217     CTL2    -0.180000       12.0110           0
     18594 MEMB     127      POPC     H17R     HAL2     0.900000E-01   1.00800           0
     18595 MEMB     127      POPC     H17S     HAL2     0.900000E-01   1.00800           0
     18596 MEMB     127      POPC     C218     CTL3    -0.270000       12.0110           0
     18597 MEMB     127      POPC     H18R     HAL3     0.900000E-01   1.00800           0
     18598 MEMB     127      POPC     H18S     HAL3     0.900000E-01   1.00800           0
     18599 MEMB     127      POPC     H18T     HAL3     0.900000E-01   1.00800           0
     18600 MEMB     127      POPC     C33      CTL2    -0.180000       12.0110           0
     18601 MEMB     127      POPC     H3X      HAL2     0.900000E-01   1.00800           0
     18602 MEMB     127      POPC     H3Y      HAL2     0.900000E-01   1.00800           0
     18603 MEMB     127      POPC     C34      CTL2    -0.180000       12.0110           0
     18604 MEMB     127      POPC     H4X      HAL2     0.900000E-01   1.00800           0
     18605 MEMB     127      POPC     H4Y      HAL2     0.900000E-01   1.00800           0
     18606 MEMB     127      POPC     C35      CTL2    -0.180000       12.0110           0
     18607 MEMB     127      POPC     H5X      HAL2     0.900000E-01   1.00800           0
     18608 MEMB     127      POPC     H5Y      HAL2     0.900000E-01   1.00800           0
     18609 MEMB     127      POPC     C36      CTL2    -0.180000       12.0110           0
     18610 MEMB     127      POPC     H6X      HAL2     0.900000E-01   1.00800           0
     18611 MEMB     127      POPC     H6Y      HAL2     0.900000E-01   1.00800           0
     18612 MEMB     127      POPC     C37      CTL2    -0.180000       12.0110           0
     18613 MEMB     127      POPC     H7X      HAL2     0.900000E-01   1.00800           0
     18614 MEMB     127      POPC     H7Y      HAL2     0.900000E-01   1.00800           0
     18615 MEMB     127      POPC     C38      CTL2    -0.180000       12.0110           0
     18616 MEMB     127      POPC     H8X      HAL2     0.900000E-01   1.00800           0
     18617 MEMB     127      POPC     H8Y      HAL2     0.900000E-01   1.00800           0
     18618 MEMB     127      POPC     C39      CTL2    -0.180000       12.0110           0
     18619 MEMB     127      POPC     H9X      HAL2     0.900000E-01   1.00800           0
     18620 MEMB     127      POPC     H9Y      HAL2     0.900000E-01   1.00800           0
     18621 MEMB     127      POPC     C310     CTL2    -0.180000       12.0110           0
     18622 MEMB     127      POPC     H10X     HAL2     0.900000E-01   1.00800           0
     18623 MEMB     127      POPC     H10Y     HAL2     0.900000E-01   1.00800           0
     18624 MEMB     127      POPC     C311     CTL2    -0.180000       12.0110           0
     18625 MEMB     127      POPC     H11X     HAL2     0.900000E-01   1.00800           0
     18626 MEMB     127      POPC     H11Y     HAL2     0.900000E-01   1.00800           0
     18627 MEMB     127      POPC     C312     CTL2    -0.180000       12.0110           0
     18628 MEMB     127      POPC     H12X     HAL2     0.900000E-01   1.00800           0
     18629 MEMB     127      POPC     H12Y     HAL2     0.900000E-01   1.00800           0
     18630 MEMB     127      POPC     C313     CTL2    -0.180000       12.0110           0
     18631 MEMB     127      POPC     H13X     HAL2     0.900000E-01   1.00800           0
     18632 MEMB     127      POPC     H13Y     HAL2     0.900000E-01   1.00800           0
     18633 MEMB     127      POPC     C314     CTL2    -0.180000       12.0110           0
     18634 MEMB     127      POPC     H14X     HAL2     0.900000E-01   1.00800           0
     18635 MEMB     127      POPC     H14Y     HAL2     0.900000E-01   1.00800           0
     18636 MEMB     127      POPC     C315     CTL2    -0.180000       12.0110           0
     18637 MEMB     127      POPC     H15X     HAL2     0.900000E-01   1.00800           0
     18638 MEMB     127      POPC     H15Y     HAL2     0.900000E-01   1.00800           0
     18639 MEMB     127      POPC     C316     CTL3    -0.270000       12.0110           0
     18640 MEMB     127      POPC     H16X     HAL3     0.900000E-01   1.00800           0
     18641 MEMB     127      POPC     H16Y     HAL3     0.900000E-01   1.00800           0
     18642 MEMB     127      POPC     H16Z     HAL3     0.900000E-01   1.00800           0
     18643 MEMB     132      POPC     N        NTL     -0.600000       14.0070           0
     18644 MEMB     132      POPC     C12      CTL2    -0.100000       12.0110           0
     18645 MEMB     132      POPC     H12A     HL       0.250000       1.00800           0
     18646 MEMB     132      POPC     H12B     HL       0.250000       1.00800           0
     18647 MEMB     132      POPC     C13      CTL5    -0.350000       12.0110           0
     18648 MEMB     132      POPC     H13A     HL       0.250000       1.00800           0
     18649 MEMB     132      POPC     H13B     HL       0.250000       1.00800           0
     18650 MEMB     132      POPC     H13C     HL       0.250000       1.00800           0
     18651 MEMB     132      POPC     C14      CTL5    -0.350000       12.0110           0
     18652 MEMB     132      POPC     H14A     HL       0.250000       1.00800           0
     18653 MEMB     132      POPC     H14B     HL       0.250000       1.00800           0
     18654 MEMB     132      POPC     H14C     HL       0.250000       1.00800           0
     18655 MEMB     132      POPC     C15      CTL5    -0.350000       12.0110           0
     18656 MEMB     132      POPC     H15A     HL       0.250000       1.00800           0
     18657 MEMB     132      POPC     H15B     HL       0.250000       1.00800           0
     18658 MEMB     132      POPC     H15C     HL       0.250000       1.00800           0
     18659 MEMB     132      POPC     C11      CTL2    -0.800000E-01   12.0110           0
     18660 MEMB     132      POPC     H11A     HAL2     0.900000E-01   1.00800           0
     18661 MEMB     132      POPC     H11B     HAL2     0.900000E-01   1.00800           0
     18662 MEMB     132      POPC     P        PL       1.500000       30.9740           0
     18663 MEMB     132      POPC     O13      O2L     -0.780000       15.9994           0
     18664 MEMB     132      POPC     O14      O2L     -0.780000       15.9994           0
     18665 MEMB     132      POPC     O12      OSLP    -0.570000       15.9994           0
     18666 MEMB     132      POPC     O11      OSLP    -0.570000       15.9994           0
     18667 MEMB     132      POPC     C1       CTL2    -0.800000E-01   12.0110           0
     18668 MEMB     132      POPC     HA       HAL2     0.900000E-01   1.00800           0
     18669 MEMB     132      POPC     HB       HAL2     0.900000E-01   1.00800           0
     18670 MEMB     132      POPC     C2       CTL1     0.170000       12.0110           0
     18671 MEMB     132      POPC     HS       HAL1     0.900000E-01   1.00800           0
     18672 MEMB     132      POPC     O21      OSL     -0.490000       15.9994           0
     18673 MEMB     132      POPC     C21      CL       0.900000       12.0110           0
     18674 MEMB     132      POPC     O22      OBL     -0.630000       15.9994           0
     18675 MEMB     132      POPC     C22      CTL2    -0.220000       12.0110           0
     18676 MEMB     132      POPC     H2R      HAL2     0.900000E-01   1.00800           0
     18677 MEMB     132      POPC     H2S      HAL2     0.900000E-01   1.00800           0
     18678 MEMB     132      POPC     C3       CTL2     0.800000E-01   12.0110           0
     18679 MEMB     132      POPC     HX       HAL2     0.900000E-01   1.00800           0
     18680 MEMB     132      POPC     HY       HAL2     0.900000E-01   1.00800           0
     18681 MEMB     132      POPC     O31      OSL     -0.490000       15.9994           0
     18682 MEMB     132      POPC     C31      CL       0.900000       12.0110           0
     18683 MEMB     132      POPC     O32      OBL     -0.630000       15.9994           0
     18684 MEMB     132      POPC     C32      CTL2    -0.220000       12.0110           0
     18685 MEMB     132      POPC     H2X      HAL2     0.900000E-01   1.00800           0
     18686 MEMB     132      POPC     H2Y      HAL2     0.900000E-01   1.00800           0
     18687 MEMB     132      POPC     C23      CTL2    -0.180000       12.0110           0
     18688 MEMB     132      POPC     H3R      HAL2     0.900000E-01   1.00800           0
     18689 MEMB     132      POPC     H3S      HAL2     0.900000E-01   1.00800           0
     18690 MEMB     132      POPC     C24      CTL2    -0.180000       12.0110           0
     18691 MEMB     132      POPC     H4R      HAL2     0.900000E-01   1.00800           0
     18692 MEMB     132      POPC     H4S      HAL2     0.900000E-01   1.00800           0
     18693 MEMB     132      POPC     C25      CTL2    -0.180000       12.0110           0
     18694 MEMB     132      POPC     H5R      HAL2     0.900000E-01   1.00800           0
     18695 MEMB     132      POPC     H5S      HAL2     0.900000E-01   1.00800           0
     18696 MEMB     132      POPC     C26      CTL2    -0.180000       12.0110           0
     18697 MEMB     132      POPC     H6R      HAL2     0.900000E-01   1.00800           0
     18698 MEMB     132      POPC     H6S      HAL2     0.900000E-01   1.00800           0
     18699 MEMB     132      POPC     C27      CTL2    -0.180000       12.0110           0
     18700 MEMB     132      POPC     H7R      HAL2     0.900000E-01   1.00800           0
     18701 MEMB     132      POPC     H7S      HAL2     0.900000E-01   1.00800           0
     18702 MEMB     132      POPC     C28      CTL2    -0.180000       12.0110           0
     18703 MEMB     132      POPC     H8R      HAL2     0.900000E-01   1.00800           0
     18704 MEMB     132      POPC     H8S      HAL2     0.900000E-01   1.00800           0
     18705 MEMB     132      POPC     C29      CEL1    -0.150000       12.0110           0
     18706 MEMB     132      POPC     H91      HEL1     0.150000       1.00800           0
     18707 MEMB     132      POPC     C210     CEL1    -0.150000       12.0110           0
     18708 MEMB     132      POPC     H101     HEL1     0.150000       1.00800           0
     18709 MEMB     132      POPC     C211     CTL2    -0.180000       12.0110           0
     18710 MEMB     132      POPC     H11R     HAL2     0.900000E-01   1.00800           0
     18711 MEMB     132      POPC     H11S     HAL2     0.900000E-01   1.00800           0
     18712 MEMB     132      POPC     C212     CTL2    -0.180000       12.0110           0
     18713 MEMB     132      POPC     H12R     HAL2     0.900000E-01   1.00800           0
     18714 MEMB     132      POPC     H12S     HAL2     0.900000E-01   1.00800           0
     18715 MEMB     132      POPC     C213     CTL2    -0.180000       12.0110           0
     18716 MEMB     132      POPC     H13R     HAL2     0.900000E-01   1.00800           0
     18717 MEMB     132      POPC     H13S     HAL2     0.900000E-01   1.00800           0
     18718 MEMB     132      POPC     C214     CTL2    -0.180000       12.0110           0
     18719 MEMB     132      POPC     H14R     HAL2     0.900000E-01   1.00800           0
     18720 MEMB     132      POPC     H14S     HAL2     0.900000E-01   1.00800           0
     18721 MEMB     132      POPC     C215     CTL2    -0.180000       12.0110           0
     18722 MEMB     132      POPC     H15R     HAL2     0.900000E-01   1.00800           0
     18723 MEMB     132      POPC     H15S     HAL2     0.900000E-01   1.00800           0
     18724 MEMB     132      POPC     C216     CTL2    -0.180000       12.0110           0
     18725 MEMB     132      POPC     H16R     HAL2     0.900000E-01   1.00800           0
     18726 MEMB     132      POPC     H16S     HAL2     0.900000E-01   1.00800           0
     18727 MEMB     132      POPC     C217     CTL2    -0.180000       12.0110           0
     18728 MEMB     132      POPC     H17R     HAL2     0.900000E-01   1.00800           0
     18729 MEMB     132      POPC     H17S     HAL2     0.900000E-01   1.00800           0
     18730 MEMB     132      POPC     C218     CTL3    -0.270000       12.0110           0
     18731 MEMB     132      POPC     H18R     HAL3     0.900000E-01   1.00800           0
     18732 MEMB     132      POPC     H18S     HAL3     0.900000E-01   1.00800           0
     18733 MEMB     132      POPC     H18T     HAL3     0.900000E-01   1.00800           0
     18734 MEMB     132      POPC     C33      CTL2    -0.180000       12.0110           0
     18735 MEMB     132      POPC     H3X      HAL2     0.900000E-01   1.00800           0
     18736 MEMB     132      POPC     H3Y      HAL2     0.900000E-01   1.00800           0
     18737 MEMB     132      POPC     C34      CTL2    -0.180000       12.0110           0
     18738 MEMB     132      POPC     H4X      HAL2     0.900000E-01   1.00800           0
     18739 MEMB     132      POPC     H4Y      HAL2     0.900000E-01   1.00800           0
     18740 MEMB     132      POPC     C35      CTL2    -0.180000       12.0110           0
     18741 MEMB     132      POPC     H5X      HAL2     0.900000E-01   1.00800           0
     18742 MEMB     132      POPC     H5Y      HAL2     0.900000E-01   1.00800           0
     18743 MEMB     132      POPC     C36      CTL2    -0.180000       12.0110           0
     18744 MEMB     132      POPC     H6X      HAL2     0.900000E-01   1.00800           0
     18745 MEMB     132      POPC     H6Y      HAL2     0.900000E-01   1.00800           0
     18746 MEMB     132      POPC     C37      CTL2    -0.180000       12.0110           0
     18747 MEMB     132      POPC     H7X      HAL2     0.900000E-01   1.00800           0
     18748 MEMB     132      POPC     H7Y      HAL2     0.900000E-01   1.00800           0
     18749 MEMB     132      POPC     C38      CTL2    -0.180000       12.0110           0
     18750 MEMB     132      POPC     H8X      HAL2     0.900000E-01   1.00800           0
     18751 MEMB     132      POPC     H8Y      HAL2     0.900000E-01   1.00800           0
     18752 MEMB     132      POPC     C39      CTL2    -0.180000       12.0110           0
     18753 MEMB     132      POPC     H9X      HAL2     0.900000E-01   1.00800           0
     18754 MEMB     132      POPC     H9Y      HAL2     0.900000E-01   1.00800           0
     18755 MEMB     132      POPC     C310     CTL2    -0.180000       12.0110           0
     18756 MEMB     132      POPC     H10X     HAL2     0.900000E-01   1.00800           0
     18757 MEMB     132      POPC     H10Y     HAL2     0.900000E-01   1.00800           0
     18758 MEMB     132      POPC     C311     CTL2    -0.180000       12.0110           0
     18759 MEMB     132      POPC     H11X     HAL2     0.900000E-01   1.00800           0
     18760 MEMB     132      POPC     H11Y     HAL2     0.900000E-01   1.00800           0
     18761 MEMB     132      POPC     C312     CTL2    -0.180000       12.0110           0
     18762 MEMB     132      POPC     H12X     HAL2     0.900000E-01   1.00800           0
     18763 MEMB     132      POPC     H12Y     HAL2     0.900000E-01   1.00800           0
     18764 MEMB     132      POPC     C313     CTL2    -0.180000       12.0110           0
     18765 MEMB     132      POPC     H13X     HAL2     0.900000E-01   1.00800           0
     18766 MEMB     132      POPC     H13Y     HAL2     0.900000E-01   1.00800           0
     18767 MEMB     132      POPC     C314     CTL2    -0.180000       12.0110           0
     18768 MEMB     132      POPC     H14X     HAL2     0.900000E-01   1.00800           0
     18769 MEMB     132      POPC     H14Y     HAL2     0.900000E-01   1.00800           0
     18770 MEMB     132      POPC     C315     CTL2    -0.180000       12.0110           0
     18771 MEMB     132      POPC     H15X     HAL2     0.900000E-01   1.00800           0
     18772 MEMB     132      POPC     H15Y     HAL2     0.900000E-01   1.00800           0
     18773 MEMB     132      POPC     C316     CTL3    -0.270000       12.0110           0
     18774 MEMB     132      POPC     H16X     HAL3     0.900000E-01   1.00800           0
     18775 MEMB     132      POPC     H16Y     HAL3     0.900000E-01   1.00800           0
     18776 MEMB     132      POPC     H16Z     HAL3     0.900000E-01   1.00800           0
     18777 MEMB     133      POPC     N        NTL     -0.600000       14.0070           0
     18778 MEMB     133      POPC     C12      CTL2    -0.100000       12.0110           0
     18779 MEMB     133      POPC     H12A     HL       0.250000       1.00800           0
     18780 MEMB     133      POPC     H12B     HL       0.250000       1.00800           0
     18781 MEMB     133      POPC     C13      CTL5    -0.350000       12.0110           0
     18782 MEMB     133      POPC     H13A     HL       0.250000       1.00800           0
     18783 MEMB     133      POPC     H13B     HL       0.250000       1.00800           0
     18784 MEMB     133      POPC     H13C     HL       0.250000       1.00800           0
     18785 MEMB     133      POPC     C14      CTL5    -0.350000       12.0110           0
     18786 MEMB     133      POPC     H14A     HL       0.250000       1.00800           0
     18787 MEMB     133      POPC     H14B     HL       0.250000       1.00800           0
     18788 MEMB     133      POPC     H14C     HL       0.250000       1.00800           0
     18789 MEMB     133      POPC     C15      CTL5    -0.350000       12.0110           0
     18790 MEMB     133      POPC     H15A     HL       0.250000       1.00800           0
     18791 MEMB     133      POPC     H15B     HL       0.250000       1.00800           0
     18792 MEMB     133      POPC     H15C     HL       0.250000       1.00800           0
     18793 MEMB     133      POPC     C11      CTL2    -0.800000E-01   12.0110           0
     18794 MEMB     133      POPC     H11A     HAL2     0.900000E-01   1.00800           0
     18795 MEMB     133      POPC     H11B     HAL2     0.900000E-01   1.00800           0
     18796 MEMB     133      POPC     P        PL       1.500000       30.9740           0
     18797 MEMB     133      POPC     O13      O2L     -0.780000       15.9994           0
     18798 MEMB     133      POPC     O14      O2L     -0.780000       15.9994           0
     18799 MEMB     133      POPC     O12      OSLP    -0.570000       15.9994           0
     18800 MEMB     133      POPC     O11      OSLP    -0.570000       15.9994           0
     18801 MEMB     133      POPC     C1       CTL2    -0.800000E-01   12.0110           0
     18802 MEMB     133      POPC     HA       HAL2     0.900000E-01   1.00800           0
     18803 MEMB     133      POPC     HB       HAL2     0.900000E-01   1.00800           0
     18804 MEMB     133      POPC     C2       CTL1     0.170000       12.0110           0
     18805 MEMB     133      POPC     HS       HAL1     0.900000E-01   1.00800           0
     18806 MEMB     133      POPC     O21      OSL     -0.490000       15.9994           0
     18807 MEMB     133      POPC     C21      CL       0.900000       12.0110           0
     18808 MEMB     133      POPC     O22      OBL     -0.630000       15.9994           0
     18809 MEMB     133      POPC     C22      CTL2    -0.220000       12.0110           0
     18810 MEMB     133      POPC     H2R      HAL2     0.900000E-01   1.00800           0
     18811 MEMB     133      POPC     H2S      HAL2     0.900000E-01   1.00800           0
     18812 MEMB     133      POPC     C3       CTL2     0.800000E-01   12.0110           0
     18813 MEMB     133      POPC     HX       HAL2     0.900000E-01   1.00800           0
     18814 MEMB     133      POPC     HY       HAL2     0.900000E-01   1.00800           0
     18815 MEMB     133      POPC     O31      OSL     -0.490000       15.9994           0
     18816 MEMB     133      POPC     C31      CL       0.900000       12.0110           0
     18817 MEMB     133      POPC     O32      OBL     -0.630000       15.9994           0
     18818 MEMB     133      POPC     C32      CTL2    -0.220000       12.0110           0
     18819 MEMB     133      POPC     H2X      HAL2     0.900000E-01   1.00800           0
     18820 MEMB     133      POPC     H2Y      HAL2     0.900000E-01   1.00800           0
     18821 MEMB     133      POPC     C23      CTL2    -0.180000       12.0110           0
     18822 MEMB     133      POPC     H3R      HAL2     0.900000E-01   1.00800           0
     18823 MEMB     133      POPC     H3S      HAL2     0.900000E-01   1.00800           0
     18824 MEMB     133      POPC     C24      CTL2    -0.180000       12.0110           0
     18825 MEMB     133      POPC     H4R      HAL2     0.900000E-01   1.00800           0
     18826 MEMB     133      POPC     H4S      HAL2     0.900000E-01   1.00800           0
     18827 MEMB     133      POPC     C25      CTL2    -0.180000       12.0110           0
     18828 MEMB     133      POPC     H5R      HAL2     0.900000E-01   1.00800           0
     18829 MEMB     133      POPC     H5S      HAL2     0.900000E-01   1.00800           0
     18830 MEMB     133      POPC     C26      CTL2    -0.180000       12.0110           0
     18831 MEMB     133      POPC     H6R      HAL2     0.900000E-01   1.00800           0
     18832 MEMB     133      POPC     H6S      HAL2     0.900000E-01   1.00800           0
     18833 MEMB     133      POPC     C27      CTL2    -0.180000       12.0110           0
     18834 MEMB     133      POPC     H7R      HAL2     0.900000E-01   1.00800           0
     18835 MEMB     133      POPC     H7S      HAL2     0.900000E-01   1.00800           0
     18836 MEMB     133      POPC     C28      CTL2    -0.180000       12.0110           0
     18837 MEMB     133      POPC     H8R      HAL2     0.900000E-01   1.00800           0
     18838 MEMB     133      POPC     H8S      HAL2     0.900000E-01   1.00800           0
     18839 MEMB     133      POPC     C29      CEL1    -0.150000       12.0110           0
     18840 MEMB     133      POPC     H91      HEL1     0.150000       1.00800           0
     18841 MEMB     133      POPC     C210     CEL1    -0.150000       12.0110           0
     18842 MEMB     133      POPC     H101     HEL1     0.150000       1.00800           0
     18843 MEMB     133      POPC     C211     CTL2    -0.180000       12.0110           0
     18844 MEMB     133      POPC     H11R     HAL2     0.900000E-01   1.00800           0
     18845 MEMB     133      POPC     H11S     HAL2     0.900000E-01   1.00800           0
     18846 MEMB     133      POPC     C212     CTL2    -0.180000       12.0110           0
     18847 MEMB     133      POPC     H12R     HAL2     0.900000E-01   1.00800           0
     18848 MEMB     133      POPC     H12S     HAL2     0.900000E-01   1.00800           0
     18849 MEMB     133      POPC     C213     CTL2    -0.180000       12.0110           0
     18850 MEMB     133      POPC     H13R     HAL2     0.900000E-01   1.00800           0
     18851 MEMB     133      POPC     H13S     HAL2     0.900000E-01   1.00800           0
     18852 MEMB     133      POPC     C214     CTL2    -0.180000       12.0110           0
     18853 MEMB     133      POPC     H14R     HAL2     0.900000E-01   1.00800           0
     18854 MEMB     133      POPC     H14S     HAL2     0.900000E-01   1.00800           0
     18855 MEMB     133      POPC     C215     CTL2    -0.180000       12.0110           0
     18856 MEMB     133      POPC     H15R     HAL2     0.900000E-01   1.00800           0
     18857 MEMB     133      POPC     H15S     HAL2     0.900000E-01   1.00800           0
     18858 MEMB     133      POPC     C216     CTL2    -0.180000       12.0110           0
     18859 MEMB     133      POPC     H16R     HAL2     0.900000E-01   1.00800           0
     18860 MEMB     133      POPC     H16S     HAL2     0.900000E-01   1.00800           0
     18861 MEMB     133      POPC     C217     CTL2    -0.180000       12.0110           0
     18862 MEMB     133      POPC     H17R     HAL2     0.900000E-01   1.00800           0
     18863 MEMB     133      POPC     H17S     HAL2     0.900000E-01   1.00800           0
     18864 MEMB     133      POPC     C218     CTL3    -0.270000       12.0110           0
     18865 MEMB     133      POPC     H18R     HAL3     0.900000E-01   1.00800           0
     18866 MEMB     133      POPC     H18S     HAL3     0.900000E-01   1.00800           0
     18867 MEMB     133      POPC     H18T     HAL3     0.900000E-01   1.00800           0
     18868 MEMB     133      POPC     C33      CTL2    -0.180000       12.0110           0
     18869 MEMB     133      POPC     H3X      HAL2     0.900000E-01   1.00800           0
     18870 MEMB     133      POPC     H3Y      HAL2     0.900000E-01   1.00800           0
     18871 MEMB     133      POPC     C34      CTL2    -0.180000       12.0110           0
     18872 MEMB     133      POPC     H4X      HAL2     0.900000E-01   1.00800           0
     18873 MEMB     133      POPC     H4Y      HAL2     0.900000E-01   1.00800           0
     18874 MEMB     133      POPC     C35      CTL2    -0.180000       12.0110           0
     18875 MEMB     133      POPC     H5X      HAL2     0.900000E-01   1.00800           0
     18876 MEMB     133      POPC     H5Y      HAL2     0.900000E-01   1.00800           0
     18877 MEMB     133      POPC     C36      CTL2    -0.180000       12.0110           0
     18878 MEMB     133      POPC     H6X      HAL2     0.900000E-01   1.00800           0
     18879 MEMB     133      POPC     H6Y      HAL2     0.900000E-01   1.00800           0
     18880 MEMB     133      POPC     C37      CTL2    -0.180000       12.0110           0
     18881 MEMB     133      POPC     H7X      HAL2     0.900000E-01   1.00800           0
     18882 MEMB     133      POPC     H7Y      HAL2     0.900000E-01   1.00800           0
     18883 MEMB     133      POPC     C38      CTL2    -0.180000       12.0110           0
     18884 MEMB     133      POPC     H8X      HAL2     0.900000E-01   1.00800           0
     18885 MEMB     133      POPC     H8Y      HAL2     0.900000E-01   1.00800           0
     18886 MEMB     133      POPC     C39      CTL2    -0.180000       12.0110           0
     18887 MEMB     133      POPC     H9X      HAL2     0.900000E-01   1.00800           0
     18888 MEMB     133      POPC     H9Y      HAL2     0.900000E-01   1.00800           0
     18889 MEMB     133      POPC     C310     CTL2    -0.180000       12.0110           0
     18890 MEMB     133      POPC     H10X     HAL2     0.900000E-01   1.00800           0
     18891 MEMB     133      POPC     H10Y     HAL2     0.900000E-01   1.00800           0
     18892 MEMB     133      POPC     C311     CTL2    -0.180000       12.0110           0
     18893 MEMB     133      POPC     H11X     HAL2     0.900000E-01   1.00800           0
     18894 MEMB     133      POPC     H11Y     HAL2     0.900000E-01   1.00800           0
     18895 MEMB     133      POPC     C312     CTL2    -0.180000       12.0110           0
     18896 MEMB     133      POPC     H12X     HAL2     0.900000E-01   1.00800           0
     18897 MEMB     133      POPC     H12Y     HAL2     0.900000E-01   1.00800           0
     18898 MEMB     133      POPC     C313     CTL2    -0.180000       12.0110           0
     18899 MEMB     133      POPC     H13X     HAL2     0.900000E-01   1.00800           0
     18900 MEMB     133      POPC     H13Y     HAL2     0.900000E-01   1.00800           0
     18901 MEMB     133      POPC     C314     CTL2    -0.180000       12.0110           0
     18902 MEMB     133      POPC     H14X     HAL2     0.900000E-01   1.00800           0
     18903 MEMB     133      POPC     H14Y     HAL2     0.900000E-01   1.00800           0
     18904 MEMB     133      POPC     C315     CTL2    -0.180000       12.0110           0
     18905 MEMB     133      POPC     H15X     HAL2     0.900000E-01   1.00800           0
     18906 MEMB     133      POPC     H15Y     HAL2     0.900000E-01   1.00800           0
     18907 MEMB     133      POPC     C316     CTL3    -0.270000       12.0110           0
     18908 MEMB     133      POPC     H16X     HAL3     0.900000E-01   1.00800           0
     18909 MEMB     133      POPC     H16Y     HAL3     0.900000E-01   1.00800           0
     18910 MEMB     133      POPC     H16Z     HAL3     0.900000E-01   1.00800           0
     18911 MEMB     136      POPC     N        NTL     -0.600000       14.0070           0
     18912 MEMB     136      POPC     C12      CTL2    -0.100000       12.0110           0
     18913 MEMB     136      POPC     H12A     HL       0.250000       1.00800           0
     18914 MEMB     136      POPC     H12B     HL       0.250000       1.00800           0
     18915 MEMB     136      POPC     C13      CTL5    -0.350000       12.0110           0
     18916 MEMB     136      POPC     H13A     HL       0.250000       1.00800           0
     18917 MEMB     136      POPC     H13B     HL       0.250000       1.00800           0
     18918 MEMB     136      POPC     H13C     HL       0.250000       1.00800           0
     18919 MEMB     136      POPC     C14      CTL5    -0.350000       12.0110           0
     18920 MEMB     136      POPC     H14A     HL       0.250000       1.00800           0
     18921 MEMB     136      POPC     H14B     HL       0.250000       1.00800           0
     18922 MEMB     136      POPC     H14C     HL       0.250000       1.00800           0
     18923 MEMB     136      POPC     C15      CTL5    -0.350000       12.0110           0
     18924 MEMB     136      POPC     H15A     HL       0.250000       1.00800           0
     18925 MEMB     136      POPC     H15B     HL       0.250000       1.00800           0
     18926 MEMB     136      POPC     H15C     HL       0.250000       1.00800           0
     18927 MEMB     136      POPC     C11      CTL2    -0.800000E-01   12.0110           0
     18928 MEMB     136      POPC     H11A     HAL2     0.900000E-01   1.00800           0
     18929 MEMB     136      POPC     H11B     HAL2     0.900000E-01   1.00800           0
     18930 MEMB     136      POPC     P        PL       1.500000       30.9740           0
     18931 MEMB     136      POPC     O13      O2L     -0.780000       15.9994           0
     18932 MEMB     136      POPC     O14      O2L     -0.780000       15.9994           0
     18933 MEMB     136      POPC     O12      OSLP    -0.570000       15.9994           0
     18934 MEMB     136      POPC     O11      OSLP    -0.570000       15.9994           0
     18935 MEMB     136      POPC     C1       CTL2    -0.800000E-01   12.0110           0
     18936 MEMB     136      POPC     HA       HAL2     0.900000E-01   1.00800           0
     18937 MEMB     136      POPC     HB       HAL2     0.900000E-01   1.00800           0
     18938 MEMB     136      POPC     C2       CTL1     0.170000       12.0110           0
     18939 MEMB     136      POPC     HS       HAL1     0.900000E-01   1.00800           0
     18940 MEMB     136      POPC     O21      OSL     -0.490000       15.9994           0
     18941 MEMB     136      POPC     C21      CL       0.900000       12.0110           0
     18942 MEMB     136      POPC     O22      OBL     -0.630000       15.9994           0
     18943 MEMB     136      POPC     C22      CTL2    -0.220000       12.0110           0
     18944 MEMB     136      POPC     H2R      HAL2     0.900000E-01   1.00800           0
     18945 MEMB     136      POPC     H2S      HAL2     0.900000E-01   1.00800           0
     18946 MEMB     136      POPC     C3       CTL2     0.800000E-01   12.0110           0
     18947 MEMB     136      POPC     HX       HAL2     0.900000E-01   1.00800           0
     18948 MEMB     136      POPC     HY       HAL2     0.900000E-01   1.00800           0
     18949 MEMB     136      POPC     O31      OSL     -0.490000       15.9994           0
     18950 MEMB     136      POPC     C31      CL       0.900000       12.0110           0
     18951 MEMB     136      POPC     O32      OBL     -0.630000       15.9994           0
     18952 MEMB     136      POPC     C32      CTL2    -0.220000       12.0110           0
     18953 MEMB     136      POPC     H2X      HAL2     0.900000E-01   1.00800           0
     18954 MEMB     136      POPC     H2Y      HAL2     0.900000E-01   1.00800           0
     18955 MEMB     136      POPC     C23      CTL2    -0.180000       12.0110           0
     18956 MEMB     136      POPC     H3R      HAL2     0.900000E-01   1.00800           0
     18957 MEMB     136      POPC     H3S      HAL2     0.900000E-01   1.00800           0
     18958 MEMB     136      POPC     C24      CTL2    -0.180000       12.0110           0
     18959 MEMB     136      POPC     H4R      HAL2     0.900000E-01   1.00800           0
     18960 MEMB     136      POPC     H4S      HAL2     0.900000E-01   1.00800           0
     18961 MEMB     136      POPC     C25      CTL2    -0.180000       12.0110           0
     18962 MEMB     136      POPC     H5R      HAL2     0.900000E-01   1.00800           0
     18963 MEMB     136      POPC     H5S      HAL2     0.900000E-01   1.00800           0
     18964 MEMB     136      POPC     C26      CTL2    -0.180000       12.0110           0
     18965 MEMB     136      POPC     H6R      HAL2     0.900000E-01   1.00800           0
     18966 MEMB     136      POPC     H6S      HAL2     0.900000E-01   1.00800           0
     18967 MEMB     136      POPC     C27      CTL2    -0.180000       12.0110           0
     18968 MEMB     136      POPC     H7R      HAL2     0.900000E-01   1.00800           0
     18969 MEMB     136      POPC     H7S      HAL2     0.900000E-01   1.00800           0
     18970 MEMB     136      POPC     C28      CTL2    -0.180000       12.0110           0
     18971 MEMB     136      POPC     H8R      HAL2     0.900000E-01   1.00800           0
     18972 MEMB     136      POPC     H8S      HAL2     0.900000E-01   1.00800           0
     18973 MEMB     136      POPC     C29      CEL1    -0.150000       12.0110           0
     18974 MEMB     136      POPC     H91      HEL1     0.150000       1.00800           0
     18975 MEMB     136      POPC     C210     CEL1    -0.150000       12.0110           0
     18976 MEMB     136      POPC     H101     HEL1     0.150000       1.00800           0
     18977 MEMB     136      POPC     C211     CTL2    -0.180000       12.0110           0
     18978 MEMB     136      POPC     H11R     HAL2     0.900000E-01   1.00800           0
     18979 MEMB     136      POPC     H11S     HAL2     0.900000E-01   1.00800           0
     18980 MEMB     136      POPC     C212     CTL2    -0.180000       12.0110           0
     18981 MEMB     136      POPC     H12R     HAL2     0.900000E-01   1.00800           0
     18982 MEMB     136      POPC     H12S     HAL2     0.900000E-01   1.00800           0
     18983 MEMB     136      POPC     C213     CTL2    -0.180000       12.0110           0
     18984 MEMB     136      POPC     H13R     HAL2     0.900000E-01   1.00800           0
     18985 MEMB     136      POPC     H13S     HAL2     0.900000E-01   1.00800           0
     18986 MEMB     136      POPC     C214     CTL2    -0.180000       12.0110           0
     18987 MEMB     136      POPC     H14R     HAL2     0.900000E-01   1.00800           0
     18988 MEMB     136      POPC     H14S     HAL2     0.900000E-01   1.00800           0
     18989 MEMB     136      POPC     C215     CTL2    -0.180000       12.0110           0
     18990 MEMB     136      POPC     H15R     HAL2     0.900000E-01   1.00800           0
     18991 MEMB     136      POPC     H15S     HAL2     0.900000E-01   1.00800           0
     18992 MEMB     136      POPC     C216     CTL2    -0.180000       12.0110           0
     18993 MEMB     136      POPC     H16R     HAL2     0.900000E-01   1.00800           0
     18994 MEMB     136      POPC     H16S     HAL2     0.900000E-01   1.00800           0
     18995 MEMB     136      POPC     C217     CTL2    -0.180000       12.0110           0
     18996 MEMB     136      POPC     H17R     HAL2     0.900000E-01   1.00800           0
     18997 MEMB     136      POPC     H17S     HAL2     0.900000E-01   1.00800           0
     18998 MEMB     136      POPC     C218     CTL3    -0.270000       12.0110           0
     18999 MEMB     136      POPC     H18R     HAL3     0.900000E-01   1.00800           0
     19000 MEMB     136      POPC     H18S     HAL3     0.900000E-01   1.00800           0
     19001 MEMB     136      POPC     H18T     HAL3     0.900000E-01   1.00800           0
     19002 MEMB     136      POPC     C33      CTL2    -0.180000       12.0110           0
     19003 MEMB     136      POPC     H3X      HAL2     0.900000E-01   1.00800           0
     19004 MEMB     136      POPC     H3Y      HAL2     0.900000E-01   1.00800           0
     19005 MEMB     136      POPC     C34      CTL2    -0.180000       12.0110           0
     19006 MEMB     136      POPC     H4X      HAL2     0.900000E-01   1.00800           0
     19007 MEMB     136      POPC     H4Y      HAL2     0.900000E-01   1.00800           0
     19008 MEMB     136      POPC     C35      CTL2    -0.180000       12.0110           0
     19009 MEMB     136      POPC     H5X      HAL2     0.900000E-01   1.00800           0
     19010 MEMB     136      POPC     H5Y      HAL2     0.900000E-01   1.00800           0
     19011 MEMB     136      POPC     C36      CTL2    -0.180000       12.0110           0
     19012 MEMB     136      POPC     H6X      HAL2     0.900000E-01   1.00800           0
     19013 MEMB     136      POPC     H6Y      HAL2     0.900000E-01   1.00800           0
     19014 MEMB     136      POPC     C37      CTL2    -0.180000       12.0110           0
     19015 MEMB     136      POPC     H7X      HAL2     0.900000E-01   1.00800           0
     19016 MEMB     136      POPC     H7Y      HAL2     0.900000E-01   1.00800           0
     19017 MEMB     136      POPC     C38      CTL2    -0.180000       12.0110           0
     19018 MEMB     136      POPC     H8X      HAL2     0.900000E-01   1.00800           0
     19019 MEMB     136      POPC     H8Y      HAL2     0.900000E-01   1.00800           0
     19020 MEMB     136      POPC     C39      CTL2    -0.180000       12.0110           0
     19021 MEMB     136      POPC     H9X      HAL2     0.900000E-01   1.00800           0
     19022 MEMB     136      POPC     H9Y      HAL2     0.900000E-01   1.00800           0
     19023 MEMB     136      POPC     C310     CTL2    -0.180000       12.0110           0
     19024 MEMB     136      POPC     H10X     HAL2     0.900000E-01   1.00800           0
     19025 MEMB     136      POPC     H10Y     HAL2     0.900000E-01   1.00800           0
     19026 MEMB     136      POPC     C311     CTL2    -0.180000       12.0110           0
     19027 MEMB     136      POPC     H11X     HAL2     0.900000E-01   1.00800           0
     19028 MEMB     136      POPC     H11Y     HAL2     0.900000E-01   1.00800           0
     19029 MEMB     136      POPC     C312     CTL2    -0.180000       12.0110           0
     19030 MEMB     136      POPC     H12X     HAL2     0.900000E-01   1.00800           0
     19031 MEMB     136      POPC     H12Y     HAL2     0.900000E-01   1.00800           0
     19032 MEMB     136      POPC     C313     CTL2    -0.180000       12.0110           0
     19033 MEMB     136      POPC     H13X     HAL2     0.900000E-01   1.00800           0
     19034 MEMB     136      POPC     H13Y     HAL2     0.900000E-01   1.00800           0
     19035 MEMB     136      POPC     C314     CTL2    -0.180000       12.0110           0
     19036 MEMB     136      POPC     H14X     HAL2     0.900000E-01   1.00800           0
     19037 MEMB     136      POPC     H14Y     HAL2     0.900000E-01   1.00800           0
     19038 MEMB     136      POPC     C315     CTL2    -0.180000       12.0110           0
     19039 MEMB     136      POPC     H15X     HAL2     0.900000E-01   1.00800           0
     19040 MEMB     136      POPC     H15Y     HAL2     0.900000E-01   1.00800           0
     19041 MEMB     136      POPC     C316     CTL3    -0.270000       12.0110           0
     19042 MEMB     136      POPC     H16X     HAL3     0.900000E-01   1.00800           0
     19043 MEMB     136      POPC     H16Y     HAL3     0.900000E-01   1.00800           0
     19044 MEMB     136      POPC     H16Z     HAL3     0.900000E-01   1.00800           0
     19045 MEMB     140      POPC     N        NTL     -0.600000       14.0070           0
     19046 MEMB     140      POPC     C12      CTL2    -0.100000       12.0110           0
     19047 MEMB     140      POPC     H12A     HL       0.250000       1.00800           0
     19048 MEMB     140      POPC     H12B     HL       0.250000       1.00800           0
     19049 MEMB     140      POPC     C13      CTL5    -0.350000       12.0110           0
     19050 MEMB     140      POPC     H13A     HL       0.250000       1.00800           0
     19051 MEMB     140      POPC     H13B     HL       0.250000       1.00800           0
     19052 MEMB     140      POPC     H13C     HL       0.250000       1.00800           0
     19053 MEMB     140      POPC     C14      CTL5    -0.350000       12.0110           0
     19054 MEMB     140      POPC     H14A     HL       0.250000       1.00800           0
     19055 MEMB     140      POPC     H14B     HL       0.250000       1.00800           0
     19056 MEMB     140      POPC     H14C     HL       0.250000       1.00800           0
     19057 MEMB     140      POPC     C15      CTL5    -0.350000       12.0110           0
     19058 MEMB     140      POPC     H15A     HL       0.250000       1.00800           0
     19059 MEMB     140      POPC     H15B     HL       0.250000       1.00800           0
     19060 MEMB     140      POPC     H15C     HL       0.250000       1.00800           0
     19061 MEMB     140      POPC     C11      CTL2    -0.800000E-01   12.0110           0
     19062 MEMB     140      POPC     H11A     HAL2     0.900000E-01   1.00800           0
     19063 MEMB     140      POPC     H11B     HAL2     0.900000E-01   1.00800           0
     19064 MEMB     140      POPC     P        PL       1.500000       30.9740           0
     19065 MEMB     140      POPC     O13      O2L     -0.780000       15.9994           0
     19066 MEMB     140      POPC     O14      O2L     -0.780000       15.9994           0
     19067 MEMB     140      POPC     O12      OSLP    -0.570000       15.9994           0
     19068 MEMB     140      POPC     O11      OSLP    -0.570000       15.9994           0
     19069 MEMB     140      POPC     C1       CTL2    -0.800000E-01   12.0110           0
     19070 MEMB     140      POPC     HA       HAL2     0.900000E-01   1.00800           0
     19071 MEMB     140      POPC     HB       HAL2     0.900000E-01   1.00800           0
     19072 MEMB     140      POPC     C2       CTL1     0.170000       12.0110           0
     19073 MEMB     140      POPC     HS       HAL1     0.900000E-01   1.00800           0
     19074 MEMB     140      POPC     O21      OSL     -0.490000       15.9994           0
     19075 MEMB     140      POPC     C21      CL       0.900000       12.0110           0
     19076 MEMB     140      POPC     O22      OBL     -0.630000       15.9994           0
     19077 MEMB     140      POPC     C22      CTL2    -0.220000       12.0110           0
     19078 MEMB     140      POPC     H2R      HAL2     0.900000E-01   1.00800           0
     19079 MEMB     140      POPC     H2S      HAL2     0.900000E-01   1.00800           0
     19080 MEMB     140      POPC     C3       CTL2     0.800000E-01   12.0110           0
     19081 MEMB     140      POPC     HX       HAL2     0.900000E-01   1.00800           0
     19082 MEMB     140      POPC     HY       HAL2     0.900000E-01   1.00800           0
     19083 MEMB     140      POPC     O31      OSL     -0.490000       15.9994           0
     19084 MEMB     140      POPC     C31      CL       0.900000       12.0110           0
     19085 MEMB     140      POPC     O32      OBL     -0.630000       15.9994           0
     19086 MEMB     140      POPC     C32      CTL2    -0.220000       12.0110           0
     19087 MEMB     140      POPC     H2X      HAL2     0.900000E-01   1.00800           0
     19088 MEMB     140      POPC     H2Y      HAL2     0.900000E-01   1.00800           0
     19089 MEMB     140      POPC     C23      CTL2    -0.180000       12.0110           0
     19090 MEMB     140      POPC     H3R      HAL2     0.900000E-01   1.00800           0
     19091 MEMB     140      POPC     H3S      HAL2     0.900000E-01   1.00800           0
     19092 MEMB     140      POPC     C24      CTL2    -0.180000       12.0110           0
     19093 MEMB     140      POPC     H4R      HAL2     0.900000E-01   1.00800           0
     19094 MEMB     140      POPC     H4S      HAL2     0.900000E-01   1.00800           0
     19095 MEMB     140      POPC     C25      CTL2    -0.180000       12.0110           0
     19096 MEMB     140      POPC     H5R      HAL2     0.900000E-01   1.00800           0
     19097 MEMB     140      POPC     H5S      HAL2     0.900000E-01   1.00800           0
     19098 MEMB     140      POPC     C26      CTL2    -0.180000       12.0110           0
     19099 MEMB     140      POPC     H6R      HAL2     0.900000E-01   1.00800           0
     19100 MEMB     140      POPC     H6S      HAL2     0.900000E-01   1.00800           0
     19101 MEMB     140      POPC     C27      CTL2    -0.180000       12.0110           0
     19102 MEMB     140      POPC     H7R      HAL2     0.900000E-01   1.00800           0
     19103 MEMB     140      POPC     H7S      HAL2     0.900000E-01   1.00800           0
     19104 MEMB     140      POPC     C28      CTL2    -0.180000       12.0110           0
     19105 MEMB     140      POPC     H8R      HAL2     0.900000E-01   1.00800           0
     19106 MEMB     140      POPC     H8S      HAL2     0.900000E-01   1.00800           0
     19107 MEMB     140      POPC     C29      CEL1    -0.150000       12.0110           0
     19108 MEMB     140      POPC     H91      HEL1     0.150000       1.00800           0
     19109 MEMB     140      POPC     C210     CEL1    -0.150000       12.0110           0
     19110 MEMB     140      POPC     H101     HEL1     0.150000       1.00800           0
     19111 MEMB     140      POPC     C211     CTL2    -0.180000       12.0110           0
     19112 MEMB     140      POPC     H11R     HAL2     0.900000E-01   1.00800           0
     19113 MEMB     140      POPC     H11S     HAL2     0.900000E-01   1.00800           0
     19114 MEMB     140      POPC     C212     CTL2    -0.180000       12.0110           0
     19115 MEMB     140      POPC     H12R     HAL2     0.900000E-01   1.00800           0
     19116 MEMB     140      POPC     H12S     HAL2     0.900000E-01   1.00800           0
     19117 MEMB     140      POPC     C213     CTL2    -0.180000       12.0110           0
     19118 MEMB     140      POPC     H13R     HAL2     0.900000E-01   1.00800           0
     19119 MEMB     140      POPC     H13S     HAL2     0.900000E-01   1.00800           0
     19120 MEMB     140      POPC     C214     CTL2    -0.180000       12.0110           0
     19121 MEMB     140      POPC     H14R     HAL2     0.900000E-01   1.00800           0
     19122 MEMB     140      POPC     H14S     HAL2     0.900000E-01   1.00800           0
     19123 MEMB     140      POPC     C215     CTL2    -0.180000       12.0110           0
     19124 MEMB     140      POPC     H15R     HAL2     0.900000E-01   1.00800           0
     19125 MEMB     140      POPC     H15S     HAL2     0.900000E-01   1.00800           0
     19126 MEMB     140      POPC     C216     CTL2    -0.180000       12.0110           0
     19127 MEMB     140      POPC     H16R     HAL2     0.900000E-01   1.00800           0
     19128 MEMB     140      POPC     H16S     HAL2     0.900000E-01   1.00800           0
     19129 MEMB     140      POPC     C217     CTL2    -0.180000       12.0110           0
     19130 MEMB     140      POPC     H17R     HAL2     0.900000E-01   1.00800           0
     19131 MEMB     140      POPC     H17S     HAL2     0.900000E-01   1.00800           0
     19132 MEMB     140      POPC     C218     CTL3    -0.270000       12.0110           0
     19133 MEMB     140      POPC     H18R     HAL3     0.900000E-01   1.00800           0
     19134 MEMB     140      POPC     H18S     HAL3     0.900000E-01   1.00800           0
     19135 MEMB     140      POPC     H18T     HAL3     0.900000E-01   1.00800           0
     19136 MEMB     140      POPC     C33      CTL2    -0.180000       12.0110           0
     19137 MEMB     140      POPC     H3X      HAL2     0.900000E-01   1.00800           0
     19138 MEMB     140      POPC     H3Y      HAL2     0.900000E-01   1.00800           0
     19139 MEMB     140      POPC     C34      CTL2    -0.180000       12.0110           0
     19140 MEMB     140      POPC     H4X      HAL2     0.900000E-01   1.00800           0
     19141 MEMB     140      POPC     H4Y      HAL2     0.900000E-01   1.00800           0
     19142 MEMB     140      POPC     C35      CTL2    -0.180000       12.0110           0
     19143 MEMB     140      POPC     H5X      HAL2     0.900000E-01   1.00800           0
     19144 MEMB     140      POPC     H5Y      HAL2     0.900000E-01   1.00800           0
     19145 MEMB     140      POPC     C36      CTL2    -0.180000       12.0110           0
     19146 MEMB     140      POPC     H6X      HAL2     0.900000E-01   1.00800           0
     19147 MEMB     140      POPC     H6Y      HAL2     0.900000E-01   1.00800           0
     19148 MEMB     140      POPC     C37      CTL2    -0.180000       12.0110           0
     19149 MEMB     140      POPC     H7X      HAL2     0.900000E-01   1.00800           0
     19150 MEMB     140      POPC     H7Y      HAL2     0.900000E-01   1.00800           0
     19151 MEMB     140      POPC     C38      CTL2    -0.180000       12.0110           0
     19152 MEMB     140      POPC     H8X      HAL2     0.900000E-01   1.00800           0
     19153 MEMB     140      POPC     H8Y      HAL2     0.900000E-01   1.00800           0
     19154 MEMB     140      POPC     C39      CTL2    -0.180000       12.0110           0
     19155 MEMB     140      POPC     H9X      HAL2     0.900000E-01   1.00800           0
     19156 MEMB     140      POPC     H9Y      HAL2     0.900000E-01   1.00800           0
     19157 MEMB     140      POPC     C310     CTL2    -0.180000       12.0110           0
     19158 MEMB     140      POPC     H10X     HAL2     0.900000E-01   1.00800           0
     19159 MEMB     140      POPC     H10Y     HAL2     0.900000E-01   1.00800           0
     19160 MEMB     140      POPC     C311     CTL2    -0.180000       12.0110           0
     19161 MEMB     140      POPC     H11X     HAL2     0.900000E-01   1.00800           0
     19162 MEMB     140      POPC     H11Y     HAL2     0.900000E-01   1.00800           0
     19163 MEMB     140      POPC     C312     CTL2    -0.180000       12.0110           0
     19164 MEMB     140      POPC     H12X     HAL2     0.900000E-01   1.00800           0
     19165 MEMB     140      POPC     H12Y     HAL2     0.900000E-01   1.00800           0
     19166 MEMB     140      POPC     C313     CTL2    -0.180000       12.0110           0
     19167 MEMB     140      POPC     H13X     HAL2     0.900000E-01   1.00800           0
     19168 MEMB     140      POPC     H13Y     HAL2     0.900000E-01   1.00800           0
     19169 MEMB     140      POPC     C314     CTL2    -0.180000       12.0110           0
     19170 MEMB     140      POPC     H14X     HAL2     0.900000E-01   1.00800           0
     19171 MEMB     140      POPC     H14Y     HAL2     0.900000E-01   1.00800           0
     19172 MEMB     140      POPC     C315     CTL2    -0.180000       12.0110           0
     19173 MEMB     140      POPC     H15X     HAL2     0.900000E-01   1.00800           0
     19174 MEMB     140      POPC     H15Y     HAL2     0.900000E-01   1.00800           0
     19175 MEMB     140      POPC     C316     CTL3    -0.270000       12.0110           0
     19176 MEMB     140      POPC     H16X     HAL3     0.900000E-01   1.00800           0
     19177 MEMB     140      POPC     H16Y     HAL3     0.900000E-01   1.00800           0
     19178 MEMB     140      POPC     H16Z     HAL3     0.900000E-01   1.00800           0
     19179 MEMB     146      POPC     N        NTL     -0.600000       14.0070           0
     19180 MEMB     146      POPC     C12      CTL2    -0.100000       12.0110           0
     19181 MEMB     146      POPC     H12A     HL       0.250000       1.00800           0
     19182 MEMB     146      POPC     H12B     HL       0.250000       1.00800           0
     19183 MEMB     146      POPC     C13      CTL5    -0.350000       12.0110           0
     19184 MEMB     146      POPC     H13A     HL       0.250000       1.00800           0
     19185 MEMB     146      POPC     H13B     HL       0.250000       1.00800           0
     19186 MEMB     146      POPC     H13C     HL       0.250000       1.00800           0
     19187 MEMB     146      POPC     C14      CTL5    -0.350000       12.0110           0
     19188 MEMB     146      POPC     H14A     HL       0.250000       1.00800           0
     19189 MEMB     146      POPC     H14B     HL       0.250000       1.00800           0
     19190 MEMB     146      POPC     H14C     HL       0.250000       1.00800           0
     19191 MEMB     146      POPC     C15      CTL5    -0.350000       12.0110           0
     19192 MEMB     146      POPC     H15A     HL       0.250000       1.00800           0
     19193 MEMB     146      POPC     H15B     HL       0.250000       1.00800           0
     19194 MEMB     146      POPC     H15C     HL       0.250000       1.00800           0
     19195 MEMB     146      POPC     C11      CTL2    -0.800000E-01   12.0110           0
     19196 MEMB     146      POPC     H11A     HAL2     0.900000E-01   1.00800           0
     19197 MEMB     146      POPC     H11B     HAL2     0.900000E-01   1.00800           0
     19198 MEMB     146      POPC     P        PL       1.500000       30.9740           0
     19199 MEMB     146      POPC     O13      O2L     -0.780000       15.9994           0
     19200 MEMB     146      POPC     O14      O2L     -0.780000       15.9994           0
     19201 MEMB     146      POPC     O12      OSLP    -0.570000       15.9994           0
     19202 MEMB     146      POPC     O11      OSLP    -0.570000       15.9994           0
     19203 MEMB     146      POPC     C1       CTL2    -0.800000E-01   12.0110           0
     19204 MEMB     146      POPC     HA       HAL2     0.900000E-01   1.00800           0
     19205 MEMB     146      POPC     HB       HAL2     0.900000E-01   1.00800           0
     19206 MEMB     146      POPC     C2       CTL1     0.170000       12.0110           0
     19207 MEMB     146      POPC     HS       HAL1     0.900000E-01   1.00800           0
     19208 MEMB     146      POPC     O21      OSL     -0.490000       15.9994           0
     19209 MEMB     146      POPC     C21      CL       0.900000       12.0110           0
     19210 MEMB     146      POPC     O22      OBL     -0.630000       15.9994           0
     19211 MEMB     146      POPC     C22      CTL2    -0.220000       12.0110           0
     19212 MEMB     146      POPC     H2R      HAL2     0.900000E-01   1.00800           0
     19213 MEMB     146      POPC     H2S      HAL2     0.900000E-01   1.00800           0
     19214 MEMB     146      POPC     C3       CTL2     0.800000E-01   12.0110           0
     19215 MEMB     146      POPC     HX       HAL2     0.900000E-01   1.00800           0
     19216 MEMB     146      POPC     HY       HAL2     0.900000E-01   1.00800           0
     19217 MEMB     146      POPC     O31      OSL     -0.490000       15.9994           0
     19218 MEMB     146      POPC     C31      CL       0.900000       12.0110           0
     19219 MEMB     146      POPC     O32      OBL     -0.630000       15.9994           0
     19220 MEMB     146      POPC     C32      CTL2    -0.220000       12.0110           0
     19221 MEMB     146      POPC     H2X      HAL2     0.900000E-01   1.00800           0
     19222 MEMB     146      POPC     H2Y      HAL2     0.900000E-01   1.00800           0
     19223 MEMB     146      POPC     C23      CTL2    -0.180000       12.0110           0
     19224 MEMB     146      POPC     H3R      HAL2     0.900000E-01   1.00800           0
     19225 MEMB     146      POPC     H3S      HAL2     0.900000E-01   1.00800           0
     19226 MEMB     146      POPC     C24      CTL2    -0.180000       12.0110           0
     19227 MEMB     146      POPC     H4R      HAL2     0.900000E-01   1.00800           0
     19228 MEMB     146      POPC     H4S      HAL2     0.900000E-01   1.00800           0
     19229 MEMB     146      POPC     C25      CTL2    -0.180000       12.0110           0
     19230 MEMB     146      POPC     H5R      HAL2     0.900000E-01   1.00800           0
     19231 MEMB     146      POPC     H5S      HAL2     0.900000E-01   1.00800           0
     19232 MEMB     146      POPC     C26      CTL2    -0.180000       12.0110           0
     19233 MEMB     146      POPC     H6R      HAL2     0.900000E-01   1.00800           0
     19234 MEMB     146      POPC     H6S      HAL2     0.900000E-01   1.00800           0
     19235 MEMB     146      POPC     C27      CTL2    -0.180000       12.0110           0
     19236 MEMB     146      POPC     H7R      HAL2     0.900000E-01   1.00800           0
     19237 MEMB     146      POPC     H7S      HAL2     0.900000E-01   1.00800           0
     19238 MEMB     146      POPC     C28      CTL2    -0.180000       12.0110           0
     19239 MEMB     146      POPC     H8R      HAL2     0.900000E-01   1.00800           0
     19240 MEMB     146      POPC     H8S      HAL2     0.900000E-01   1.00800           0
     19241 MEMB     146      POPC     C29      CEL1    -0.150000       12.0110           0
     19242 MEMB     146      POPC     H91      HEL1     0.150000       1.00800           0
     19243 MEMB     146      POPC     C210     CEL1    -0.150000       12.0110           0
     19244 MEMB     146      POPC     H101     HEL1     0.150000       1.00800           0
     19245 MEMB     146      POPC     C211     CTL2    -0.180000       12.0110           0
     19246 MEMB     146      POPC     H11R     HAL2     0.900000E-01   1.00800           0
     19247 MEMB     146      POPC     H11S     HAL2     0.900000E-01   1.00800           0
     19248 MEMB     146      POPC     C212     CTL2    -0.180000       12.0110           0
     19249 MEMB     146      POPC     H12R     HAL2     0.900000E-01   1.00800           0
     19250 MEMB     146      POPC     H12S     HAL2     0.900000E-01   1.00800           0
     19251 MEMB     146      POPC     C213     CTL2    -0.180000       12.0110           0
     19252 MEMB     146      POPC     H13R     HAL2     0.900000E-01   1.00800           0
     19253 MEMB     146      POPC     H13S     HAL2     0.900000E-01   1.00800           0
     19254 MEMB     146      POPC     C214     CTL2    -0.180000       12.0110           0
     19255 MEMB     146      POPC     H14R     HAL2     0.900000E-01   1.00800           0
     19256 MEMB     146      POPC     H14S     HAL2     0.900000E-01   1.00800           0
     19257 MEMB     146      POPC     C215     CTL2    -0.180000       12.0110           0
     19258 MEMB     146      POPC     H15R     HAL2     0.900000E-01   1.00800           0
     19259 MEMB     146      POPC     H15S     HAL2     0.900000E-01   1.00800           0
     19260 MEMB     146      POPC     C216     CTL2    -0.180000       12.0110           0
     19261 MEMB     146      POPC     H16R     HAL2     0.900000E-01   1.00800           0
     19262 MEMB     146      POPC     H16S     HAL2     0.900000E-01   1.00800           0
     19263 MEMB     146      POPC     C217     CTL2    -0.180000       12.0110           0
     19264 MEMB     146      POPC     H17R     HAL2     0.900000E-01   1.00800           0
     19265 MEMB     146      POPC     H17S     HAL2     0.900000E-01   1.00800           0
     19266 MEMB     146      POPC     C218     CTL3    -0.270000       12.0110           0
     19267 MEMB     146      POPC     H18R     HAL3     0.900000E-01   1.00800           0
     19268 MEMB     146      POPC     H18S     HAL3     0.900000E-01   1.00800           0
     19269 MEMB     146      POPC     H18T     HAL3     0.900000E-01   1.00800           0
     19270 MEMB     146      POPC     C33      CTL2    -0.180000       12.0110           0
     19271 MEMB     146      POPC     H3X      HAL2     0.900000E-01   1.00800           0
     19272 MEMB     146      POPC     H3Y      HAL2     0.900000E-01   1.00800           0
     19273 MEMB     146      POPC     C34      CTL2    -0.180000       12.0110           0
     19274 MEMB     146      POPC     H4X      HAL2     0.900000E-01   1.00800           0
     19275 MEMB     146      POPC     H4Y      HAL2     0.900000E-01   1.00800           0
     19276 MEMB     146      POPC     C35      CTL2    -0.180000       12.0110           0
     19277 MEMB     146      POPC     H5X      HAL2     0.900000E-01   1.00800           0
     19278 MEMB     146      POPC     H5Y      HAL2     0.900000E-01   1.00800           0
     19279 MEMB     146      POPC     C36      CTL2    -0.180000       12.0110           0
     19280 MEMB     146      POPC     H6X      HAL2     0.900000E-01   1.00800           0
     19281 MEMB     146      POPC     H6Y      HAL2     0.900000E-01   1.00800           0
     19282 MEMB     146      POPC     C37      CTL2    -0.180000       12.0110           0
     19283 MEMB     146      POPC     H7X      HAL2     0.900000E-01   1.00800           0
     19284 MEMB     146      POPC     H7Y      HAL2     0.900000E-01   1.00800           0
     19285 MEMB     146      POPC     C38      CTL2    -0.180000       12.0110           0
     19286 MEMB     146      POPC     H8X      HAL2     0.900000E-01   1.00800           0
     19287 MEMB     146      POPC     H8Y      HAL2     0.900000E-01   1.00800           0
     19288 MEMB     146      POPC     C39      CTL2    -0.180000       12.0110           0
     19289 MEMB     146      POPC     H9X      HAL2     0.900000E-01   1.00800           0
     19290 MEMB     146      POPC     H9Y      HAL2     0.900000E-01   1.00800           0
     19291 MEMB     146      POPC     C310     CTL2    -0.180000       12.0110           0
     19292 MEMB     146      POPC     H10X     HAL2     0.900000E-01   1.00800           0
     19293 MEMB     146      POPC     H10Y     HAL2     0.900000E-01   1.00800           0
     19294 MEMB     146      POPC     C311     CTL2    -0.180000       12.0110           0
     19295 MEMB     146      POPC     H11X     HAL2     0.900000E-01   1.00800           0
     19296 MEMB     146      POPC     H11Y     HAL2     0.900000E-01   1.00800           0
     19297 MEMB     146      POPC     C312     CTL2    -0.180000       12.0110           0
     19298 MEMB     146      POPC     H12X     HAL2     0.900000E-01   1.00800           0
     19299 MEMB     146      POPC     H12Y     HAL2     0.900000E-01   1.00800           0
     19300 MEMB     146      POPC     C313     CTL2    -0.180000       12.0110           0
     19301 MEMB     146      POPC     H13X     HAL2     0.900000E-01   1.00800           0
     19302 MEMB     146      POPC     H13Y     HAL2     0.900000E-01   1.00800           0
     19303 MEMB     146      POPC     C314     CTL2    -0.180000       12.0110           0
     19304 MEMB     146      POPC     H14X     HAL2     0.900000E-01   1.00800           0
     19305 MEMB     146      POPC     H14Y     HAL2     0.900000E-01   1.00800           0
     19306 MEMB     146      POPC     C315     CTL2    -0.180000       12.0110           0
     19307 MEMB     146      POPC     H15X     HAL2     0.900000E-01   1.00800           0
     19308 MEMB     146      POPC     H15Y     HAL2     0.900000E-01   1.00800           0
     19309 MEMB     146      POPC     C316     CTL3    -0.270000       12.0110           0
     19310 MEMB     146      POPC     H16X     HAL3     0.900000E-01   1.00800           0
     19311 MEMB     146      POPC     H16Y     HAL3     0.900000E-01   1.00800           0
     19312 MEMB     146      POPC     H16Z     HAL3     0.900000E-01   1.00800           0
     19313 MEMB     151      POPC     N        NTL     -0.600000       14.0070           0
     19314 MEMB     151      POPC     C12      CTL2    -0.100000       12.0110           0
     19315 MEMB     151      POPC     H12A     HL       0.250000       1.00800           0
     19316 MEMB     151      POPC     H12B     HL       0.250000       1.00800           0
     19317 MEMB     151      POPC     C13      CTL5    -0.350000       12.0110           0
     19318 MEMB     151      POPC     H13A     HL       0.250000       1.00800           0
     19319 MEMB     151      POPC     H13B     HL       0.250000       1.00800           0
     19320 MEMB     151      POPC     H13C     HL       0.250000       1.00800           0
     19321 MEMB     151      POPC     C14      CTL5    -0.350000       12.0110           0
     19322 MEMB     151      POPC     H14A     HL       0.250000       1.00800           0
     19323 MEMB     151      POPC     H14B     HL       0.250000       1.00800           0
     19324 MEMB     151      POPC     H14C     HL       0.250000       1.00800           0
     19325 MEMB     151      POPC     C15      CTL5    -0.350000       12.0110           0
     19326 MEMB     151      POPC     H15A     HL       0.250000       1.00800           0
     19327 MEMB     151      POPC     H15B     HL       0.250000       1.00800           0
     19328 MEMB     151      POPC     H15C     HL       0.250000       1.00800           0
     19329 MEMB     151      POPC     C11      CTL2    -0.800000E-01   12.0110           0
     19330 MEMB     151      POPC     H11A     HAL2     0.900000E-01   1.00800           0
     19331 MEMB     151      POPC     H11B     HAL2     0.900000E-01   1.00800           0
     19332 MEMB     151      POPC     P        PL       1.500000       30.9740           0
     19333 MEMB     151      POPC     O13      O2L     -0.780000       15.9994           0
     19334 MEMB     151      POPC     O14      O2L     -0.780000       15.9994           0
     19335 MEMB     151      POPC     O12      OSLP    -0.570000       15.9994           0
     19336 MEMB     151      POPC     O11      OSLP    -0.570000       15.9994           0
     19337 MEMB     151      POPC     C1       CTL2    -0.800000E-01   12.0110           0
     19338 MEMB     151      POPC     HA       HAL2     0.900000E-01   1.00800           0
     19339 MEMB     151      POPC     HB       HAL2     0.900000E-01   1.00800           0
     19340 MEMB     151      POPC     C2       CTL1     0.170000       12.0110           0
     19341 MEMB     151      POPC     HS       HAL1     0.900000E-01   1.00800           0
     19342 MEMB     151      POPC     O21      OSL     -0.490000       15.9994           0
     19343 MEMB     151      POPC     C21      CL       0.900000       12.0110           0
     19344 MEMB     151      POPC     O22      OBL     -0.630000       15.9994           0
     19345 MEMB     151      POPC     C22      CTL2    -0.220000       12.0110           0
     19346 MEMB     151      POPC     H2R      HAL2     0.900000E-01   1.00800           0
     19347 MEMB     151      POPC     H2S      HAL2     0.900000E-01   1.00800           0
     19348 MEMB     151      POPC     C3       CTL2     0.800000E-01   12.0110           0
     19349 MEMB     151      POPC     HX       HAL2     0.900000E-01   1.00800           0
     19350 MEMB     151      POPC     HY       HAL2     0.900000E-01   1.00800           0
     19351 MEMB     151      POPC     O31      OSL     -0.490000       15.9994           0
     19352 MEMB     151      POPC     C31      CL       0.900000       12.0110           0
     19353 MEMB     151      POPC     O32      OBL     -0.630000       15.9994           0
     19354 MEMB     151      POPC     C32      CTL2    -0.220000       12.0110           0
     19355 MEMB     151      POPC     H2X      HAL2     0.900000E-01   1.00800           0
     19356 MEMB     151      POPC     H2Y      HAL2     0.900000E-01   1.00800           0
     19357 MEMB     151      POPC     C23      CTL2    -0.180000       12.0110           0
     19358 MEMB     151      POPC     H3R      HAL2     0.900000E-01   1.00800           0
     19359 MEMB     151      POPC     H3S      HAL2     0.900000E-01   1.00800           0
     19360 MEMB     151      POPC     C24      CTL2    -0.180000       12.0110           0
     19361 MEMB     151      POPC     H4R      HAL2     0.900000E-01   1.00800           0
     19362 MEMB     151      POPC     H4S      HAL2     0.900000E-01   1.00800           0
     19363 MEMB     151      POPC     C25      CTL2    -0.180000       12.0110           0
     19364 MEMB     151      POPC     H5R      HAL2     0.900000E-01   1.00800           0
     19365 MEMB     151      POPC     H5S      HAL2     0.900000E-01   1.00800           0
     19366 MEMB     151      POPC     C26      CTL2    -0.180000       12.0110           0
     19367 MEMB     151      POPC     H6R      HAL2     0.900000E-01   1.00800           0
     19368 MEMB     151      POPC     H6S      HAL2     0.900000E-01   1.00800           0
     19369 MEMB     151      POPC     C27      CTL2    -0.180000       12.0110           0
     19370 MEMB     151      POPC     H7R      HAL2     0.900000E-01   1.00800           0
     19371 MEMB     151      POPC     H7S      HAL2     0.900000E-01   1.00800           0
     19372 MEMB     151      POPC     C28      CTL2    -0.180000       12.0110           0
     19373 MEMB     151      POPC     H8R      HAL2     0.900000E-01   1.00800           0
     19374 MEMB     151      POPC     H8S      HAL2     0.900000E-01   1.00800           0
     19375 MEMB     151      POPC     C29      CEL1    -0.150000       12.0110           0
     19376 MEMB     151      POPC     H91      HEL1     0.150000       1.00800           0
     19377 MEMB     151      POPC     C210     CEL1    -0.150000       12.0110           0
     19378 MEMB     151      POPC     H101     HEL1     0.150000       1.00800           0
     19379 MEMB     151      POPC     C211     CTL2    -0.180000       12.0110           0
     19380 MEMB     151      POPC     H11R     HAL2     0.900000E-01   1.00800           0
     19381 MEMB     151      POPC     H11S     HAL2     0.900000E-01   1.00800           0
     19382 MEMB     151      POPC     C212     CTL2    -0.180000       12.0110           0
     19383 MEMB     151      POPC     H12R     HAL2     0.900000E-01   1.00800           0
     19384 MEMB     151      POPC     H12S     HAL2     0.900000E-01   1.00800           0
     19385 MEMB     151      POPC     C213     CTL2    -0.180000       12.0110           0
     19386 MEMB     151      POPC     H13R     HAL2     0.900000E-01   1.00800           0
     19387 MEMB     151      POPC     H13S     HAL2     0.900000E-01   1.00800           0
     19388 MEMB     151      POPC     C214     CTL2    -0.180000       12.0110           0
     19389 MEMB     151      POPC     H14R     HAL2     0.900000E-01   1.00800           0
     19390 MEMB     151      POPC     H14S     HAL2     0.900000E-01   1.00800           0
     19391 MEMB     151      POPC     C215     CTL2    -0.180000       12.0110           0
     19392 MEMB     151      POPC     H15R     HAL2     0.900000E-01   1.00800           0
     19393 MEMB     151      POPC     H15S     HAL2     0.900000E-01   1.00800           0
     19394 MEMB     151      POPC     C216     CTL2    -0.180000       12.0110           0
     19395 MEMB     151      POPC     H16R     HAL2     0.900000E-01   1.00800           0
     19396 MEMB     151      POPC     H16S     HAL2     0.900000E-01   1.00800           0
     19397 MEMB     151      POPC     C217     CTL2    -0.180000       12.0110           0
     19398 MEMB     151      POPC     H17R     HAL2     0.900000E-01   1.00800           0
     19399 MEMB     151      POPC     H17S     HAL2     0.900000E-01   1.00800           0
     19400 MEMB     151      POPC     C218     CTL3    -0.270000       12.0110           0
     19401 MEMB     151      POPC     H18R     HAL3     0.900000E-01   1.00800           0
     19402 MEMB     151      POPC     H18S     HAL3     0.900000E-01   1.00800           0
     19403 MEMB     151      POPC     H18T     HAL3     0.900000E-01   1.00800           0
     19404 MEMB     151      POPC     C33      CTL2    -0.180000       12.0110           0
     19405 MEMB     151      POPC     H3X      HAL2     0.900000E-01   1.00800           0
     19406 MEMB     151      POPC     H3Y      HAL2     0.900000E-01   1.00800           0
     19407 MEMB     151      POPC     C34      CTL2    -0.180000       12.0110           0
     19408 MEMB     151      POPC     H4X      HAL2     0.900000E-01   1.00800           0
     19409 MEMB     151      POPC     H4Y      HAL2     0.900000E-01   1.00800           0
     19410 MEMB     151      POPC     C35      CTL2    -0.180000       12.0110           0
     19411 MEMB     151      POPC     H5X      HAL2     0.900000E-01   1.00800           0
     19412 MEMB     151      POPC     H5Y      HAL2     0.900000E-01   1.00800           0
     19413 MEMB     151      POPC     C36      CTL2    -0.180000       12.0110           0
     19414 MEMB     151      POPC     H6X      HAL2     0.900000E-01   1.00800           0
     19415 MEMB     151      POPC     H6Y      HAL2     0.900000E-01   1.00800           0
     19416 MEMB     151      POPC     C37      CTL2    -0.180000       12.0110           0
     19417 MEMB     151      POPC     H7X      HAL2     0.900000E-01   1.00800           0
     19418 MEMB     151      POPC     H7Y      HAL2     0.900000E-01   1.00800           0
     19419 MEMB     151      POPC     C38      CTL2    -0.180000       12.0110           0
     19420 MEMB     151      POPC     H8X      HAL2     0.900000E-01   1.00800           0
     19421 MEMB     151      POPC     H8Y      HAL2     0.900000E-01   1.00800           0
     19422 MEMB     151      POPC     C39      CTL2    -0.180000       12.0110           0
     19423 MEMB     151      POPC     H9X      HAL2     0.900000E-01   1.00800           0
     19424 MEMB     151      POPC     H9Y      HAL2     0.900000E-01   1.00800           0
     19425 MEMB     151      POPC     C310     CTL2    -0.180000       12.0110           0
     19426 MEMB     151      POPC     H10X     HAL2     0.900000E-01   1.00800           0
     19427 MEMB     151      POPC     H10Y     HAL2     0.900000E-01   1.00800           0
     19428 MEMB     151      POPC     C311     CTL2    -0.180000       12.0110           0
     19429 MEMB     151      POPC     H11X     HAL2     0.900000E-01   1.00800           0
     19430 MEMB     151      POPC     H11Y     HAL2     0.900000E-01   1.00800           0
     19431 MEMB     151      POPC     C312     CTL2    -0.180000       12.0110           0
     19432 MEMB     151      POPC     H12X     HAL2     0.900000E-01   1.00800           0
     19433 MEMB     151      POPC     H12Y     HAL2     0.900000E-01   1.00800           0
     19434 MEMB     151      POPC     C313     CTL2    -0.180000       12.0110           0
     19435 MEMB     151      POPC     H13X     HAL2     0.900000E-01   1.00800           0
     19436 MEMB     151      POPC     H13Y     HAL2     0.900000E-01   1.00800           0
     19437 MEMB     151      POPC     C314     CTL2    -0.180000       12.0110           0
     19438 MEMB     151      POPC     H14X     HAL2     0.900000E-01   1.00800           0
     19439 MEMB     151      POPC     H14Y     HAL2     0.900000E-01   1.00800           0
     19440 MEMB     151      POPC     C315     CTL2    -0.180000       12.0110           0
     19441 MEMB     151      POPC     H15X     HAL2     0.900000E-01   1.00800           0
     19442 MEMB     151      POPC     H15Y     HAL2     0.900000E-01   1.00800           0
     19443 MEMB     151      POPC     C316     CTL3    -0.270000       12.0110           0
     19444 MEMB     151      POPC     H16X     HAL3     0.900000E-01   1.00800           0
     19445 MEMB     151      POPC     H16Y     HAL3     0.900000E-01   1.00800           0
     19446 MEMB     151      POPC     H16Z     HAL3     0.900000E-01   1.00800           0
     19447 MEMB     155      POPC     N        NTL     -0.600000       14.0070           0
     19448 MEMB     155      POPC     C12      CTL2    -0.100000       12.0110           0
     19449 MEMB     155      POPC     H12A     HL       0.250000       1.00800           0
     19450 MEMB     155      POPC     H12B     HL       0.250000       1.00800           0
     19451 MEMB     155      POPC     C13      CTL5    -0.350000       12.0110           0
     19452 MEMB     155      POPC     H13A     HL       0.250000       1.00800           0
     19453 MEMB     155      POPC     H13B     HL       0.250000       1.00800           0
     19454 MEMB     155      POPC     H13C     HL       0.250000       1.00800           0
     19455 MEMB     155      POPC     C14      CTL5    -0.350000       12.0110           0
     19456 MEMB     155      POPC     H14A     HL       0.250000       1.00800           0
     19457 MEMB     155      POPC     H14B     HL       0.250000       1.00800           0
     19458 MEMB     155      POPC     H14C     HL       0.250000       1.00800           0
     19459 MEMB     155      POPC     C15      CTL5    -0.350000       12.0110           0
     19460 MEMB     155      POPC     H15A     HL       0.250000       1.00800           0
     19461 MEMB     155      POPC     H15B     HL       0.250000       1.00800           0
     19462 MEMB     155      POPC     H15C     HL       0.250000       1.00800           0
     19463 MEMB     155      POPC     C11      CTL2    -0.800000E-01   12.0110           0
     19464 MEMB     155      POPC     H11A     HAL2     0.900000E-01   1.00800           0
     19465 MEMB     155      POPC     H11B     HAL2     0.900000E-01   1.00800           0
     19466 MEMB     155      POPC     P        PL       1.500000       30.9740           0
     19467 MEMB     155      POPC     O13      O2L     -0.780000       15.9994           0
     19468 MEMB     155      POPC     O14      O2L     -0.780000       15.9994           0
     19469 MEMB     155      POPC     O12      OSLP    -0.570000       15.9994           0
     19470 MEMB     155      POPC     O11      OSLP    -0.570000       15.9994           0
     19471 MEMB     155      POPC     C1       CTL2    -0.800000E-01   12.0110           0
     19472 MEMB     155      POPC     HA       HAL2     0.900000E-01   1.00800           0
     19473 MEMB     155      POPC     HB       HAL2     0.900000E-01   1.00800           0
     19474 MEMB     155      POPC     C2       CTL1     0.170000       12.0110           0
     19475 MEMB     155      POPC     HS       HAL1     0.900000E-01   1.00800           0
     19476 MEMB     155      POPC     O21      OSL     -0.490000       15.9994           0
     19477 MEMB     155      POPC     C21      CL       0.900000       12.0110           0
     19478 MEMB     155      POPC     O22      OBL     -0.630000       15.9994           0
     19479 MEMB     155      POPC     C22      CTL2    -0.220000       12.0110           0
     19480 MEMB     155      POPC     H2R      HAL2     0.900000E-01   1.00800           0
     19481 MEMB     155      POPC     H2S      HAL2     0.900000E-01   1.00800           0
     19482 MEMB     155      POPC     C3       CTL2     0.800000E-01   12.0110           0
     19483 MEMB     155      POPC     HX       HAL2     0.900000E-01   1.00800           0
     19484 MEMB     155      POPC     HY       HAL2     0.900000E-01   1.00800           0
     19485 MEMB     155      POPC     O31      OSL     -0.490000       15.9994           0
     19486 MEMB     155      POPC     C31      CL       0.900000       12.0110           0
     19487 MEMB     155      POPC     O32      OBL     -0.630000       15.9994           0
     19488 MEMB     155      POPC     C32      CTL2    -0.220000       12.0110           0
     19489 MEMB     155      POPC     H2X      HAL2     0.900000E-01   1.00800           0
     19490 MEMB     155      POPC     H2Y      HAL2     0.900000E-01   1.00800           0
     19491 MEMB     155      POPC     C23      CTL2    -0.180000       12.0110           0
     19492 MEMB     155      POPC     H3R      HAL2     0.900000E-01   1.00800           0
     19493 MEMB     155      POPC     H3S      HAL2     0.900000E-01   1.00800           0
     19494 MEMB     155      POPC     C24      CTL2    -0.180000       12.0110           0
     19495 MEMB     155      POPC     H4R      HAL2     0.900000E-01   1.00800           0
     19496 MEMB     155      POPC     H4S      HAL2     0.900000E-01   1.00800           0
     19497 MEMB     155      POPC     C25      CTL2    -0.180000       12.0110           0
     19498 MEMB     155      POPC     H5R      HAL2     0.900000E-01   1.00800           0
     19499 MEMB     155      POPC     H5S      HAL2     0.900000E-01   1.00800           0
     19500 MEMB     155      POPC     C26      CTL2    -0.180000       12.0110           0
     19501 MEMB     155      POPC     H6R      HAL2     0.900000E-01   1.00800           0
     19502 MEMB     155      POPC     H6S      HAL2     0.900000E-01   1.00800           0
     19503 MEMB     155      POPC     C27      CTL2    -0.180000       12.0110           0
     19504 MEMB     155      POPC     H7R      HAL2     0.900000E-01   1.00800           0
     19505 MEMB     155      POPC     H7S      HAL2     0.900000E-01   1.00800           0
     19506 MEMB     155      POPC     C28      CTL2    -0.180000       12.0110           0
     19507 MEMB     155      POPC     H8R      HAL2     0.900000E-01   1.00800           0
     19508 MEMB     155      POPC     H8S      HAL2     0.900000E-01   1.00800           0
     19509 MEMB     155      POPC     C29      CEL1    -0.150000       12.0110           0
     19510 MEMB     155      POPC     H91      HEL1     0.150000       1.00800           0
     19511 MEMB     155      POPC     C210     CEL1    -0.150000       12.0110           0
     19512 MEMB     155      POPC     H101     HEL1     0.150000       1.00800           0
     19513 MEMB     155      POPC     C211     CTL2    -0.180000       12.0110           0
     19514 MEMB     155      POPC     H11R     HAL2     0.900000E-01   1.00800           0
     19515 MEMB     155      POPC     H11S     HAL2     0.900000E-01   1.00800           0
     19516 MEMB     155      POPC     C212     CTL2    -0.180000       12.0110           0
     19517 MEMB     155      POPC     H12R     HAL2     0.900000E-01   1.00800           0
     19518 MEMB     155      POPC     H12S     HAL2     0.900000E-01   1.00800           0
     19519 MEMB     155      POPC     C213     CTL2    -0.180000       12.0110           0
     19520 MEMB     155      POPC     H13R     HAL2     0.900000E-01   1.00800           0
     19521 MEMB     155      POPC     H13S     HAL2     0.900000E-01   1.00800           0
     19522 MEMB     155      POPC     C214     CTL2    -0.180000       12.0110           0
     19523 MEMB     155      POPC     H14R     HAL2     0.900000E-01   1.00800           0
     19524 MEMB     155      POPC     H14S     HAL2     0.900000E-01   1.00800           0
     19525 MEMB     155      POPC     C215     CTL2    -0.180000       12.0110           0
     19526 MEMB     155      POPC     H15R     HAL2     0.900000E-01   1.00800           0
     19527 MEMB     155      POPC     H15S     HAL2     0.900000E-01   1.00800           0
     19528 MEMB     155      POPC     C216     CTL2    -0.180000       12.0110           0
     19529 MEMB     155      POPC     H16R     HAL2     0.900000E-01   1.00800           0
     19530 MEMB     155      POPC     H16S     HAL2     0.900000E-01   1.00800           0
     19531 MEMB     155      POPC     C217     CTL2    -0.180000       12.0110           0
     19532 MEMB     155      POPC     H17R     HAL2     0.900000E-01   1.00800           0
     19533 MEMB     155      POPC     H17S     HAL2     0.900000E-01   1.00800           0
     19534 MEMB     155      POPC     C218     CTL3    -0.270000       12.0110           0
     19535 MEMB     155      POPC     H18R     HAL3     0.900000E-01   1.00800           0
     19536 MEMB     155      POPC     H18S     HAL3     0.900000E-01   1.00800           0
     19537 MEMB     155      POPC     H18T     HAL3     0.900000E-01   1.00800           0
     19538 MEMB     155      POPC     C33      CTL2    -0.180000       12.0110           0
     19539 MEMB     155      POPC     H3X      HAL2     0.900000E-01   1.00800           0
     19540 MEMB     155      POPC     H3Y      HAL2     0.900000E-01   1.00800           0
     19541 MEMB     155      POPC     C34      CTL2    -0.180000       12.0110           0
     19542 MEMB     155      POPC     H4X      HAL2     0.900000E-01   1.00800           0
     19543 MEMB     155      POPC     H4Y      HAL2     0.900000E-01   1.00800           0
     19544 MEMB     155      POPC     C35      CTL2    -0.180000       12.0110           0
     19545 MEMB     155      POPC     H5X      HAL2     0.900000E-01   1.00800           0
     19546 MEMB     155      POPC     H5Y      HAL2     0.900000E-01   1.00800           0
     19547 MEMB     155      POPC     C36      CTL2    -0.180000       12.0110           0
     19548 MEMB     155      POPC     H6X      HAL2     0.900000E-01   1.00800           0
     19549 MEMB     155      POPC     H6Y      HAL2     0.900000E-01   1.00800           0
     19550 MEMB     155      POPC     C37      CTL2    -0.180000       12.0110           0
     19551 MEMB     155      POPC     H7X      HAL2     0.900000E-01   1.00800           0
     19552 MEMB     155      POPC     H7Y      HAL2     0.900000E-01   1.00800           0
     19553 MEMB     155      POPC     C38      CTL2    -0.180000       12.0110           0
     19554 MEMB     155      POPC     H8X      HAL2     0.900000E-01   1.00800           0
     19555 MEMB     155      POPC     H8Y      HAL2     0.900000E-01   1.00800           0
     19556 MEMB     155      POPC     C39      CTL2    -0.180000       12.0110           0
     19557 MEMB     155      POPC     H9X      HAL2     0.900000E-01   1.00800           0
     19558 MEMB     155      POPC     H9Y      HAL2     0.900000E-01   1.00800           0
     19559 MEMB     155      POPC     C310     CTL2    -0.180000       12.0110           0
     19560 MEMB     155      POPC     H10X     HAL2     0.900000E-01   1.00800           0
     19561 MEMB     155      POPC     H10Y     HAL2     0.900000E-01   1.00800           0
     19562 MEMB     155      POPC     C311     CTL2    -0.180000       12.0110           0
     19563 MEMB     155      POPC     H11X     HAL2     0.900000E-01   1.00800           0
     19564 MEMB     155      POPC     H11Y     HAL2     0.900000E-01   1.00800           0
     19565 MEMB     155      POPC     C312     CTL2    -0.180000       12.0110           0
     19566 MEMB     155      POPC     H12X     HAL2     0.900000E-01   1.00800           0
     19567 MEMB     155      POPC     H12Y     HAL2     0.900000E-01   1.00800           0
     19568 MEMB     155      POPC     C313     CTL2    -0.180000       12.0110           0
     19569 MEMB     155      POPC     H13X     HAL2     0.900000E-01   1.00800           0
     19570 MEMB     155      POPC     H13Y     HAL2     0.900000E-01   1.00800           0
     19571 MEMB     155      POPC     C314     CTL2    -0.180000       12.0110           0
     19572 MEMB     155      POPC     H14X     HAL2     0.900000E-01   1.00800           0
     19573 MEMB     155      POPC     H14Y     HAL2     0.900000E-01   1.00800           0
     19574 MEMB     155      POPC     C315     CTL2    -0.180000       12.0110           0
     19575 MEMB     155      POPC     H15X     HAL2     0.900000E-01   1.00800           0
     19576 MEMB     155      POPC     H15Y     HAL2     0.900000E-01   1.00800           0
     19577 MEMB     155      POPC     C316     CTL3    -0.270000       12.0110           0
     19578 MEMB     155      POPC     H16X     HAL3     0.900000E-01   1.00800           0
     19579 MEMB     155      POPC     H16Y     HAL3     0.900000E-01   1.00800           0
     19580 MEMB     155      POPC     H16Z     HAL3     0.900000E-01   1.00800           0
     19581 MEMB     157      POPC     N        NTL     -0.600000       14.0070           0
     19582 MEMB     157      POPC     C12      CTL2    -0.100000       12.0110           0
     19583 MEMB     157      POPC     H12A     HL       0.250000       1.00800           0
     19584 MEMB     157      POPC     H12B     HL       0.250000       1.00800           0
     19585 MEMB     157      POPC     C13      CTL5    -0.350000       12.0110           0
     19586 MEMB     157      POPC     H13A     HL       0.250000       1.00800           0
     19587 MEMB     157      POPC     H13B     HL       0.250000       1.00800           0
     19588 MEMB     157      POPC     H13C     HL       0.250000       1.00800           0
     19589 MEMB     157      POPC     C14      CTL5    -0.350000       12.0110           0
     19590 MEMB     157      POPC     H14A     HL       0.250000       1.00800           0
     19591 MEMB     157      POPC     H14B     HL       0.250000       1.00800           0
     19592 MEMB     157      POPC     H14C     HL       0.250000       1.00800           0
     19593 MEMB     157      POPC     C15      CTL5    -0.350000       12.0110           0
     19594 MEMB     157      POPC     H15A     HL       0.250000       1.00800           0
     19595 MEMB     157      POPC     H15B     HL       0.250000       1.00800           0
     19596 MEMB     157      POPC     H15C     HL       0.250000       1.00800           0
     19597 MEMB     157      POPC     C11      CTL2    -0.800000E-01   12.0110           0
     19598 MEMB     157      POPC     H11A     HAL2     0.900000E-01   1.00800           0
     19599 MEMB     157      POPC     H11B     HAL2     0.900000E-01   1.00800           0
     19600 MEMB     157      POPC     P        PL       1.500000       30.9740           0
     19601 MEMB     157      POPC     O13      O2L     -0.780000       15.9994           0
     19602 MEMB     157      POPC     O14      O2L     -0.780000       15.9994           0
     19603 MEMB     157      POPC     O12      OSLP    -0.570000       15.9994           0
     19604 MEMB     157      POPC     O11      OSLP    -0.570000       15.9994           0
     19605 MEMB     157      POPC     C1       CTL2    -0.800000E-01   12.0110           0
     19606 MEMB     157      POPC     HA       HAL2     0.900000E-01   1.00800           0
     19607 MEMB     157      POPC     HB       HAL2     0.900000E-01   1.00800           0
     19608 MEMB     157      POPC     C2       CTL1     0.170000       12.0110           0
     19609 MEMB     157      POPC     HS       HAL1     0.900000E-01   1.00800           0
     19610 MEMB     157      POPC     O21      OSL     -0.490000       15.9994           0
     19611 MEMB     157      POPC     C21      CL       0.900000       12.0110           0
     19612 MEMB     157      POPC     O22      OBL     -0.630000       15.9994           0
     19613 MEMB     157      POPC     C22      CTL2    -0.220000       12.0110           0
     19614 MEMB     157      POPC     H2R      HAL2     0.900000E-01   1.00800           0
     19615 MEMB     157      POPC     H2S      HAL2     0.900000E-01   1.00800           0
     19616 MEMB     157      POPC     C3       CTL2     0.800000E-01   12.0110           0
     19617 MEMB     157      POPC     HX       HAL2     0.900000E-01   1.00800           0
     19618 MEMB     157      POPC     HY       HAL2     0.900000E-01   1.00800           0
     19619 MEMB     157      POPC     O31      OSL     -0.490000       15.9994           0
     19620 MEMB     157      POPC     C31      CL       0.900000       12.0110           0
     19621 MEMB     157      POPC     O32      OBL     -0.630000       15.9994           0
     19622 MEMB     157      POPC     C32      CTL2    -0.220000       12.0110           0
     19623 MEMB     157      POPC     H2X      HAL2     0.900000E-01   1.00800           0
     19624 MEMB     157      POPC     H2Y      HAL2     0.900000E-01   1.00800           0
     19625 MEMB     157      POPC     C23      CTL2    -0.180000       12.0110           0
     19626 MEMB     157      POPC     H3R      HAL2     0.900000E-01   1.00800           0
     19627 MEMB     157      POPC     H3S      HAL2     0.900000E-01   1.00800           0
     19628 MEMB     157      POPC     C24      CTL2    -0.180000       12.0110           0
     19629 MEMB     157      POPC     H4R      HAL2     0.900000E-01   1.00800           0
     19630 MEMB     157      POPC     H4S      HAL2     0.900000E-01   1.00800           0
     19631 MEMB     157      POPC     C25      CTL2    -0.180000       12.0110           0
     19632 MEMB     157      POPC     H5R      HAL2     0.900000E-01   1.00800           0
     19633 MEMB     157      POPC     H5S      HAL2     0.900000E-01   1.00800           0
     19634 MEMB     157      POPC     C26      CTL2    -0.180000       12.0110           0
     19635 MEMB     157      POPC     H6R      HAL2     0.900000E-01   1.00800           0
     19636 MEMB     157      POPC     H6S      HAL2     0.900000E-01   1.00800           0
     19637 MEMB     157      POPC     C27      CTL2    -0.180000       12.0110           0
     19638 MEMB     157      POPC     H7R      HAL2     0.900000E-01   1.00800           0
     19639 MEMB     157      POPC     H7S      HAL2     0.900000E-01   1.00800           0
     19640 MEMB     157      POPC     C28      CTL2    -0.180000       12.0110           0
     19641 MEMB     157      POPC     H8R      HAL2     0.900000E-01   1.00800           0
     19642 MEMB     157      POPC     H8S      HAL2     0.900000E-01   1.00800           0
     19643 MEMB     157      POPC     C29      CEL1    -0.150000       12.0110           0
     19644 MEMB     157      POPC     H91      HEL1     0.150000       1.00800           0
     19645 MEMB     157      POPC     C210     CEL1    -0.150000       12.0110           0
     19646 MEMB     157      POPC     H101     HEL1     0.150000       1.00800           0
     19647 MEMB     157      POPC     C211     CTL2    -0.180000       12.0110           0
     19648 MEMB     157      POPC     H11R     HAL2     0.900000E-01   1.00800           0
     19649 MEMB     157      POPC     H11S     HAL2     0.900000E-01   1.00800           0
     19650 MEMB     157      POPC     C212     CTL2    -0.180000       12.0110           0
     19651 MEMB     157      POPC     H12R     HAL2     0.900000E-01   1.00800           0
     19652 MEMB     157      POPC     H12S     HAL2     0.900000E-01   1.00800           0
     19653 MEMB     157      POPC     C213     CTL2    -0.180000       12.0110           0
     19654 MEMB     157      POPC     H13R     HAL2     0.900000E-01   1.00800           0
     19655 MEMB     157      POPC     H13S     HAL2     0.900000E-01   1.00800           0
     19656 MEMB     157      POPC     C214     CTL2    -0.180000       12.0110           0
     19657 MEMB     157      POPC     H14R     HAL2     0.900000E-01   1.00800           0
     19658 MEMB     157      POPC     H14S     HAL2     0.900000E-01   1.00800           0
     19659 MEMB     157      POPC     C215     CTL2    -0.180000       12.0110           0
     19660 MEMB     157      POPC     H15R     HAL2     0.900000E-01   1.00800           0
     19661 MEMB     157      POPC     H15S     HAL2     0.900000E-01   1.00800           0
     19662 MEMB     157      POPC     C216     CTL2    -0.180000       12.0110           0
     19663 MEMB     157      POPC     H16R     HAL2     0.900000E-01   1.00800           0
     19664 MEMB     157      POPC     H16S     HAL2     0.900000E-01   1.00800           0
     19665 MEMB     157      POPC     C217     CTL2    -0.180000       12.0110           0
     19666 MEMB     157      POPC     H17R     HAL2     0.900000E-01   1.00800           0
     19667 MEMB     157      POPC     H17S     HAL2     0.900000E-01   1.00800           0
     19668 MEMB     157      POPC     C218     CTL3    -0.270000       12.0110           0
     19669 MEMB     157      POPC     H18R     HAL3     0.900000E-01   1.00800           0
     19670 MEMB     157      POPC     H18S     HAL3     0.900000E-01   1.00800           0
     19671 MEMB     157      POPC     H18T     HAL3     0.900000E-01   1.00800           0
     19672 MEMB     157      POPC     C33      CTL2    -0.180000       12.0110           0
     19673 MEMB     157      POPC     H3X      HAL2     0.900000E-01   1.00800           0
     19674 MEMB     157      POPC     H3Y      HAL2     0.900000E-01   1.00800           0
     19675 MEMB     157      POPC     C34      CTL2    -0.180000       12.0110           0
     19676 MEMB     157      POPC     H4X      HAL2     0.900000E-01   1.00800           0
     19677 MEMB     157      POPC     H4Y      HAL2     0.900000E-01   1.00800           0
     19678 MEMB     157      POPC     C35      CTL2    -0.180000       12.0110           0
     19679 MEMB     157      POPC     H5X      HAL2     0.900000E-01   1.00800           0
     19680 MEMB     157      POPC     H5Y      HAL2     0.900000E-01   1.00800           0
     19681 MEMB     157      POPC     C36      CTL2    -0.180000       12.0110           0
     19682 MEMB     157      POPC     H6X      HAL2     0.900000E-01   1.00800           0
     19683 MEMB     157      POPC     H6Y      HAL2     0.900000E-01   1.00800           0
     19684 MEMB     157      POPC     C37      CTL2    -0.180000       12.0110           0
     19685 MEMB     157      POPC     H7X      HAL2     0.900000E-01   1.00800           0
     19686 MEMB     157      POPC     H7Y      HAL2     0.900000E-01   1.00800           0
     19687 MEMB     157      POPC     C38      CTL2    -0.180000       12.0110           0
     19688 MEMB     157      POPC     H8X      HAL2     0.900000E-01   1.00800           0
     19689 MEMB     157      POPC     H8Y      HAL2     0.900000E-01   1.00800           0
     19690 MEMB     157      POPC     C39      CTL2    -0.180000       12.0110           0
     19691 MEMB     157      POPC     H9X      HAL2     0.900000E-01   1.00800           0
     19692 MEMB     157      POPC     H9Y      HAL2     0.900000E-01   1.00800           0
     19693 MEMB     157      POPC     C310     CTL2    -0.180000       12.0110           0
     19694 MEMB     157      POPC     H10X     HAL2     0.900000E-01   1.00800           0
     19695 MEMB     157      POPC     H10Y     HAL2     0.900000E-01   1.00800           0
     19696 MEMB     157      POPC     C311     CTL2    -0.180000       12.0110           0
     19697 MEMB     157      POPC     H11X     HAL2     0.900000E-01   1.00800           0
     19698 MEMB     157      POPC     H11Y     HAL2     0.900000E-01   1.00800           0
     19699 MEMB     157      POPC     C312     CTL2    -0.180000       12.0110           0
     19700 MEMB     157      POPC     H12X     HAL2     0.900000E-01   1.00800           0
     19701 MEMB     157      POPC     H12Y     HAL2     0.900000E-01   1.00800           0
     19702 MEMB     157      POPC     C313     CTL2    -0.180000       12.0110           0
     19703 MEMB     157      POPC     H13X     HAL2     0.900000E-01   1.00800           0
     19704 MEMB     157      POPC     H13Y     HAL2     0.900000E-01   1.00800           0
     19705 MEMB     157      POPC     C314     CTL2    -0.180000       12.0110           0
     19706 MEMB     157      POPC     H14X     HAL2     0.900000E-01   1.00800           0
     19707 MEMB     157      POPC     H14Y     HAL2     0.900000E-01   1.00800           0
     19708 MEMB     157      POPC     C315     CTL2    -0.180000       12.0110           0
     19709 MEMB     157      POPC     H15X     HAL2     0.900000E-01   1.00800           0
     19710 MEMB     157      POPC     H15Y     HAL2     0.900000E-01   1.00800           0
     19711 MEMB     157      POPC     C316     CTL3    -0.270000       12.0110           0
     19712 MEMB     157      POPC     H16X     HAL3     0.900000E-01   1.00800           0
     19713 MEMB     157      POPC     H16Y     HAL3     0.900000E-01   1.00800           0
     19714 MEMB     157      POPC     H16Z     HAL3     0.900000E-01   1.00800           0
     19715 MEMB     161      POPC     N        NTL     -0.600000       14.0070           0
     19716 MEMB     161      POPC     C12      CTL2    -0.100000       12.0110           0
     19717 MEMB     161      POPC     H12A     HL       0.250000       1.00800           0
     19718 MEMB     161      POPC     H12B     HL       0.250000       1.00800           0
     19719 MEMB     161      POPC     C13      CTL5    -0.350000       12.0110           0
     19720 MEMB     161      POPC     H13A     HL       0.250000       1.00800           0
     19721 MEMB     161      POPC     H13B     HL       0.250000       1.00800           0
     19722 MEMB     161      POPC     H13C     HL       0.250000       1.00800           0
     19723 MEMB     161      POPC     C14      CTL5    -0.350000       12.0110           0
     19724 MEMB     161      POPC     H14A     HL       0.250000       1.00800           0
     19725 MEMB     161      POPC     H14B     HL       0.250000       1.00800           0
     19726 MEMB     161      POPC     H14C     HL       0.250000       1.00800           0
     19727 MEMB     161      POPC     C15      CTL5    -0.350000       12.0110           0
     19728 MEMB     161      POPC     H15A     HL       0.250000       1.00800           0
     19729 MEMB     161      POPC     H15B     HL       0.250000       1.00800           0
     19730 MEMB     161      POPC     H15C     HL       0.250000       1.00800           0
     19731 MEMB     161      POPC     C11      CTL2    -0.800000E-01   12.0110           0
     19732 MEMB     161      POPC     H11A     HAL2     0.900000E-01   1.00800           0
     19733 MEMB     161      POPC     H11B     HAL2     0.900000E-01   1.00800           0
     19734 MEMB     161      POPC     P        PL       1.500000       30.9740           0
     19735 MEMB     161      POPC     O13      O2L     -0.780000       15.9994           0
     19736 MEMB     161      POPC     O14      O2L     -0.780000       15.9994           0
     19737 MEMB     161      POPC     O12      OSLP    -0.570000       15.9994           0
     19738 MEMB     161      POPC     O11      OSLP    -0.570000       15.9994           0
     19739 MEMB     161      POPC     C1       CTL2    -0.800000E-01   12.0110           0
     19740 MEMB     161      POPC     HA       HAL2     0.900000E-01   1.00800           0
     19741 MEMB     161      POPC     HB       HAL2     0.900000E-01   1.00800           0
     19742 MEMB     161      POPC     C2       CTL1     0.170000       12.0110           0
     19743 MEMB     161      POPC     HS       HAL1     0.900000E-01   1.00800           0
     19744 MEMB     161      POPC     O21      OSL     -0.490000       15.9994           0
     19745 MEMB     161      POPC     C21      CL       0.900000       12.0110           0
     19746 MEMB     161      POPC     O22      OBL     -0.630000       15.9994           0
     19747 MEMB     161      POPC     C22      CTL2    -0.220000       12.0110           0
     19748 MEMB     161      POPC     H2R      HAL2     0.900000E-01   1.00800           0
     19749 MEMB     161      POPC     H2S      HAL2     0.900000E-01   1.00800           0
     19750 MEMB     161      POPC     C3       CTL2     0.800000E-01   12.0110           0
     19751 MEMB     161      POPC     HX       HAL2     0.900000E-01   1.00800           0
     19752 MEMB     161      POPC     HY       HAL2     0.900000E-01   1.00800           0
     19753 MEMB     161      POPC     O31      OSL     -0.490000       15.9994           0
     19754 MEMB     161      POPC     C31      CL       0.900000       12.0110           0
     19755 MEMB     161      POPC     O32      OBL     -0.630000       15.9994           0
     19756 MEMB     161      POPC     C32      CTL2    -0.220000       12.0110           0
     19757 MEMB     161      POPC     H2X      HAL2     0.900000E-01   1.00800           0
     19758 MEMB     161      POPC     H2Y      HAL2     0.900000E-01   1.00800           0
     19759 MEMB     161      POPC     C23      CTL2    -0.180000       12.0110           0
     19760 MEMB     161      POPC     H3R      HAL2     0.900000E-01   1.00800           0
     19761 MEMB     161      POPC     H3S      HAL2     0.900000E-01   1.00800           0
     19762 MEMB     161      POPC     C24      CTL2    -0.180000       12.0110           0
     19763 MEMB     161      POPC     H4R      HAL2     0.900000E-01   1.00800           0
     19764 MEMB     161      POPC     H4S      HAL2     0.900000E-01   1.00800           0
     19765 MEMB     161      POPC     C25      CTL2    -0.180000       12.0110           0
     19766 MEMB     161      POPC     H5R      HAL2     0.900000E-01   1.00800           0
     19767 MEMB     161      POPC     H5S      HAL2     0.900000E-01   1.00800           0
     19768 MEMB     161      POPC     C26      CTL2    -0.180000       12.0110           0
     19769 MEMB     161      POPC     H6R      HAL2     0.900000E-01   1.00800           0
     19770 MEMB     161      POPC     H6S      HAL2     0.900000E-01   1.00800           0
     19771 MEMB     161      POPC     C27      CTL2    -0.180000       12.0110           0
     19772 MEMB     161      POPC     H7R      HAL2     0.900000E-01   1.00800           0
     19773 MEMB     161      POPC     H7S      HAL2     0.900000E-01   1.00800           0
     19774 MEMB     161      POPC     C28      CTL2    -0.180000       12.0110           0
     19775 MEMB     161      POPC     H8R      HAL2     0.900000E-01   1.00800           0
     19776 MEMB     161      POPC     H8S      HAL2     0.900000E-01   1.00800           0
     19777 MEMB     161      POPC     C29      CEL1    -0.150000       12.0110           0
     19778 MEMB     161      POPC     H91      HEL1     0.150000       1.00800           0
     19779 MEMB     161      POPC     C210     CEL1    -0.150000       12.0110           0
     19780 MEMB     161      POPC     H101     HEL1     0.150000       1.00800           0
     19781 MEMB     161      POPC     C211     CTL2    -0.180000       12.0110           0
     19782 MEMB     161      POPC     H11R     HAL2     0.900000E-01   1.00800           0
     19783 MEMB     161      POPC     H11S     HAL2     0.900000E-01   1.00800           0
     19784 MEMB     161      POPC     C212     CTL2    -0.180000       12.0110           0
     19785 MEMB     161      POPC     H12R     HAL2     0.900000E-01   1.00800           0
     19786 MEMB     161      POPC     H12S     HAL2     0.900000E-01   1.00800           0
     19787 MEMB     161      POPC     C213     CTL2    -0.180000       12.0110           0
     19788 MEMB     161      POPC     H13R     HAL2     0.900000E-01   1.00800           0
     19789 MEMB     161      POPC     H13S     HAL2     0.900000E-01   1.00800           0
     19790 MEMB     161      POPC     C214     CTL2    -0.180000       12.0110           0
     19791 MEMB     161      POPC     H14R     HAL2     0.900000E-01   1.00800           0
     19792 MEMB     161      POPC     H14S     HAL2     0.900000E-01   1.00800           0
     19793 MEMB     161      POPC     C215     CTL2    -0.180000       12.0110           0
     19794 MEMB     161      POPC     H15R     HAL2     0.900000E-01   1.00800           0
     19795 MEMB     161      POPC     H15S     HAL2     0.900000E-01   1.00800           0
     19796 MEMB     161      POPC     C216     CTL2    -0.180000       12.0110           0
     19797 MEMB     161      POPC     H16R     HAL2     0.900000E-01   1.00800           0
     19798 MEMB     161      POPC     H16S     HAL2     0.900000E-01   1.00800           0
     19799 MEMB     161      POPC     C217     CTL2    -0.180000       12.0110           0
     19800 MEMB     161      POPC     H17R     HAL2     0.900000E-01   1.00800           0
     19801 MEMB     161      POPC     H17S     HAL2     0.900000E-01   1.00800           0
     19802 MEMB     161      POPC     C218     CTL3    -0.270000       12.0110           0
     19803 MEMB     161      POPC     H18R     HAL3     0.900000E-01   1.00800           0
     19804 MEMB     161      POPC     H18S     HAL3     0.900000E-01   1.00800           0
     19805 MEMB     161      POPC     H18T     HAL3     0.900000E-01   1.00800           0
     19806 MEMB     161      POPC     C33      CTL2    -0.180000       12.0110           0
     19807 MEMB     161      POPC     H3X      HAL2     0.900000E-01   1.00800           0
     19808 MEMB     161      POPC     H3Y      HAL2     0.900000E-01   1.00800           0
     19809 MEMB     161      POPC     C34      CTL2    -0.180000       12.0110           0
     19810 MEMB     161      POPC     H4X      HAL2     0.900000E-01   1.00800           0
     19811 MEMB     161      POPC     H4Y      HAL2     0.900000E-01   1.00800           0
     19812 MEMB     161      POPC     C35      CTL2    -0.180000       12.0110           0
     19813 MEMB     161      POPC     H5X      HAL2     0.900000E-01   1.00800           0
     19814 MEMB     161      POPC     H5Y      HAL2     0.900000E-01   1.00800           0
     19815 MEMB     161      POPC     C36      CTL2    -0.180000       12.0110           0
     19816 MEMB     161      POPC     H6X      HAL2     0.900000E-01   1.00800           0
     19817 MEMB     161      POPC     H6Y      HAL2     0.900000E-01   1.00800           0
     19818 MEMB     161      POPC     C37      CTL2    -0.180000       12.0110           0
     19819 MEMB     161      POPC     H7X      HAL2     0.900000E-01   1.00800           0
     19820 MEMB     161      POPC     H7Y      HAL2     0.900000E-01   1.00800           0
     19821 MEMB     161      POPC     C38      CTL2    -0.180000       12.0110           0
     19822 MEMB     161      POPC     H8X      HAL2     0.900000E-01   1.00800           0
     19823 MEMB     161      POPC     H8Y      HAL2     0.900000E-01   1.00800           0
     19824 MEMB     161      POPC     C39      CTL2    -0.180000       12.0110           0
     19825 MEMB     161      POPC     H9X      HAL2     0.900000E-01   1.00800           0
     19826 MEMB     161      POPC     H9Y      HAL2     0.900000E-01   1.00800           0
     19827 MEMB     161      POPC     C310     CTL2    -0.180000       12.0110           0
     19828 MEMB     161      POPC     H10X     HAL2     0.900000E-01   1.00800           0
     19829 MEMB     161      POPC     H10Y     HAL2     0.900000E-01   1.00800           0
     19830 MEMB     161      POPC     C311     CTL2    -0.180000       12.0110           0
     19831 MEMB     161      POPC     H11X     HAL2     0.900000E-01   1.00800           0
     19832 MEMB     161      POPC     H11Y     HAL2     0.900000E-01   1.00800           0
     19833 MEMB     161      POPC     C312     CTL2    -0.180000       12.0110           0
     19834 MEMB     161      POPC     H12X     HAL2     0.900000E-01   1.00800           0
     19835 MEMB     161      POPC     H12Y     HAL2     0.900000E-01   1.00800           0
     19836 MEMB     161      POPC     C313     CTL2    -0.180000       12.0110           0
     19837 MEMB     161      POPC     H13X     HAL2     0.900000E-01   1.00800           0
     19838 MEMB     161      POPC     H13Y     HAL2     0.900000E-01   1.00800           0
     19839 MEMB     161      POPC     C314     CTL2    -0.180000       12.0110           0
     19840 MEMB     161      POPC     H14X     HAL2     0.900000E-01   1.00800           0
     19841 MEMB     161      POPC     H14Y     HAL2     0.900000E-01   1.00800           0
     19842 MEMB     161      POPC     C315     CTL2    -0.180000       12.0110           0
     19843 MEMB     161      POPC     H15X     HAL2     0.900000E-01   1.00800           0
     19844 MEMB     161      POPC     H15Y     HAL2     0.900000E-01   1.00800           0
     19845 MEMB     161      POPC     C316     CTL3    -0.270000       12.0110           0
     19846 MEMB     161      POPC     H16X     HAL3     0.900000E-01   1.00800           0
     19847 MEMB     161      POPC     H16Y     HAL3     0.900000E-01   1.00800           0
     19848 MEMB     161      POPC     H16Z     HAL3     0.900000E-01   1.00800           0
     19849 MEMB     162      POPC     N        NTL     -0.600000       14.0070           0
     19850 MEMB     162      POPC     C12      CTL2    -0.100000       12.0110           0
     19851 MEMB     162      POPC     H12A     HL       0.250000       1.00800           0
     19852 MEMB     162      POPC     H12B     HL       0.250000       1.00800           0
     19853 MEMB     162      POPC     C13      CTL5    -0.350000       12.0110           0
     19854 MEMB     162      POPC     H13A     HL       0.250000       1.00800           0
     19855 MEMB     162      POPC     H13B     HL       0.250000       1.00800           0
     19856 MEMB     162      POPC     H13C     HL       0.250000       1.00800           0
     19857 MEMB     162      POPC     C14      CTL5    -0.350000       12.0110           0
     19858 MEMB     162      POPC     H14A     HL       0.250000       1.00800           0
     19859 MEMB     162      POPC     H14B     HL       0.250000       1.00800           0
     19860 MEMB     162      POPC     H14C     HL       0.250000       1.00800           0
     19861 MEMB     162      POPC     C15      CTL5    -0.350000       12.0110           0
     19862 MEMB     162      POPC     H15A     HL       0.250000       1.00800           0
     19863 MEMB     162      POPC     H15B     HL       0.250000       1.00800           0
     19864 MEMB     162      POPC     H15C     HL       0.250000       1.00800           0
     19865 MEMB     162      POPC     C11      CTL2    -0.800000E-01   12.0110           0
     19866 MEMB     162      POPC     H11A     HAL2     0.900000E-01   1.00800           0
     19867 MEMB     162      POPC     H11B     HAL2     0.900000E-01   1.00800           0
     19868 MEMB     162      POPC     P        PL       1.500000       30.9740           0
     19869 MEMB     162      POPC     O13      O2L     -0.780000       15.9994           0
     19870 MEMB     162      POPC     O14      O2L     -0.780000       15.9994           0
     19871 MEMB     162      POPC     O12      OSLP    -0.570000       15.9994           0
     19872 MEMB     162      POPC     O11      OSLP    -0.570000       15.9994           0
     19873 MEMB     162      POPC     C1       CTL2    -0.800000E-01   12.0110           0
     19874 MEMB     162      POPC     HA       HAL2     0.900000E-01   1.00800           0
     19875 MEMB     162      POPC     HB       HAL2     0.900000E-01   1.00800           0
     19876 MEMB     162      POPC     C2       CTL1     0.170000       12.0110           0
     19877 MEMB     162      POPC     HS       HAL1     0.900000E-01   1.00800           0
     19878 MEMB     162      POPC     O21      OSL     -0.490000       15.9994           0
     19879 MEMB     162      POPC     C21      CL       0.900000       12.0110           0
     19880 MEMB     162      POPC     O22      OBL     -0.630000       15.9994           0
     19881 MEMB     162      POPC     C22      CTL2    -0.220000       12.0110           0
     19882 MEMB     162      POPC     H2R      HAL2     0.900000E-01   1.00800           0
     19883 MEMB     162      POPC     H2S      HAL2     0.900000E-01   1.00800           0
     19884 MEMB     162      POPC     C3       CTL2     0.800000E-01   12.0110           0
     19885 MEMB     162      POPC     HX       HAL2     0.900000E-01   1.00800           0
     19886 MEMB     162      POPC     HY       HAL2     0.900000E-01   1.00800           0
     19887 MEMB     162      POPC     O31      OSL     -0.490000       15.9994           0
     19888 MEMB     162      POPC     C31      CL       0.900000       12.0110           0
     19889 MEMB     162      POPC     O32      OBL     -0.630000       15.9994           0
     19890 MEMB     162      POPC     C32      CTL2    -0.220000       12.0110           0
     19891 MEMB     162      POPC     H2X      HAL2     0.900000E-01   1.00800           0
     19892 MEMB     162      POPC     H2Y      HAL2     0.900000E-01   1.00800           0
     19893 MEMB     162      POPC     C23      CTL2    -0.180000       12.0110           0
     19894 MEMB     162      POPC     H3R      HAL2     0.900000E-01   1.00800           0
     19895 MEMB     162      POPC     H3S      HAL2     0.900000E-01   1.00800           0
     19896 MEMB     162      POPC     C24      CTL2    -0.180000       12.0110           0
     19897 MEMB     162      POPC     H4R      HAL2     0.900000E-01   1.00800           0
     19898 MEMB     162      POPC     H4S      HAL2     0.900000E-01   1.00800           0
     19899 MEMB     162      POPC     C25      CTL2    -0.180000       12.0110           0
     19900 MEMB     162      POPC     H5R      HAL2     0.900000E-01   1.00800           0
     19901 MEMB     162      POPC     H5S      HAL2     0.900000E-01   1.00800           0
     19902 MEMB     162      POPC     C26      CTL2    -0.180000       12.0110           0
     19903 MEMB     162      POPC     H6R      HAL2     0.900000E-01   1.00800           0
     19904 MEMB     162      POPC     H6S      HAL2     0.900000E-01   1.00800           0
     19905 MEMB     162      POPC     C27      CTL2    -0.180000       12.0110           0
     19906 MEMB     162      POPC     H7R      HAL2     0.900000E-01   1.00800           0
     19907 MEMB     162      POPC     H7S      HAL2     0.900000E-01   1.00800           0
     19908 MEMB     162      POPC     C28      CTL2    -0.180000       12.0110           0
     19909 MEMB     162      POPC     H8R      HAL2     0.900000E-01   1.00800           0
     19910 MEMB     162      POPC     H8S      HAL2     0.900000E-01   1.00800           0
     19911 MEMB     162      POPC     C29      CEL1    -0.150000       12.0110           0
     19912 MEMB     162      POPC     H91      HEL1     0.150000       1.00800           0
     19913 MEMB     162      POPC     C210     CEL1    -0.150000       12.0110           0
     19914 MEMB     162      POPC     H101     HEL1     0.150000       1.00800           0
     19915 MEMB     162      POPC     C211     CTL2    -0.180000       12.0110           0
     19916 MEMB     162      POPC     H11R     HAL2     0.900000E-01   1.00800           0
     19917 MEMB     162      POPC     H11S     HAL2     0.900000E-01   1.00800           0
     19918 MEMB     162      POPC     C212     CTL2    -0.180000       12.0110           0
     19919 MEMB     162      POPC     H12R     HAL2     0.900000E-01   1.00800           0
     19920 MEMB     162      POPC     H12S     HAL2     0.900000E-01   1.00800           0
     19921 MEMB     162      POPC     C213     CTL2    -0.180000       12.0110           0
     19922 MEMB     162      POPC     H13R     HAL2     0.900000E-01   1.00800           0
     19923 MEMB     162      POPC     H13S     HAL2     0.900000E-01   1.00800           0
     19924 MEMB     162      POPC     C214     CTL2    -0.180000       12.0110           0
     19925 MEMB     162      POPC     H14R     HAL2     0.900000E-01   1.00800           0
     19926 MEMB     162      POPC     H14S     HAL2     0.900000E-01   1.00800           0
     19927 MEMB     162      POPC     C215     CTL2    -0.180000       12.0110           0
     19928 MEMB     162      POPC     H15R     HAL2     0.900000E-01   1.00800           0
     19929 MEMB     162      POPC     H15S     HAL2     0.900000E-01   1.00800           0
     19930 MEMB     162      POPC     C216     CTL2    -0.180000       12.0110           0
     19931 MEMB     162      POPC     H16R     HAL2     0.900000E-01   1.00800           0
     19932 MEMB     162      POPC     H16S     HAL2     0.900000E-01   1.00800           0
     19933 MEMB     162      POPC     C217     CTL2    -0.180000       12.0110           0
     19934 MEMB     162      POPC     H17R     HAL2     0.900000E-01   1.00800           0
     19935 MEMB     162      POPC     H17S     HAL2     0.900000E-01   1.00800           0
     19936 MEMB     162      POPC     C218     CTL3    -0.270000       12.0110           0
     19937 MEMB     162      POPC     H18R     HAL3     0.900000E-01   1.00800           0
     19938 MEMB     162      POPC     H18S     HAL3     0.900000E-01   1.00800           0
     19939 MEMB     162      POPC     H18T     HAL3     0.900000E-01   1.00800           0
     19940 MEMB     162      POPC     C33      CTL2    -0.180000       12.0110           0
     19941 MEMB     162      POPC     H3X      HAL2     0.900000E-01   1.00800           0
     19942 MEMB     162      POPC     H3Y      HAL2     0.900000E-01   1.00800           0
     19943 MEMB     162      POPC     C34      CTL2    -0.180000       12.0110           0
     19944 MEMB     162      POPC     H4X      HAL2     0.900000E-01   1.00800           0
     19945 MEMB     162      POPC     H4Y      HAL2     0.900000E-01   1.00800           0
     19946 MEMB     162      POPC     C35      CTL2    -0.180000       12.0110           0
     19947 MEMB     162      POPC     H5X      HAL2     0.900000E-01   1.00800           0
     19948 MEMB     162      POPC     H5Y      HAL2     0.900000E-01   1.00800           0
     19949 MEMB     162      POPC     C36      CTL2    -0.180000       12.0110           0
     19950 MEMB     162      POPC     H6X      HAL2     0.900000E-01   1.00800           0
     19951 MEMB     162      POPC     H6Y      HAL2     0.900000E-01   1.00800           0
     19952 MEMB     162      POPC     C37      CTL2    -0.180000       12.0110           0
     19953 MEMB     162      POPC     H7X      HAL2     0.900000E-01   1.00800           0
     19954 MEMB     162      POPC     H7Y      HAL2     0.900000E-01   1.00800           0
     19955 MEMB     162      POPC     C38      CTL2    -0.180000       12.0110           0
     19956 MEMB     162      POPC     H8X      HAL2     0.900000E-01   1.00800           0
     19957 MEMB     162      POPC     H8Y      HAL2     0.900000E-01   1.00800           0
     19958 MEMB     162      POPC     C39      CTL2    -0.180000       12.0110           0
     19959 MEMB     162      POPC     H9X      HAL2     0.900000E-01   1.00800           0
     19960 MEMB     162      POPC     H9Y      HAL2     0.900000E-01   1.00800           0
     19961 MEMB     162      POPC     C310     CTL2    -0.180000       12.0110           0
     19962 MEMB     162      POPC     H10X     HAL2     0.900000E-01   1.00800           0
     19963 MEMB     162      POPC     H10Y     HAL2     0.900000E-01   1.00800           0
     19964 MEMB     162      POPC     C311     CTL2    -0.180000       12.0110           0
     19965 MEMB     162      POPC     H11X     HAL2     0.900000E-01   1.00800           0
     19966 MEMB     162      POPC     H11Y     HAL2     0.900000E-01   1.00800           0
     19967 MEMB     162      POPC     C312     CTL2    -0.180000       12.0110           0
     19968 MEMB     162      POPC     H12X     HAL2     0.900000E-01   1.00800           0
     19969 MEMB     162      POPC     H12Y     HAL2     0.900000E-01   1.00800           0
     19970 MEMB     162      POPC     C313     CTL2    -0.180000       12.0110           0
     19971 MEMB     162      POPC     H13X     HAL2     0.900000E-01   1.00800           0
     19972 MEMB     162      POPC     H13Y     HAL2     0.900000E-01   1.00800           0
     19973 MEMB     162      POPC     C314     CTL2    -0.180000       12.0110           0
     19974 MEMB     162      POPC     H14X     HAL2     0.900000E-01   1.00800           0
     19975 MEMB     162      POPC     H14Y     HAL2     0.900000E-01   1.00800           0
     19976 MEMB     162      POPC     C315     CTL2    -0.180000       12.0110           0
     19977 MEMB     162      POPC     H15X     HAL2     0.900000E-01   1.00800           0
     19978 MEMB     162      POPC     H15Y     HAL2     0.900000E-01   1.00800           0
     19979 MEMB     162      POPC     C316     CTL3    -0.270000       12.0110           0
     19980 MEMB     162      POPC     H16X     HAL3     0.900000E-01   1.00800           0
     19981 MEMB     162      POPC     H16Y     HAL3     0.900000E-01   1.00800           0
     19982 MEMB     162      POPC     H16Z     HAL3     0.900000E-01   1.00800           0
     19983 MEMB     163      POPC     N        NTL     -0.600000       14.0070           0
     19984 MEMB     163      POPC     C12      CTL2    -0.100000       12.0110           0
     19985 MEMB     163      POPC     H12A     HL       0.250000       1.00800           0
     19986 MEMB     163      POPC     H12B     HL       0.250000       1.00800           0
     19987 MEMB     163      POPC     C13      CTL5    -0.350000       12.0110           0
     19988 MEMB     163      POPC     H13A     HL       0.250000       1.00800           0
     19989 MEMB     163      POPC     H13B     HL       0.250000       1.00800           0
     19990 MEMB     163      POPC     H13C     HL       0.250000       1.00800           0
     19991 MEMB     163      POPC     C14      CTL5    -0.350000       12.0110           0
     19992 MEMB     163      POPC     H14A     HL       0.250000       1.00800           0
     19993 MEMB     163      POPC     H14B     HL       0.250000       1.00800           0
     19994 MEMB     163      POPC     H14C     HL       0.250000       1.00800           0
     19995 MEMB     163      POPC     C15      CTL5    -0.350000       12.0110           0
     19996 MEMB     163      POPC     H15A     HL       0.250000       1.00800           0
     19997 MEMB     163      POPC     H15B     HL       0.250000       1.00800           0
     19998 MEMB     163      POPC     H15C     HL       0.250000       1.00800           0
     19999 MEMB     163      POPC     C11      CTL2    -0.800000E-01   12.0110           0
     20000 MEMB     163      POPC     H11A     HAL2     0.900000E-01   1.00800           0
     20001 MEMB     163      POPC     H11B     HAL2     0.900000E-01   1.00800           0
     20002 MEMB     163      POPC     P        PL       1.500000       30.9740           0
     20003 MEMB     163      POPC     O13      O2L     -0.780000       15.9994           0
     20004 MEMB     163      POPC     O14      O2L     -0.780000       15.9994           0
     20005 MEMB     163      POPC     O12      OSLP    -0.570000       15.9994           0
     20006 MEMB     163      POPC     O11      OSLP    -0.570000       15.9994           0
     20007 MEMB     163      POPC     C1       CTL2    -0.800000E-01   12.0110           0
     20008 MEMB     163      POPC     HA       HAL2     0.900000E-01   1.00800           0
     20009 MEMB     163      POPC     HB       HAL2     0.900000E-01   1.00800           0
     20010 MEMB     163      POPC     C2       CTL1     0.170000       12.0110           0
     20011 MEMB     163      POPC     HS       HAL1     0.900000E-01   1.00800           0
     20012 MEMB     163      POPC     O21      OSL     -0.490000       15.9994           0
     20013 MEMB     163      POPC     C21      CL       0.900000       12.0110           0
     20014 MEMB     163      POPC     O22      OBL     -0.630000       15.9994           0
     20015 MEMB     163      POPC     C22      CTL2    -0.220000       12.0110           0
     20016 MEMB     163      POPC     H2R      HAL2     0.900000E-01   1.00800           0
     20017 MEMB     163      POPC     H2S      HAL2     0.900000E-01   1.00800           0
     20018 MEMB     163      POPC     C3       CTL2     0.800000E-01   12.0110           0
     20019 MEMB     163      POPC     HX       HAL2     0.900000E-01   1.00800           0
     20020 MEMB     163      POPC     HY       HAL2     0.900000E-01   1.00800           0
     20021 MEMB     163      POPC     O31      OSL     -0.490000       15.9994           0
     20022 MEMB     163      POPC     C31      CL       0.900000       12.0110           0
     20023 MEMB     163      POPC     O32      OBL     -0.630000       15.9994           0
     20024 MEMB     163      POPC     C32      CTL2    -0.220000       12.0110           0
     20025 MEMB     163      POPC     H2X      HAL2     0.900000E-01   1.00800           0
     20026 MEMB     163      POPC     H2Y      HAL2     0.900000E-01   1.00800           0
     20027 MEMB     163      POPC     C23      CTL2    -0.180000       12.0110           0
     20028 MEMB     163      POPC     H3R      HAL2     0.900000E-01   1.00800           0
     20029 MEMB     163      POPC     H3S      HAL2     0.900000E-01   1.00800           0
     20030 MEMB     163      POPC     C24      CTL2    -0.180000       12.0110           0
     20031 MEMB     163      POPC     H4R      HAL2     0.900000E-01   1.00800           0
     20032 MEMB     163      POPC     H4S      HAL2     0.900000E-01   1.00800           0
     20033 MEMB     163      POPC     C25      CTL2    -0.180000       12.0110           0
     20034 MEMB     163      POPC     H5R      HAL2     0.900000E-01   1.00800           0
     20035 MEMB     163      POPC     H5S      HAL2     0.900000E-01   1.00800           0
     20036 MEMB     163      POPC     C26      CTL2    -0.180000       12.0110           0
     20037 MEMB     163      POPC     H6R      HAL2     0.900000E-01   1.00800           0
     20038 MEMB     163      POPC     H6S      HAL2     0.900000E-01   1.00800           0
     20039 MEMB     163      POPC     C27      CTL2    -0.180000       12.0110           0
     20040 MEMB     163      POPC     H7R      HAL2     0.900000E-01   1.00800           0
     20041 MEMB     163      POPC     H7S      HAL2     0.900000E-01   1.00800           0
     20042 MEMB     163      POPC     C28      CTL2    -0.180000       12.0110           0
     20043 MEMB     163      POPC     H8R      HAL2     0.900000E-01   1.00800           0
     20044 MEMB     163      POPC     H8S      HAL2     0.900000E-01   1.00800           0
     20045 MEMB     163      POPC     C29      CEL1    -0.150000       12.0110           0
     20046 MEMB     163      POPC     H91      HEL1     0.150000       1.00800           0
     20047 MEMB     163      POPC     C210     CEL1    -0.150000       12.0110           0
     20048 MEMB     163      POPC     H101     HEL1     0.150000       1.00800           0
     20049 MEMB     163      POPC     C211     CTL2    -0.180000       12.0110           0
     20050 MEMB     163      POPC     H11R     HAL2     0.900000E-01   1.00800           0
     20051 MEMB     163      POPC     H11S     HAL2     0.900000E-01   1.00800           0
     20052 MEMB     163      POPC     C212     CTL2    -0.180000       12.0110           0
     20053 MEMB     163      POPC     H12R     HAL2     0.900000E-01   1.00800           0
     20054 MEMB     163      POPC     H12S     HAL2     0.900000E-01   1.00800           0
     20055 MEMB     163      POPC     C213     CTL2    -0.180000       12.0110           0
     20056 MEMB     163      POPC     H13R     HAL2     0.900000E-01   1.00800           0
     20057 MEMB     163      POPC     H13S     HAL2     0.900000E-01   1.00800           0
     20058 MEMB     163      POPC     C214     CTL2    -0.180000       12.0110           0
     20059 MEMB     163      POPC     H14R     HAL2     0.900000E-01   1.00800           0
     20060 MEMB     163      POPC     H14S     HAL2     0.900000E-01   1.00800           0
     20061 MEMB     163      POPC     C215     CTL2    -0.180000       12.0110           0
     20062 MEMB     163      POPC     H15R     HAL2     0.900000E-01   1.00800           0
     20063 MEMB     163      POPC     H15S     HAL2     0.900000E-01   1.00800           0
     20064 MEMB     163      POPC     C216     CTL2    -0.180000       12.0110           0
     20065 MEMB     163      POPC     H16R     HAL2     0.900000E-01   1.00800           0
     20066 MEMB     163      POPC     H16S     HAL2     0.900000E-01   1.00800           0
     20067 MEMB     163      POPC     C217     CTL2    -0.180000       12.0110           0
     20068 MEMB     163      POPC     H17R     HAL2     0.900000E-01   1.00800           0
     20069 MEMB     163      POPC     H17S     HAL2     0.900000E-01   1.00800           0
     20070 MEMB     163      POPC     C218     CTL3    -0.270000       12.0110           0
     20071 MEMB     163      POPC     H18R     HAL3     0.900000E-01   1.00800           0
     20072 MEMB     163      POPC     H18S     HAL3     0.900000E-01   1.00800           0
     20073 MEMB     163      POPC     H18T     HAL3     0.900000E-01   1.00800           0
     20074 MEMB     163      POPC     C33      CTL2    -0.180000       12.0110           0
     20075 MEMB     163      POPC     H3X      HAL2     0.900000E-01   1.00800           0
     20076 MEMB     163      POPC     H3Y      HAL2     0.900000E-01   1.00800           0
     20077 MEMB     163      POPC     C34      CTL2    -0.180000       12.0110           0
     20078 MEMB     163      POPC     H4X      HAL2     0.900000E-01   1.00800           0
     20079 MEMB     163      POPC     H4Y      HAL2     0.900000E-01   1.00800           0
     20080 MEMB     163      POPC     C35      CTL2    -0.180000       12.0110           0
     20081 MEMB     163      POPC     H5X      HAL2     0.900000E-01   1.00800           0
     20082 MEMB     163      POPC     H5Y      HAL2     0.900000E-01   1.00800           0
     20083 MEMB     163      POPC     C36      CTL2    -0.180000       12.0110           0
     20084 MEMB     163      POPC     H6X      HAL2     0.900000E-01   1.00800           0
     20085 MEMB     163      POPC     H6Y      HAL2     0.900000E-01   1.00800           0
     20086 MEMB     163      POPC     C37      CTL2    -0.180000       12.0110           0
     20087 MEMB     163      POPC     H7X      HAL2     0.900000E-01   1.00800           0
     20088 MEMB     163      POPC     H7Y      HAL2     0.900000E-01   1.00800           0
     20089 MEMB     163      POPC     C38      CTL2    -0.180000       12.0110           0
     20090 MEMB     163      POPC     H8X      HAL2     0.900000E-01   1.00800           0
     20091 MEMB     163      POPC     H8Y      HAL2     0.900000E-01   1.00800           0
     20092 MEMB     163      POPC     C39      CTL2    -0.180000       12.0110           0
     20093 MEMB     163      POPC     H9X      HAL2     0.900000E-01   1.00800           0
     20094 MEMB     163      POPC     H9Y      HAL2     0.900000E-01   1.00800           0
     20095 MEMB     163      POPC     C310     CTL2    -0.180000       12.0110           0
     20096 MEMB     163      POPC     H10X     HAL2     0.900000E-01   1.00800           0
     20097 MEMB     163      POPC     H10Y     HAL2     0.900000E-01   1.00800           0
     20098 MEMB     163      POPC     C311     CTL2    -0.180000       12.0110           0
     20099 MEMB     163      POPC     H11X     HAL2     0.900000E-01   1.00800           0
     20100 MEMB     163      POPC     H11Y     HAL2     0.900000E-01   1.00800           0
     20101 MEMB     163      POPC     C312     CTL2    -0.180000       12.0110           0
     20102 MEMB     163      POPC     H12X     HAL2     0.900000E-01   1.00800           0
     20103 MEMB     163      POPC     H12Y     HAL2     0.900000E-01   1.00800           0
     20104 MEMB     163      POPC     C313     CTL2    -0.180000       12.0110           0
     20105 MEMB     163      POPC     H13X     HAL2     0.900000E-01   1.00800           0
     20106 MEMB     163      POPC     H13Y     HAL2     0.900000E-01   1.00800           0
     20107 MEMB     163      POPC     C314     CTL2    -0.180000       12.0110           0
     20108 MEMB     163      POPC     H14X     HAL2     0.900000E-01   1.00800           0
     20109 MEMB     163      POPC     H14Y     HAL2     0.900000E-01   1.00800           0
     20110 MEMB     163      POPC     C315     CTL2    -0.180000       12.0110           0
     20111 MEMB     163      POPC     H15X     HAL2     0.900000E-01   1.00800           0
     20112 MEMB     163      POPC     H15Y     HAL2     0.900000E-01   1.00800           0
     20113 MEMB     163      POPC     C316     CTL3    -0.270000       12.0110           0
     20114 MEMB     163      POPC     H16X     HAL3     0.900000E-01   1.00800           0
     20115 MEMB     163      POPC     H16Y     HAL3     0.900000E-01   1.00800           0
     20116 MEMB     163      POPC     H16Z     HAL3     0.900000E-01   1.00800           0
     20117 MEMB     169      POPC     N        NTL     -0.600000       14.0070           0
     20118 MEMB     169      POPC     C12      CTL2    -0.100000       12.0110           0
     20119 MEMB     169      POPC     H12A     HL       0.250000       1.00800           0
     20120 MEMB     169      POPC     H12B     HL       0.250000       1.00800           0
     20121 MEMB     169      POPC     C13      CTL5    -0.350000       12.0110           0
     20122 MEMB     169      POPC     H13A     HL       0.250000       1.00800           0
     20123 MEMB     169      POPC     H13B     HL       0.250000       1.00800           0
     20124 MEMB     169      POPC     H13C     HL       0.250000       1.00800           0
     20125 MEMB     169      POPC     C14      CTL5    -0.350000       12.0110           0
     20126 MEMB     169      POPC     H14A     HL       0.250000       1.00800           0
     20127 MEMB     169      POPC     H14B     HL       0.250000       1.00800           0
     20128 MEMB     169      POPC     H14C     HL       0.250000       1.00800           0
     20129 MEMB     169      POPC     C15      CTL5    -0.350000       12.0110           0
     20130 MEMB     169      POPC     H15A     HL       0.250000       1.00800           0
     20131 MEMB     169      POPC     H15B     HL       0.250000       1.00800           0
     20132 MEMB     169      POPC     H15C     HL       0.250000       1.00800           0
     20133 MEMB     169      POPC     C11      CTL2    -0.800000E-01   12.0110           0
     20134 MEMB     169      POPC     H11A     HAL2     0.900000E-01   1.00800           0
     20135 MEMB     169      POPC     H11B     HAL2     0.900000E-01   1.00800           0
     20136 MEMB     169      POPC     P        PL       1.500000       30.9740           0
     20137 MEMB     169      POPC     O13      O2L     -0.780000       15.9994           0
     20138 MEMB     169      POPC     O14      O2L     -0.780000       15.9994           0
     20139 MEMB     169      POPC     O12      OSLP    -0.570000       15.9994           0
     20140 MEMB     169      POPC     O11      OSLP    -0.570000       15.9994           0
     20141 MEMB     169      POPC     C1       CTL2    -0.800000E-01   12.0110           0
     20142 MEMB     169      POPC     HA       HAL2     0.900000E-01   1.00800           0
     20143 MEMB     169      POPC     HB       HAL2     0.900000E-01   1.00800           0
     20144 MEMB     169      POPC     C2       CTL1     0.170000       12.0110           0
     20145 MEMB     169      POPC     HS       HAL1     0.900000E-01   1.00800           0
     20146 MEMB     169      POPC     O21      OSL     -0.490000       15.9994           0
     20147 MEMB     169      POPC     C21      CL       0.900000       12.0110           0
     20148 MEMB     169      POPC     O22      OBL     -0.630000       15.9994           0
     20149 MEMB     169      POPC     C22      CTL2    -0.220000       12.0110           0
     20150 MEMB     169      POPC     H2R      HAL2     0.900000E-01   1.00800           0
     20151 MEMB     169      POPC     H2S      HAL2     0.900000E-01   1.00800           0
     20152 MEMB     169      POPC     C3       CTL2     0.800000E-01   12.0110           0
     20153 MEMB     169      POPC     HX       HAL2     0.900000E-01   1.00800           0
     20154 MEMB     169      POPC     HY       HAL2     0.900000E-01   1.00800           0
     20155 MEMB     169      POPC     O31      OSL     -0.490000       15.9994           0
     20156 MEMB     169      POPC     C31      CL       0.900000       12.0110           0
     20157 MEMB     169      POPC     O32      OBL     -0.630000       15.9994           0
     20158 MEMB     169      POPC     C32      CTL2    -0.220000       12.0110           0
     20159 MEMB     169      POPC     H2X      HAL2     0.900000E-01   1.00800           0
     20160 MEMB     169      POPC     H2Y      HAL2     0.900000E-01   1.00800           0
     20161 MEMB     169      POPC     C23      CTL2    -0.180000       12.0110           0
     20162 MEMB     169      POPC     H3R      HAL2     0.900000E-01   1.00800           0
     20163 MEMB     169      POPC     H3S      HAL2     0.900000E-01   1.00800           0
     20164 MEMB     169      POPC     C24      CTL2    -0.180000       12.0110           0
     20165 MEMB     169      POPC     H4R      HAL2     0.900000E-01   1.00800           0
     20166 MEMB     169      POPC     H4S      HAL2     0.900000E-01   1.00800           0
     20167 MEMB     169      POPC     C25      CTL2    -0.180000       12.0110           0
     20168 MEMB     169      POPC     H5R      HAL2     0.900000E-01   1.00800           0
     20169 MEMB     169      POPC     H5S      HAL2     0.900000E-01   1.00800           0
     20170 MEMB     169      POPC     C26      CTL2    -0.180000       12.0110           0
     20171 MEMB     169      POPC     H6R      HAL2     0.900000E-01   1.00800           0
     20172 MEMB     169      POPC     H6S      HAL2     0.900000E-01   1.00800           0
     20173 MEMB     169      POPC     C27      CTL2    -0.180000       12.0110           0
     20174 MEMB     169      POPC     H7R      HAL2     0.900000E-01   1.00800           0
     20175 MEMB     169      POPC     H7S      HAL2     0.900000E-01   1.00800           0
     20176 MEMB     169      POPC     C28      CTL2    -0.180000       12.0110           0
     20177 MEMB     169      POPC     H8R      HAL2     0.900000E-01   1.00800           0
     20178 MEMB     169      POPC     H8S      HAL2     0.900000E-01   1.00800           0
     20179 MEMB     169      POPC     C29      CEL1    -0.150000       12.0110           0
     20180 MEMB     169      POPC     H91      HEL1     0.150000       1.00800           0
     20181 MEMB     169      POPC     C210     CEL1    -0.150000       12.0110           0
     20182 MEMB     169      POPC     H101     HEL1     0.150000       1.00800           0
     20183 MEMB     169      POPC     C211     CTL2    -0.180000       12.0110           0
     20184 MEMB     169      POPC     H11R     HAL2     0.900000E-01   1.00800           0
     20185 MEMB     169      POPC     H11S     HAL2     0.900000E-01   1.00800           0
     20186 MEMB     169      POPC     C212     CTL2    -0.180000       12.0110           0
     20187 MEMB     169      POPC     H12R     HAL2     0.900000E-01   1.00800           0
     20188 MEMB     169      POPC     H12S     HAL2     0.900000E-01   1.00800           0
     20189 MEMB     169      POPC     C213     CTL2    -0.180000       12.0110           0
     20190 MEMB     169      POPC     H13R     HAL2     0.900000E-01   1.00800           0
     20191 MEMB     169      POPC     H13S     HAL2     0.900000E-01   1.00800           0
     20192 MEMB     169      POPC     C214     CTL2    -0.180000       12.0110           0
     20193 MEMB     169      POPC     H14R     HAL2     0.900000E-01   1.00800           0
     20194 MEMB     169      POPC     H14S     HAL2     0.900000E-01   1.00800           0
     20195 MEMB     169      POPC     C215     CTL2    -0.180000       12.0110           0
     20196 MEMB     169      POPC     H15R     HAL2     0.900000E-01   1.00800           0
     20197 MEMB     169      POPC     H15S     HAL2     0.900000E-01   1.00800           0
     20198 MEMB     169      POPC     C216     CTL2    -0.180000       12.0110           0
     20199 MEMB     169      POPC     H16R     HAL2     0.900000E-01   1.00800           0
     20200 MEMB     169      POPC     H16S     HAL2     0.900000E-01   1.00800           0
     20201 MEMB     169      POPC     C217     CTL2    -0.180000       12.0110           0
     20202 MEMB     169      POPC     H17R     HAL2     0.900000E-01   1.00800           0
     20203 MEMB     169      POPC     H17S     HAL2     0.900000E-01   1.00800           0
     20204 MEMB     169      POPC     C218     CTL3    -0.270000       12.0110           0
     20205 MEMB     169      POPC     H18R     HAL3     0.900000E-01   1.00800           0
     20206 MEMB     169      POPC     H18S     HAL3     0.900000E-01   1.00800           0
     20207 MEMB     169      POPC     H18T     HAL3     0.900000E-01   1.00800           0
     20208 MEMB     169      POPC     C33      CTL2    -0.180000       12.0110           0
     20209 MEMB     169      POPC     H3X      HAL2     0.900000E-01   1.00800           0
     20210 MEMB     169      POPC     H3Y      HAL2     0.900000E-01   1.00800           0
     20211 MEMB     169      POPC     C34      CTL2    -0.180000       12.0110           0
     20212 MEMB     169      POPC     H4X      HAL2     0.900000E-01   1.00800           0
     20213 MEMB     169      POPC     H4Y      HAL2     0.900000E-01   1.00800           0
     20214 MEMB     169      POPC     C35      CTL2    -0.180000       12.0110           0
     20215 MEMB     169      POPC     H5X      HAL2     0.900000E-01   1.00800           0
     20216 MEMB     169      POPC     H5Y      HAL2     0.900000E-01   1.00800           0
     20217 MEMB     169      POPC     C36      CTL2    -0.180000       12.0110           0
     20218 MEMB     169      POPC     H6X      HAL2     0.900000E-01   1.00800           0
     20219 MEMB     169      POPC     H6Y      HAL2     0.900000E-01   1.00800           0
     20220 MEMB     169      POPC     C37      CTL2    -0.180000       12.0110           0
     20221 MEMB     169      POPC     H7X      HAL2     0.900000E-01   1.00800           0
     20222 MEMB     169      POPC     H7Y      HAL2     0.900000E-01   1.00800           0
     20223 MEMB     169      POPC     C38      CTL2    -0.180000       12.0110           0
     20224 MEMB     169      POPC     H8X      HAL2     0.900000E-01   1.00800           0
     20225 MEMB     169      POPC     H8Y      HAL2     0.900000E-01   1.00800           0
     20226 MEMB     169      POPC     C39      CTL2    -0.180000       12.0110           0
     20227 MEMB     169      POPC     H9X      HAL2     0.900000E-01   1.00800           0
     20228 MEMB     169      POPC     H9Y      HAL2     0.900000E-01   1.00800           0
     20229 MEMB     169      POPC     C310     CTL2    -0.180000       12.0110           0
     20230 MEMB     169      POPC     H10X     HAL2     0.900000E-01   1.00800           0
     20231 MEMB     169      POPC     H10Y     HAL2     0.900000E-01   1.00800           0
     20232 MEMB     169      POPC     C311     CTL2    -0.180000       12.0110           0
     20233 MEMB     169      POPC     H11X     HAL2     0.900000E-01   1.00800           0
     20234 MEMB     169      POPC     H11Y     HAL2     0.900000E-01   1.00800           0
     20235 MEMB     169      POPC     C312     CTL2    -0.180000       12.0110           0
     20236 MEMB     169      POPC     H12X     HAL2     0.900000E-01   1.00800           0
     20237 MEMB     169      POPC     H12Y     HAL2     0.900000E-01   1.00800           0
     20238 MEMB     169      POPC     C313     CTL2    -0.180000       12.0110           0
     20239 MEMB     169      POPC     H13X     HAL2     0.900000E-01   1.00800           0
     20240 MEMB     169      POPC     H13Y     HAL2     0.900000E-01   1.00800           0
     20241 MEMB     169      POPC     C314     CTL2    -0.180000       12.0110           0
     20242 MEMB     169      POPC     H14X     HAL2     0.900000E-01   1.00800           0
     20243 MEMB     169      POPC     H14Y     HAL2     0.900000E-01   1.00800           0
     20244 MEMB     169      POPC     C315     CTL2    -0.180000       12.0110           0
     20245 MEMB     169      POPC     H15X     HAL2     0.900000E-01   1.00800           0
     20246 MEMB     169      POPC     H15Y     HAL2     0.900000E-01   1.00800           0
     20247 MEMB     169      POPC     C316     CTL3    -0.270000       12.0110           0
     20248 MEMB     169      POPC     H16X     HAL3     0.900000E-01   1.00800           0
     20249 MEMB     169      POPC     H16Y     HAL3     0.900000E-01   1.00800           0
     20250 MEMB     169      POPC     H16Z     HAL3     0.900000E-01   1.00800           0
     20251 MEMB     170      POPC     N        NTL     -0.600000       14.0070           0
     20252 MEMB     170      POPC     C12      CTL2    -0.100000       12.0110           0
     20253 MEMB     170      POPC     H12A     HL       0.250000       1.00800           0
     20254 MEMB     170      POPC     H12B     HL       0.250000       1.00800           0
     20255 MEMB     170      POPC     C13      CTL5    -0.350000       12.0110           0
     20256 MEMB     170      POPC     H13A     HL       0.250000       1.00800           0
     20257 MEMB     170      POPC     H13B     HL       0.250000       1.00800           0
     20258 MEMB     170      POPC     H13C     HL       0.250000       1.00800           0
     20259 MEMB     170      POPC     C14      CTL5    -0.350000       12.0110           0
     20260 MEMB     170      POPC     H14A     HL       0.250000       1.00800           0
     20261 MEMB     170      POPC     H14B     HL       0.250000       1.00800           0
     20262 MEMB     170      POPC     H14C     HL       0.250000       1.00800           0
     20263 MEMB     170      POPC     C15      CTL5    -0.350000       12.0110           0
     20264 MEMB     170      POPC     H15A     HL       0.250000       1.00800           0
     20265 MEMB     170      POPC     H15B     HL       0.250000       1.00800           0
     20266 MEMB     170      POPC     H15C     HL       0.250000       1.00800           0
     20267 MEMB     170      POPC     C11      CTL2    -0.800000E-01   12.0110           0
     20268 MEMB     170      POPC     H11A     HAL2     0.900000E-01   1.00800           0
     20269 MEMB     170      POPC     H11B     HAL2     0.900000E-01   1.00800           0
     20270 MEMB     170      POPC     P        PL       1.500000       30.9740           0
     20271 MEMB     170      POPC     O13      O2L     -0.780000       15.9994           0
     20272 MEMB     170      POPC     O14      O2L     -0.780000       15.9994           0
     20273 MEMB     170      POPC     O12      OSLP    -0.570000       15.9994           0
     20274 MEMB     170      POPC     O11      OSLP    -0.570000       15.9994           0
     20275 MEMB     170      POPC     C1       CTL2    -0.800000E-01   12.0110           0
     20276 MEMB     170      POPC     HA       HAL2     0.900000E-01   1.00800           0
     20277 MEMB     170      POPC     HB       HAL2     0.900000E-01   1.00800           0
     20278 MEMB     170      POPC     C2       CTL1     0.170000       12.0110           0
     20279 MEMB     170      POPC     HS       HAL1     0.900000E-01   1.00800           0
     20280 MEMB     170      POPC     O21      OSL     -0.490000       15.9994           0
     20281 MEMB     170      POPC     C21      CL       0.900000       12.0110           0
     20282 MEMB     170      POPC     O22      OBL     -0.630000       15.9994           0
     20283 MEMB     170      POPC     C22      CTL2    -0.220000       12.0110           0
     20284 MEMB     170      POPC     H2R      HAL2     0.900000E-01   1.00800           0
     20285 MEMB     170      POPC     H2S      HAL2     0.900000E-01   1.00800           0
     20286 MEMB     170      POPC     C3       CTL2     0.800000E-01   12.0110           0
     20287 MEMB     170      POPC     HX       HAL2     0.900000E-01   1.00800           0
     20288 MEMB     170      POPC     HY       HAL2     0.900000E-01   1.00800           0
     20289 MEMB     170      POPC     O31      OSL     -0.490000       15.9994           0
     20290 MEMB     170      POPC     C31      CL       0.900000       12.0110           0
     20291 MEMB     170      POPC     O32      OBL     -0.630000       15.9994           0
     20292 MEMB     170      POPC     C32      CTL2    -0.220000       12.0110           0
     20293 MEMB     170      POPC     H2X      HAL2     0.900000E-01   1.00800           0
     20294 MEMB     170      POPC     H2Y      HAL2     0.900000E-01   1.00800           0
     20295 MEMB     170      POPC     C23      CTL2    -0.180000       12.0110           0
     20296 MEMB     170      POPC     H3R      HAL2     0.900000E-01   1.00800           0
     20297 MEMB     170      POPC     H3S      HAL2     0.900000E-01   1.00800           0
     20298 MEMB     170      POPC     C24      CTL2    -0.180000       12.0110           0
     20299 MEMB     170      POPC     H4R      HAL2     0.900000E-01   1.00800           0
     20300 MEMB     170      POPC     H4S      HAL2     0.900000E-01   1.00800           0
     20301 MEMB     170      POPC     C25      CTL2    -0.180000       12.0110           0
     20302 MEMB     170      POPC     H5R      HAL2     0.900000E-01   1.00800           0
     20303 MEMB     170      POPC     H5S      HAL2     0.900000E-01   1.00800           0
     20304 MEMB     170      POPC     C26      CTL2    -0.180000       12.0110           0
     20305 MEMB     170      POPC     H6R      HAL2     0.900000E-01   1.00800           0
     20306 MEMB     170      POPC     H6S      HAL2     0.900000E-01   1.00800           0
     20307 MEMB     170      POPC     C27      CTL2    -0.180000       12.0110           0
     20308 MEMB     170      POPC     H7R      HAL2     0.900000E-01   1.00800           0
     20309 MEMB     170      POPC     H7S      HAL2     0.900000E-01   1.00800           0
     20310 MEMB     170      POPC     C28      CTL2    -0.180000       12.0110           0
     20311 MEMB     170      POPC     H8R      HAL2     0.900000E-01   1.00800           0
     20312 MEMB     170      POPC     H8S      HAL2     0.900000E-01   1.00800           0
     20313 MEMB     170      POPC     C29      CEL1    -0.150000       12.0110           0
     20314 MEMB     170      POPC     H91      HEL1     0.150000       1.00800           0
     20315 MEMB     170      POPC     C210     CEL1    -0.150000       12.0110           0
     20316 MEMB     170      POPC     H101     HEL1     0.150000       1.00800           0
     20317 MEMB     170      POPC     C211     CTL2    -0.180000       12.0110           0
     20318 MEMB     170      POPC     H11R     HAL2     0.900000E-01   1.00800           0
     20319 MEMB     170      POPC     H11S     HAL2     0.900000E-01   1.00800           0
     20320 MEMB     170      POPC     C212     CTL2    -0.180000       12.0110           0
     20321 MEMB     170      POPC     H12R     HAL2     0.900000E-01   1.00800           0
     20322 MEMB     170      POPC     H12S     HAL2     0.900000E-01   1.00800           0
     20323 MEMB     170      POPC     C213     CTL2    -0.180000       12.0110           0
     20324 MEMB     170      POPC     H13R     HAL2     0.900000E-01   1.00800           0
     20325 MEMB     170      POPC     H13S     HAL2     0.900000E-01   1.00800           0
     20326 MEMB     170      POPC     C214     CTL2    -0.180000       12.0110           0
     20327 MEMB     170      POPC     H14R     HAL2     0.900000E-01   1.00800           0
     20328 MEMB     170      POPC     H14S     HAL2     0.900000E-01   1.00800           0
     20329 MEMB     170      POPC     C215     CTL2    -0.180000       12.0110           0
     20330 MEMB     170      POPC     H15R     HAL2     0.900000E-01   1.00800           0
     20331 MEMB     170      POPC     H15S     HAL2     0.900000E-01   1.00800           0
     20332 MEMB     170      POPC     C216     CTL2    -0.180000       12.0110           0
     20333 MEMB     170      POPC     H16R     HAL2     0.900000E-01   1.00800           0
     20334 MEMB     170      POPC     H16S     HAL2     0.900000E-01   1.00800           0
     20335 MEMB     170      POPC     C217     CTL2    -0.180000       12.0110           0
     20336 MEMB     170      POPC     H17R     HAL2     0.900000E-01   1.00800           0
     20337 MEMB     170      POPC     H17S     HAL2     0.900000E-01   1.00800           0
     20338 MEMB     170      POPC     C218     CTL3    -0.270000       12.0110           0
     20339 MEMB     170      POPC     H18R     HAL3     0.900000E-01   1.00800           0
     20340 MEMB     170      POPC     H18S     HAL3     0.900000E-01   1.00800           0
     20341 MEMB     170      POPC     H18T     HAL3     0.900000E-01   1.00800           0
     20342 MEMB     170      POPC     C33      CTL2    -0.180000       12.0110           0
     20343 MEMB     170      POPC     H3X      HAL2     0.900000E-01   1.00800           0
     20344 MEMB     170      POPC     H3Y      HAL2     0.900000E-01   1.00800           0
     20345 MEMB     170      POPC     C34      CTL2    -0.180000       12.0110           0
     20346 MEMB     170      POPC     H4X      HAL2     0.900000E-01   1.00800           0
     20347 MEMB     170      POPC     H4Y      HAL2     0.900000E-01   1.00800           0
     20348 MEMB     170      POPC     C35      CTL2    -0.180000       12.0110           0
     20349 MEMB     170      POPC     H5X      HAL2     0.900000E-01   1.00800           0
     20350 MEMB     170      POPC     H5Y      HAL2     0.900000E-01   1.00800           0
     20351 MEMB     170      POPC     C36      CTL2    -0.180000       12.0110           0
     20352 MEMB     170      POPC     H6X      HAL2     0.900000E-01   1.00800           0
     20353 MEMB     170      POPC     H6Y      HAL2     0.900000E-01   1.00800           0
     20354 MEMB     170      POPC     C37      CTL2    -0.180000       12.0110           0
     20355 MEMB     170      POPC     H7X      HAL2     0.900000E-01   1.00800           0
     20356 MEMB     170      POPC     H7Y      HAL2     0.900000E-01   1.00800           0
     20357 MEMB     170      POPC     C38      CTL2    -0.180000       12.0110           0
     20358 MEMB     170      POPC     H8X      HAL2     0.900000E-01   1.00800           0
     20359 MEMB     170      POPC     H8Y      HAL2     0.900000E-01   1.00800           0
     20360 MEMB     170      POPC     C39      CTL2    -0.180000       12.0110           0
     20361 MEMB     170      POPC     H9X      HAL2     0.900000E-01   1.00800           0
     20362 MEMB     170      POPC     H9Y      HAL2     0.900000E-01   1.00800           0
     20363 MEMB     170      POPC     C310     CTL2    -0.180000       12.0110           0
     20364 MEMB     170      POPC     H10X     HAL2     0.900000E-01   1.00800           0
     20365 MEMB     170      POPC     H10Y     HAL2     0.900000E-01   1.00800           0
     20366 MEMB     170      POPC     C311     CTL2    -0.180000       12.0110           0
     20367 MEMB     170      POPC     H11X     HAL2     0.900000E-01   1.00800           0
     20368 MEMB     170      POPC     H11Y     HAL2     0.900000E-01   1.00800           0
     20369 MEMB     170      POPC     C312     CTL2    -0.180000       12.0110           0
     20370 MEMB     170      POPC     H12X     HAL2     0.900000E-01   1.00800           0
     20371 MEMB     170      POPC     H12Y     HAL2     0.900000E-01   1.00800           0
     20372 MEMB     170      POPC     C313     CTL2    -0.180000       12.0110           0
     20373 MEMB     170      POPC     H13X     HAL2     0.900000E-01   1.00800           0
     20374 MEMB     170      POPC     H13Y     HAL2     0.900000E-01   1.00800           0
     20375 MEMB     170      POPC     C314     CTL2    -0.180000       12.0110           0
     20376 MEMB     170      POPC     H14X     HAL2     0.900000E-01   1.00800           0
     20377 MEMB     170      POPC     H14Y     HAL2     0.900000E-01   1.00800           0
     20378 MEMB     170      POPC     C315     CTL2    -0.180000       12.0110           0
     20379 MEMB     170      POPC     H15X     HAL2     0.900000E-01   1.00800           0
     20380 MEMB     170      POPC     H15Y     HAL2     0.900000E-01   1.00800           0
     20381 MEMB     170      POPC     C316     CTL3    -0.270000       12.0110           0
     20382 MEMB     170      POPC     H16X     HAL3     0.900000E-01   1.00800           0
     20383 MEMB     170      POPC     H16Y     HAL3     0.900000E-01   1.00800           0
     20384 MEMB     170      POPC     H16Z     HAL3     0.900000E-01   1.00800           0
     20385 MEMB     171      POPC     N        NTL     -0.600000       14.0070           0
     20386 MEMB     171      POPC     C12      CTL2    -0.100000       12.0110           0
     20387 MEMB     171      POPC     H12A     HL       0.250000       1.00800           0
     20388 MEMB     171      POPC     H12B     HL       0.250000       1.00800           0
     20389 MEMB     171      POPC     C13      CTL5    -0.350000       12.0110           0
     20390 MEMB     171      POPC     H13A     HL       0.250000       1.00800           0
     20391 MEMB     171      POPC     H13B     HL       0.250000       1.00800           0
     20392 MEMB     171      POPC     H13C     HL       0.250000       1.00800           0
     20393 MEMB     171      POPC     C14      CTL5    -0.350000       12.0110           0
     20394 MEMB     171      POPC     H14A     HL       0.250000       1.00800           0
     20395 MEMB     171      POPC     H14B     HL       0.250000       1.00800           0
     20396 MEMB     171      POPC     H14C     HL       0.250000       1.00800           0
     20397 MEMB     171      POPC     C15      CTL5    -0.350000       12.0110           0
     20398 MEMB     171      POPC     H15A     HL       0.250000       1.00800           0
     20399 MEMB     171      POPC     H15B     HL       0.250000       1.00800           0
     20400 MEMB     171      POPC     H15C     HL       0.250000       1.00800           0
     20401 MEMB     171      POPC     C11      CTL2    -0.800000E-01   12.0110           0
     20402 MEMB     171      POPC     H11A     HAL2     0.900000E-01   1.00800           0
     20403 MEMB     171      POPC     H11B     HAL2     0.900000E-01   1.00800           0
     20404 MEMB     171      POPC     P        PL       1.500000       30.9740           0
     20405 MEMB     171      POPC     O13      O2L     -0.780000       15.9994           0
     20406 MEMB     171      POPC     O14      O2L     -0.780000       15.9994           0
     20407 MEMB     171      POPC     O12      OSLP    -0.570000       15.9994           0
     20408 MEMB     171      POPC     O11      OSLP    -0.570000       15.9994           0
     20409 MEMB     171      POPC     C1       CTL2    -0.800000E-01   12.0110           0
     20410 MEMB     171      POPC     HA       HAL2     0.900000E-01   1.00800           0
     20411 MEMB     171      POPC     HB       HAL2     0.900000E-01   1.00800           0
     20412 MEMB     171      POPC     C2       CTL1     0.170000       12.0110           0
     20413 MEMB     171      POPC     HS       HAL1     0.900000E-01   1.00800           0
     20414 MEMB     171      POPC     O21      OSL     -0.490000       15.9994           0
     20415 MEMB     171      POPC     C21      CL       0.900000       12.0110           0
     20416 MEMB     171      POPC     O22      OBL     -0.630000       15.9994           0
     20417 MEMB     171      POPC     C22      CTL2    -0.220000       12.0110           0
     20418 MEMB     171      POPC     H2R      HAL2     0.900000E-01   1.00800           0
     20419 MEMB     171      POPC     H2S      HAL2     0.900000E-01   1.00800           0
     20420 MEMB     171      POPC     C3       CTL2     0.800000E-01   12.0110           0
     20421 MEMB     171      POPC     HX       HAL2     0.900000E-01   1.00800           0
     20422 MEMB     171      POPC     HY       HAL2     0.900000E-01   1.00800           0
     20423 MEMB     171      POPC     O31      OSL     -0.490000       15.9994           0
     20424 MEMB     171      POPC     C31      CL       0.900000       12.0110           0
     20425 MEMB     171      POPC     O32      OBL     -0.630000       15.9994           0
     20426 MEMB     171      POPC     C32      CTL2    -0.220000       12.0110           0
     20427 MEMB     171      POPC     H2X      HAL2     0.900000E-01   1.00800           0
     20428 MEMB     171      POPC     H2Y      HAL2     0.900000E-01   1.00800           0
     20429 MEMB     171      POPC     C23      CTL2    -0.180000       12.0110           0
     20430 MEMB     171      POPC     H3R      HAL2     0.900000E-01   1.00800           0
     20431 MEMB     171      POPC     H3S      HAL2     0.900000E-01   1.00800           0
     20432 MEMB     171      POPC     C24      CTL2    -0.180000       12.0110           0
     20433 MEMB     171      POPC     H4R      HAL2     0.900000E-01   1.00800           0
     20434 MEMB     171      POPC     H4S      HAL2     0.900000E-01   1.00800           0
     20435 MEMB     171      POPC     C25      CTL2    -0.180000       12.0110           0
     20436 MEMB     171      POPC     H5R      HAL2     0.900000E-01   1.00800           0
     20437 MEMB     171      POPC     H5S      HAL2     0.900000E-01   1.00800           0
     20438 MEMB     171      POPC     C26      CTL2    -0.180000       12.0110           0
     20439 MEMB     171      POPC     H6R      HAL2     0.900000E-01   1.00800           0
     20440 MEMB     171      POPC     H6S      HAL2     0.900000E-01   1.00800           0
     20441 MEMB     171      POPC     C27      CTL2    -0.180000       12.0110           0
     20442 MEMB     171      POPC     H7R      HAL2     0.900000E-01   1.00800           0
     20443 MEMB     171      POPC     H7S      HAL2     0.900000E-01   1.00800           0
     20444 MEMB     171      POPC     C28      CTL2    -0.180000       12.0110           0
     20445 MEMB     171      POPC     H8R      HAL2     0.900000E-01   1.00800           0
     20446 MEMB     171      POPC     H8S      HAL2     0.900000E-01   1.00800           0
     20447 MEMB     171      POPC     C29      CEL1    -0.150000       12.0110           0
     20448 MEMB     171      POPC     H91      HEL1     0.150000       1.00800           0
     20449 MEMB     171      POPC     C210     CEL1    -0.150000       12.0110           0
     20450 MEMB     171      POPC     H101     HEL1     0.150000       1.00800           0
     20451 MEMB     171      POPC     C211     CTL2    -0.180000       12.0110           0
     20452 MEMB     171      POPC     H11R     HAL2     0.900000E-01   1.00800           0
     20453 MEMB     171      POPC     H11S     HAL2     0.900000E-01   1.00800           0
     20454 MEMB     171      POPC     C212     CTL2    -0.180000       12.0110           0
     20455 MEMB     171      POPC     H12R     HAL2     0.900000E-01   1.00800           0
     20456 MEMB     171      POPC     H12S     HAL2     0.900000E-01   1.00800           0
     20457 MEMB     171      POPC     C213     CTL2    -0.180000       12.0110           0
     20458 MEMB     171      POPC     H13R     HAL2     0.900000E-01   1.00800           0
     20459 MEMB     171      POPC     H13S     HAL2     0.900000E-01   1.00800           0
     20460 MEMB     171      POPC     C214     CTL2    -0.180000       12.0110           0
     20461 MEMB     171      POPC     H14R     HAL2     0.900000E-01   1.00800           0
     20462 MEMB     171      POPC     H14S     HAL2     0.900000E-01   1.00800           0
     20463 MEMB     171      POPC     C215     CTL2    -0.180000       12.0110           0
     20464 MEMB     171      POPC     H15R     HAL2     0.900000E-01   1.00800           0
     20465 MEMB     171      POPC     H15S     HAL2     0.900000E-01   1.00800           0
     20466 MEMB     171      POPC     C216     CTL2    -0.180000       12.0110           0
     20467 MEMB     171      POPC     H16R     HAL2     0.900000E-01   1.00800           0
     20468 MEMB     171      POPC     H16S     HAL2     0.900000E-01   1.00800           0
     20469 MEMB     171      POPC     C217     CTL2    -0.180000       12.0110           0
     20470 MEMB     171      POPC     H17R     HAL2     0.900000E-01   1.00800           0
     20471 MEMB     171      POPC     H17S     HAL2     0.900000E-01   1.00800           0
     20472 MEMB     171      POPC     C218     CTL3    -0.270000       12.0110           0
     20473 MEMB     171      POPC     H18R     HAL3     0.900000E-01   1.00800           0
     20474 MEMB     171      POPC     H18S     HAL3     0.900000E-01   1.00800           0
     20475 MEMB     171      POPC     H18T     HAL3     0.900000E-01   1.00800           0
     20476 MEMB     171      POPC     C33      CTL2    -0.180000       12.0110           0
     20477 MEMB     171      POPC     H3X      HAL2     0.900000E-01   1.00800           0
     20478 MEMB     171      POPC     H3Y      HAL2     0.900000E-01   1.00800           0
     20479 MEMB     171      POPC     C34      CTL2    -0.180000       12.0110           0
     20480 MEMB     171      POPC     H4X      HAL2     0.900000E-01   1.00800           0
     20481 MEMB     171      POPC     H4Y      HAL2     0.900000E-01   1.00800           0
     20482 MEMB     171      POPC     C35      CTL2    -0.180000       12.0110           0
     20483 MEMB     171      POPC     H5X      HAL2     0.900000E-01   1.00800           0
     20484 MEMB     171      POPC     H5Y      HAL2     0.900000E-01   1.00800           0
     20485 MEMB     171      POPC     C36      CTL2    -0.180000       12.0110           0
     20486 MEMB     171      POPC     H6X      HAL2     0.900000E-01   1.00800           0
     20487 MEMB     171      POPC     H6Y      HAL2     0.900000E-01   1.00800           0
     20488 MEMB     171      POPC     C37      CTL2    -0.180000       12.0110           0
     20489 MEMB     171      POPC     H7X      HAL2     0.900000E-01   1.00800           0
     20490 MEMB     171      POPC     H7Y      HAL2     0.900000E-01   1.00800           0
     20491 MEMB     171      POPC     C38      CTL2    -0.180000       12.0110           0
     20492 MEMB     171      POPC     H8X      HAL2     0.900000E-01   1.00800           0
     20493 MEMB     171      POPC     H8Y      HAL2     0.900000E-01   1.00800           0
     20494 MEMB     171      POPC     C39      CTL2    -0.180000       12.0110           0
     20495 MEMB     171      POPC     H9X      HAL2     0.900000E-01   1.00800           0
     20496 MEMB     171      POPC     H9Y      HAL2     0.900000E-01   1.00800           0
     20497 MEMB     171      POPC     C310     CTL2    -0.180000       12.0110           0
     20498 MEMB     171      POPC     H10X     HAL2     0.900000E-01   1.00800           0
     20499 MEMB     171      POPC     H10Y     HAL2     0.900000E-01   1.00800           0
     20500 MEMB     171      POPC     C311     CTL2    -0.180000       12.0110           0
     20501 MEMB     171      POPC     H11X     HAL2     0.900000E-01   1.00800           0
     20502 MEMB     171      POPC     H11Y     HAL2     0.900000E-01   1.00800           0
     20503 MEMB     171      POPC     C312     CTL2    -0.180000       12.0110           0
     20504 MEMB     171      POPC     H12X     HAL2     0.900000E-01   1.00800           0
     20505 MEMB     171      POPC     H12Y     HAL2     0.900000E-01   1.00800           0
     20506 MEMB     171      POPC     C313     CTL2    -0.180000       12.0110           0
     20507 MEMB     171      POPC     H13X     HAL2     0.900000E-01   1.00800           0
     20508 MEMB     171      POPC     H13Y     HAL2     0.900000E-01   1.00800           0
     20509 MEMB     171      POPC     C314     CTL2    -0.180000       12.0110           0
     20510 MEMB     171      POPC     H14X     HAL2     0.900000E-01   1.00800           0
     20511 MEMB     171      POPC     H14Y     HAL2     0.900000E-01   1.00800           0
     20512 MEMB     171      POPC     C315     CTL2    -0.180000       12.0110           0
     20513 MEMB     171      POPC     H15X     HAL2     0.900000E-01   1.00800           0
     20514 MEMB     171      POPC     H15Y     HAL2     0.900000E-01   1.00800           0
     20515 MEMB     171      POPC     C316     CTL3    -0.270000       12.0110           0
     20516 MEMB     171      POPC     H16X     HAL3     0.900000E-01   1.00800           0
     20517 MEMB     171      POPC     H16Y     HAL3     0.900000E-01   1.00800           0
     20518 MEMB     171      POPC     H16Z     HAL3     0.900000E-01   1.00800           0
     20519 MEMB     175      POPC     N        NTL     -0.600000       14.0070           0
     20520 MEMB     175      POPC     C12      CTL2    -0.100000       12.0110           0
     20521 MEMB     175      POPC     H12A     HL       0.250000       1.00800           0
     20522 MEMB     175      POPC     H12B     HL       0.250000       1.00800           0
     20523 MEMB     175      POPC     C13      CTL5    -0.350000       12.0110           0
     20524 MEMB     175      POPC     H13A     HL       0.250000       1.00800           0
     20525 MEMB     175      POPC     H13B     HL       0.250000       1.00800           0
     20526 MEMB     175      POPC     H13C     HL       0.250000       1.00800           0
     20527 MEMB     175      POPC     C14      CTL5    -0.350000       12.0110           0
     20528 MEMB     175      POPC     H14A     HL       0.250000       1.00800           0
     20529 MEMB     175      POPC     H14B     HL       0.250000       1.00800           0
     20530 MEMB     175      POPC     H14C     HL       0.250000       1.00800           0
     20531 MEMB     175      POPC     C15      CTL5    -0.350000       12.0110           0
     20532 MEMB     175      POPC     H15A     HL       0.250000       1.00800           0
     20533 MEMB     175      POPC     H15B     HL       0.250000       1.00800           0
     20534 MEMB     175      POPC     H15C     HL       0.250000       1.00800           0
     20535 MEMB     175      POPC     C11      CTL2    -0.800000E-01   12.0110           0
     20536 MEMB     175      POPC     H11A     HAL2     0.900000E-01   1.00800           0
     20537 MEMB     175      POPC     H11B     HAL2     0.900000E-01   1.00800           0
     20538 MEMB     175      POPC     P        PL       1.500000       30.9740           0
     20539 MEMB     175      POPC     O13      O2L     -0.780000       15.9994           0
     20540 MEMB     175      POPC     O14      O2L     -0.780000       15.9994           0
     20541 MEMB     175      POPC     O12      OSLP    -0.570000       15.9994           0
     20542 MEMB     175      POPC     O11      OSLP    -0.570000       15.9994           0
     20543 MEMB     175      POPC     C1       CTL2    -0.800000E-01   12.0110           0
     20544 MEMB     175      POPC     HA       HAL2     0.900000E-01   1.00800           0
     20545 MEMB     175      POPC     HB       HAL2     0.900000E-01   1.00800           0
     20546 MEMB     175      POPC     C2       CTL1     0.170000       12.0110           0
     20547 MEMB     175      POPC     HS       HAL1     0.900000E-01   1.00800           0
     20548 MEMB     175      POPC     O21      OSL     -0.490000       15.9994           0
     20549 MEMB     175      POPC     C21      CL       0.900000       12.0110           0
     20550 MEMB     175      POPC     O22      OBL     -0.630000       15.9994           0
     20551 MEMB     175      POPC     C22      CTL2    -0.220000       12.0110           0
     20552 MEMB     175      POPC     H2R      HAL2     0.900000E-01   1.00800           0
     20553 MEMB     175      POPC     H2S      HAL2     0.900000E-01   1.00800           0
     20554 MEMB     175      POPC     C3       CTL2     0.800000E-01   12.0110           0
     20555 MEMB     175      POPC     HX       HAL2     0.900000E-01   1.00800           0
     20556 MEMB     175      POPC     HY       HAL2     0.900000E-01   1.00800           0
     20557 MEMB     175      POPC     O31      OSL     -0.490000       15.9994           0
     20558 MEMB     175      POPC     C31      CL       0.900000       12.0110           0
     20559 MEMB     175      POPC     O32      OBL     -0.630000       15.9994           0
     20560 MEMB     175      POPC     C32      CTL2    -0.220000       12.0110           0
     20561 MEMB     175      POPC     H2X      HAL2     0.900000E-01   1.00800           0
     20562 MEMB     175      POPC     H2Y      HAL2     0.900000E-01   1.00800           0
     20563 MEMB     175      POPC     C23      CTL2    -0.180000       12.0110           0
     20564 MEMB     175      POPC     H3R      HAL2     0.900000E-01   1.00800           0
     20565 MEMB     175      POPC     H3S      HAL2     0.900000E-01   1.00800           0
     20566 MEMB     175      POPC     C24      CTL2    -0.180000       12.0110           0
     20567 MEMB     175      POPC     H4R      HAL2     0.900000E-01   1.00800           0
     20568 MEMB     175      POPC     H4S      HAL2     0.900000E-01   1.00800           0
     20569 MEMB     175      POPC     C25      CTL2    -0.180000       12.0110           0
     20570 MEMB     175      POPC     H5R      HAL2     0.900000E-01   1.00800           0
     20571 MEMB     175      POPC     H5S      HAL2     0.900000E-01   1.00800           0
     20572 MEMB     175      POPC     C26      CTL2    -0.180000       12.0110           0
     20573 MEMB     175      POPC     H6R      HAL2     0.900000E-01   1.00800           0
     20574 MEMB     175      POPC     H6S      HAL2     0.900000E-01   1.00800           0
     20575 MEMB     175      POPC     C27      CTL2    -0.180000       12.0110           0
     20576 MEMB     175      POPC     H7R      HAL2     0.900000E-01   1.00800           0
     20577 MEMB     175      POPC     H7S      HAL2     0.900000E-01   1.00800           0
     20578 MEMB     175      POPC     C28      CTL2    -0.180000       12.0110           0
     20579 MEMB     175      POPC     H8R      HAL2     0.900000E-01   1.00800           0
     20580 MEMB     175      POPC     H8S      HAL2     0.900000E-01   1.00800           0
     20581 MEMB     175      POPC     C29      CEL1    -0.150000       12.0110           0
     20582 MEMB     175      POPC     H91      HEL1     0.150000       1.00800           0
     20583 MEMB     175      POPC     C210     CEL1    -0.150000       12.0110           0
     20584 MEMB     175      POPC     H101     HEL1     0.150000       1.00800           0
     20585 MEMB     175      POPC     C211     CTL2    -0.180000       12.0110           0
     20586 MEMB     175      POPC     H11R     HAL2     0.900000E-01   1.00800           0
     20587 MEMB     175      POPC     H11S     HAL2     0.900000E-01   1.00800           0
     20588 MEMB     175      POPC     C212     CTL2    -0.180000       12.0110           0
     20589 MEMB     175      POPC     H12R     HAL2     0.900000E-01   1.00800           0
     20590 MEMB     175      POPC     H12S     HAL2     0.900000E-01   1.00800           0
     20591 MEMB     175      POPC     C213     CTL2    -0.180000       12.0110           0
     20592 MEMB     175      POPC     H13R     HAL2     0.900000E-01   1.00800           0
     20593 MEMB     175      POPC     H13S     HAL2     0.900000E-01   1.00800           0
     20594 MEMB     175      POPC     C214     CTL2    -0.180000       12.0110           0
     20595 MEMB     175      POPC     H14R     HAL2     0.900000E-01   1.00800           0
     20596 MEMB     175      POPC     H14S     HAL2     0.900000E-01   1.00800           0
     20597 MEMB     175      POPC     C215     CTL2    -0.180000       12.0110           0
     20598 MEMB     175      POPC     H15R     HAL2     0.900000E-01   1.00800           0
     20599 MEMB     175      POPC     H15S     HAL2     0.900000E-01   1.00800           0
     20600 MEMB     175      POPC     C216     CTL2    -0.180000       12.0110           0
     20601 MEMB     175      POPC     H16R     HAL2     0.900000E-01   1.00800           0
     20602 MEMB     175      POPC     H16S     HAL2     0.900000E-01   1.00800           0
     20603 MEMB     175      POPC     C217     CTL2    -0.180000       12.0110           0
     20604 MEMB     175      POPC     H17R     HAL2     0.900000E-01   1.00800           0
     20605 MEMB     175      POPC     H17S     HAL2     0.900000E-01   1.00800           0
     20606 MEMB     175      POPC     C218     CTL3    -0.270000       12.0110           0
     20607 MEMB     175      POPC     H18R     HAL3     0.900000E-01   1.00800           0
     20608 MEMB     175      POPC     H18S     HAL3     0.900000E-01   1.00800           0
     20609 MEMB     175      POPC     H18T     HAL3     0.900000E-01   1.00800           0
     20610 MEMB     175      POPC     C33      CTL2    -0.180000       12.0110           0
     20611 MEMB     175      POPC     H3X      HAL2     0.900000E-01   1.00800           0
     20612 MEMB     175      POPC     H3Y      HAL2     0.900000E-01   1.00800           0
     20613 MEMB     175      POPC     C34      CTL2    -0.180000       12.0110           0
     20614 MEMB     175      POPC     H4X      HAL2     0.900000E-01   1.00800           0
     20615 MEMB     175      POPC     H4Y      HAL2     0.900000E-01   1.00800           0
     20616 MEMB     175      POPC     C35      CTL2    -0.180000       12.0110           0
     20617 MEMB     175      POPC     H5X      HAL2     0.900000E-01   1.00800           0
     20618 MEMB     175      POPC     H5Y      HAL2     0.900000E-01   1.00800           0
     20619 MEMB     175      POPC     C36      CTL2    -0.180000       12.0110           0
     20620 MEMB     175      POPC     H6X      HAL2     0.900000E-01   1.00800           0
     20621 MEMB     175      POPC     H6Y      HAL2     0.900000E-01   1.00800           0
     20622 MEMB     175      POPC     C37      CTL2    -0.180000       12.0110           0
     20623 MEMB     175      POPC     H7X      HAL2     0.900000E-01   1.00800           0
     20624 MEMB     175      POPC     H7Y      HAL2     0.900000E-01   1.00800           0
     20625 MEMB     175      POPC     C38      CTL2    -0.180000       12.0110           0
     20626 MEMB     175      POPC     H8X      HAL2     0.900000E-01   1.00800           0
     20627 MEMB     175      POPC     H8Y      HAL2     0.900000E-01   1.00800           0
     20628 MEMB     175      POPC     C39      CTL2    -0.180000       12.0110           0
     20629 MEMB     175      POPC     H9X      HAL2     0.900000E-01   1.00800           0
     20630 MEMB     175      POPC     H9Y      HAL2     0.900000E-01   1.00800           0
     20631 MEMB     175      POPC     C310     CTL2    -0.180000       12.0110           0
     20632 MEMB     175      POPC     H10X     HAL2     0.900000E-01   1.00800           0
     20633 MEMB     175      POPC     H10Y     HAL2     0.900000E-01   1.00800           0
     20634 MEMB     175      POPC     C311     CTL2    -0.180000       12.0110           0
     20635 MEMB     175      POPC     H11X     HAL2     0.900000E-01   1.00800           0
     20636 MEMB     175      POPC     H11Y     HAL2     0.900000E-01   1.00800           0
     20637 MEMB     175      POPC     C312     CTL2    -0.180000       12.0110           0
     20638 MEMB     175      POPC     H12X     HAL2     0.900000E-01   1.00800           0
     20639 MEMB     175      POPC     H12Y     HAL2     0.900000E-01   1.00800           0
     20640 MEMB     175      POPC     C313     CTL2    -0.180000       12.0110           0
     20641 MEMB     175      POPC     H13X     HAL2     0.900000E-01   1.00800           0
     20642 MEMB     175      POPC     H13Y     HAL2     0.900000E-01   1.00800           0
     20643 MEMB     175      POPC     C314     CTL2    -0.180000       12.0110           0
     20644 MEMB     175      POPC     H14X     HAL2     0.900000E-01   1.00800           0
     20645 MEMB     175      POPC     H14Y     HAL2     0.900000E-01   1.00800           0
     20646 MEMB     175      POPC     C315     CTL2    -0.180000       12.0110           0
     20647 MEMB     175      POPC     H15X     HAL2     0.900000E-01   1.00800           0
     20648 MEMB     175      POPC     H15Y     HAL2     0.900000E-01   1.00800           0
     20649 MEMB     175      POPC     C316     CTL3    -0.270000       12.0110           0
     20650 MEMB     175      POPC     H16X     HAL3     0.900000E-01   1.00800           0
     20651 MEMB     175      POPC     H16Y     HAL3     0.900000E-01   1.00800           0
     20652 MEMB     175      POPC     H16Z     HAL3     0.900000E-01   1.00800           0
     20653 MEMB     181      POPC     N        NTL     -0.600000       14.0070           0
     20654 MEMB     181      POPC     C12      CTL2    -0.100000       12.0110           0
     20655 MEMB     181      POPC     H12A     HL       0.250000       1.00800           0
     20656 MEMB     181      POPC     H12B     HL       0.250000       1.00800           0
     20657 MEMB     181      POPC     C13      CTL5    -0.350000       12.0110           0
     20658 MEMB     181      POPC     H13A     HL       0.250000       1.00800           0
     20659 MEMB     181      POPC     H13B     HL       0.250000       1.00800           0
     20660 MEMB     181      POPC     H13C     HL       0.250000       1.00800           0
     20661 MEMB     181      POPC     C14      CTL5    -0.350000       12.0110           0
     20662 MEMB     181      POPC     H14A     HL       0.250000       1.00800           0
     20663 MEMB     181      POPC     H14B     HL       0.250000       1.00800           0
     20664 MEMB     181      POPC     H14C     HL       0.250000       1.00800           0
     20665 MEMB     181      POPC     C15      CTL5    -0.350000       12.0110           0
     20666 MEMB     181      POPC     H15A     HL       0.250000       1.00800           0
     20667 MEMB     181      POPC     H15B     HL       0.250000       1.00800           0
     20668 MEMB     181      POPC     H15C     HL       0.250000       1.00800           0
     20669 MEMB     181      POPC     C11      CTL2    -0.800000E-01   12.0110           0
     20670 MEMB     181      POPC     H11A     HAL2     0.900000E-01   1.00800           0
     20671 MEMB     181      POPC     H11B     HAL2     0.900000E-01   1.00800           0
     20672 MEMB     181      POPC     P        PL       1.500000       30.9740           0
     20673 MEMB     181      POPC     O13      O2L     -0.780000       15.9994           0
     20674 MEMB     181      POPC     O14      O2L     -0.780000       15.9994           0
     20675 MEMB     181      POPC     O12      OSLP    -0.570000       15.9994           0
     20676 MEMB     181      POPC     O11      OSLP    -0.570000       15.9994           0
     20677 MEMB     181      POPC     C1       CTL2    -0.800000E-01   12.0110           0
     20678 MEMB     181      POPC     HA       HAL2     0.900000E-01   1.00800           0
     20679 MEMB     181      POPC     HB       HAL2     0.900000E-01   1.00800           0
     20680 MEMB     181      POPC     C2       CTL1     0.170000       12.0110           0
     20681 MEMB     181      POPC     HS       HAL1     0.900000E-01   1.00800           0
     20682 MEMB     181      POPC     O21      OSL     -0.490000       15.9994           0
     20683 MEMB     181      POPC     C21      CL       0.900000       12.0110           0
     20684 MEMB     181      POPC     O22      OBL     -0.630000       15.9994           0
     20685 MEMB     181      POPC     C22      CTL2    -0.220000       12.0110           0
     20686 MEMB     181      POPC     H2R      HAL2     0.900000E-01   1.00800           0
     20687 MEMB     181      POPC     H2S      HAL2     0.900000E-01   1.00800           0
     20688 MEMB     181      POPC     C3       CTL2     0.800000E-01   12.0110           0
     20689 MEMB     181      POPC     HX       HAL2     0.900000E-01   1.00800           0
     20690 MEMB     181      POPC     HY       HAL2     0.900000E-01   1.00800           0
     20691 MEMB     181      POPC     O31      OSL     -0.490000       15.9994           0
     20692 MEMB     181      POPC     C31      CL       0.900000       12.0110           0
     20693 MEMB     181      POPC     O32      OBL     -0.630000       15.9994           0
     20694 MEMB     181      POPC     C32      CTL2    -0.220000       12.0110           0
     20695 MEMB     181      POPC     H2X      HAL2     0.900000E-01   1.00800           0
     20696 MEMB     181      POPC     H2Y      HAL2     0.900000E-01   1.00800           0
     20697 MEMB     181      POPC     C23      CTL2    -0.180000       12.0110           0
     20698 MEMB     181      POPC     H3R      HAL2     0.900000E-01   1.00800           0
     20699 MEMB     181      POPC     H3S      HAL2     0.900000E-01   1.00800           0
     20700 MEMB     181      POPC     C24      CTL2    -0.180000       12.0110           0
     20701 MEMB     181      POPC     H4R      HAL2     0.900000E-01   1.00800           0
     20702 MEMB     181      POPC     H4S      HAL2     0.900000E-01   1.00800           0
     20703 MEMB     181      POPC     C25      CTL2    -0.180000       12.0110           0
     20704 MEMB     181      POPC     H5R      HAL2     0.900000E-01   1.00800           0
     20705 MEMB     181      POPC     H5S      HAL2     0.900000E-01   1.00800           0
     20706 MEMB     181      POPC     C26      CTL2    -0.180000       12.0110           0
     20707 MEMB     181      POPC     H6R      HAL2     0.900000E-01   1.00800           0
     20708 MEMB     181      POPC     H6S      HAL2     0.900000E-01   1.00800           0
     20709 MEMB     181      POPC     C27      CTL2    -0.180000       12.0110           0
     20710 MEMB     181      POPC     H7R      HAL2     0.900000E-01   1.00800           0
     20711 MEMB     181      POPC     H7S      HAL2     0.900000E-01   1.00800           0
     20712 MEMB     181      POPC     C28      CTL2    -0.180000       12.0110           0
     20713 MEMB     181      POPC     H8R      HAL2     0.900000E-01   1.00800           0
     20714 MEMB     181      POPC     H8S      HAL2     0.900000E-01   1.00800           0
     20715 MEMB     181      POPC     C29      CEL1    -0.150000       12.0110           0
     20716 MEMB     181      POPC     H91      HEL1     0.150000       1.00800           0
     20717 MEMB     181      POPC     C210     CEL1    -0.150000       12.0110           0
     20718 MEMB     181      POPC     H101     HEL1     0.150000       1.00800           0
     20719 MEMB     181      POPC     C211     CTL2    -0.180000       12.0110           0
     20720 MEMB     181      POPC     H11R     HAL2     0.900000E-01   1.00800           0
     20721 MEMB     181      POPC     H11S     HAL2     0.900000E-01   1.00800           0
     20722 MEMB     181      POPC     C212     CTL2    -0.180000       12.0110           0
     20723 MEMB     181      POPC     H12R     HAL2     0.900000E-01   1.00800           0
     20724 MEMB     181      POPC     H12S     HAL2     0.900000E-01   1.00800           0
     20725 MEMB     181      POPC     C213     CTL2    -0.180000       12.0110           0
     20726 MEMB     181      POPC     H13R     HAL2     0.900000E-01   1.00800           0
     20727 MEMB     181      POPC     H13S     HAL2     0.900000E-01   1.00800           0
     20728 MEMB     181      POPC     C214     CTL2    -0.180000       12.0110           0
     20729 MEMB     181      POPC     H14R     HAL2     0.900000E-01   1.00800           0
     20730 MEMB     181      POPC     H14S     HAL2     0.900000E-01   1.00800           0
     20731 MEMB     181      POPC     C215     CTL2    -0.180000       12.0110           0
     20732 MEMB     181      POPC     H15R     HAL2     0.900000E-01   1.00800           0
     20733 MEMB     181      POPC     H15S     HAL2     0.900000E-01   1.00800           0
     20734 MEMB     181      POPC     C216     CTL2    -0.180000       12.0110           0
     20735 MEMB     181      POPC     H16R     HAL2     0.900000E-01   1.00800           0
     20736 MEMB     181      POPC     H16S     HAL2     0.900000E-01   1.00800           0
     20737 MEMB     181      POPC     C217     CTL2    -0.180000       12.0110           0
     20738 MEMB     181      POPC     H17R     HAL2     0.900000E-01   1.00800           0
     20739 MEMB     181      POPC     H17S     HAL2     0.900000E-01   1.00800           0
     20740 MEMB     181      POPC     C218     CTL3    -0.270000       12.0110           0
     20741 MEMB     181      POPC     H18R     HAL3     0.900000E-01   1.00800           0
     20742 MEMB     181      POPC     H18S     HAL3     0.900000E-01   1.00800           0
     20743 MEMB     181      POPC     H18T     HAL3     0.900000E-01   1.00800           0
     20744 MEMB     181      POPC     C33      CTL2    -0.180000       12.0110           0
     20745 MEMB     181      POPC     H3X      HAL2     0.900000E-01   1.00800           0
     20746 MEMB     181      POPC     H3Y      HAL2     0.900000E-01   1.00800           0
     20747 MEMB     181      POPC     C34      CTL2    -0.180000       12.0110           0
     20748 MEMB     181      POPC     H4X      HAL2     0.900000E-01   1.00800           0
     20749 MEMB     181      POPC     H4Y      HAL2     0.900000E-01   1.00800           0
     20750 MEMB     181      POPC     C35      CTL2    -0.180000       12.0110           0
     20751 MEMB     181      POPC     H5X      HAL2     0.900000E-01   1.00800           0
     20752 MEMB     181      POPC     H5Y      HAL2     0.900000E-01   1.00800           0
     20753 MEMB     181      POPC     C36      CTL2    -0.180000       12.0110           0
     20754 MEMB     181      POPC     H6X      HAL2     0.900000E-01   1.00800           0
     20755 MEMB     181      POPC     H6Y      HAL2     0.900000E-01   1.00800           0
     20756 MEMB     181      POPC     C37      CTL2    -0.180000       12.0110           0
     20757 MEMB     181      POPC     H7X      HAL2     0.900000E-01   1.00800           0
     20758 MEMB     181      POPC     H7Y      HAL2     0.900000E-01   1.00800           0
     20759 MEMB     181      POPC     C38      CTL2    -0.180000       12.0110           0
     20760 MEMB     181      POPC     H8X      HAL2     0.900000E-01   1.00800           0
     20761 MEMB     181      POPC     H8Y      HAL2     0.900000E-01   1.00800           0
     20762 MEMB     181      POPC     C39      CTL2    -0.180000       12.0110           0
     20763 MEMB     181      POPC     H9X      HAL2     0.900000E-01   1.00800           0
     20764 MEMB     181      POPC     H9Y      HAL2     0.900000E-01   1.00800           0
     20765 MEMB     181      POPC     C310     CTL2    -0.180000       12.0110           0
     20766 MEMB     181      POPC     H10X     HAL2     0.900000E-01   1.00800           0
     20767 MEMB     181      POPC     H10Y     HAL2     0.900000E-01   1.00800           0
     20768 MEMB     181      POPC     C311     CTL2    -0.180000       12.0110           0
     20769 MEMB     181      POPC     H11X     HAL2     0.900000E-01   1.00800           0
     20770 MEMB     181      POPC     H11Y     HAL2     0.900000E-01   1.00800           0
     20771 MEMB     181      POPC     C312     CTL2    -0.180000       12.0110           0
     20772 MEMB     181      POPC     H12X     HAL2     0.900000E-01   1.00800           0
     20773 MEMB     181      POPC     H12Y     HAL2     0.900000E-01   1.00800           0
     20774 MEMB     181      POPC     C313     CTL2    -0.180000       12.0110           0
     20775 MEMB     181      POPC     H13X     HAL2     0.900000E-01   1.00800           0
     20776 MEMB     181      POPC     H13Y     HAL2     0.900000E-01   1.00800           0
     20777 MEMB     181      POPC     C314     CTL2    -0.180000       12.0110           0
     20778 MEMB     181      POPC     H14X     HAL2     0.900000E-01   1.00800           0
     20779 MEMB     181      POPC     H14Y     HAL2     0.900000E-01   1.00800           0
     20780 MEMB     181      POPC     C315     CTL2    -0.180000       12.0110           0
     20781 MEMB     181      POPC     H15X     HAL2     0.900000E-01   1.00800           0
     20782 MEMB     181      POPC     H15Y     HAL2     0.900000E-01   1.00800           0
     20783 MEMB     181      POPC     C316     CTL3    -0.270000       12.0110           0
     20784 MEMB     181      POPC     H16X     HAL3     0.900000E-01   1.00800           0
     20785 MEMB     181      POPC     H16Y     HAL3     0.900000E-01   1.00800           0
     20786 MEMB     181      POPC     H16Z     HAL3     0.900000E-01   1.00800           0
     20787 MEMB     182      POPC     N        NTL     -0.600000       14.0070           0
     20788 MEMB     182      POPC     C12      CTL2    -0.100000       12.0110           0
     20789 MEMB     182      POPC     H12A     HL       0.250000       1.00800           0
     20790 MEMB     182      POPC     H12B     HL       0.250000       1.00800           0
     20791 MEMB     182      POPC     C13      CTL5    -0.350000       12.0110           0
     20792 MEMB     182      POPC     H13A     HL       0.250000       1.00800           0
     20793 MEMB     182      POPC     H13B     HL       0.250000       1.00800           0
     20794 MEMB     182      POPC     H13C     HL       0.250000       1.00800           0
     20795 MEMB     182      POPC     C14      CTL5    -0.350000       12.0110           0
     20796 MEMB     182      POPC     H14A     HL       0.250000       1.00800           0
     20797 MEMB     182      POPC     H14B     HL       0.250000       1.00800           0
     20798 MEMB     182      POPC     H14C     HL       0.250000       1.00800           0
     20799 MEMB     182      POPC     C15      CTL5    -0.350000       12.0110           0
     20800 MEMB     182      POPC     H15A     HL       0.250000       1.00800           0
     20801 MEMB     182      POPC     H15B     HL       0.250000       1.00800           0
     20802 MEMB     182      POPC     H15C     HL       0.250000       1.00800           0
     20803 MEMB     182      POPC     C11      CTL2    -0.800000E-01   12.0110           0
     20804 MEMB     182      POPC     H11A     HAL2     0.900000E-01   1.00800           0
     20805 MEMB     182      POPC     H11B     HAL2     0.900000E-01   1.00800           0
     20806 MEMB     182      POPC     P        PL       1.500000       30.9740           0
     20807 MEMB     182      POPC     O13      O2L     -0.780000       15.9994           0
     20808 MEMB     182      POPC     O14      O2L     -0.780000       15.9994           0
     20809 MEMB     182      POPC     O12      OSLP    -0.570000       15.9994           0
     20810 MEMB     182      POPC     O11      OSLP    -0.570000       15.9994           0
     20811 MEMB     182      POPC     C1       CTL2    -0.800000E-01   12.0110           0
     20812 MEMB     182      POPC     HA       HAL2     0.900000E-01   1.00800           0
     20813 MEMB     182      POPC     HB       HAL2     0.900000E-01   1.00800           0
     20814 MEMB     182      POPC     C2       CTL1     0.170000       12.0110           0
     20815 MEMB     182      POPC     HS       HAL1     0.900000E-01   1.00800           0
     20816 MEMB     182      POPC     O21      OSL     -0.490000       15.9994           0
     20817 MEMB     182      POPC     C21      CL       0.900000       12.0110           0
     20818 MEMB     182      POPC     O22      OBL     -0.630000       15.9994           0
     20819 MEMB     182      POPC     C22      CTL2    -0.220000       12.0110           0
     20820 MEMB     182      POPC     H2R      HAL2     0.900000E-01   1.00800           0
     20821 MEMB     182      POPC     H2S      HAL2     0.900000E-01   1.00800           0
     20822 MEMB     182      POPC     C3       CTL2     0.800000E-01   12.0110           0
     20823 MEMB     182      POPC     HX       HAL2     0.900000E-01   1.00800           0
     20824 MEMB     182      POPC     HY       HAL2     0.900000E-01   1.00800           0
     20825 MEMB     182      POPC     O31      OSL     -0.490000       15.9994           0
     20826 MEMB     182      POPC     C31      CL       0.900000       12.0110           0
     20827 MEMB     182      POPC     O32      OBL     -0.630000       15.9994           0
     20828 MEMB     182      POPC     C32      CTL2    -0.220000       12.0110           0
     20829 MEMB     182      POPC     H2X      HAL2     0.900000E-01   1.00800           0
     20830 MEMB     182      POPC     H2Y      HAL2     0.900000E-01   1.00800           0
     20831 MEMB     182      POPC     C23      CTL2    -0.180000       12.0110           0
     20832 MEMB     182      POPC     H3R      HAL2     0.900000E-01   1.00800           0
     20833 MEMB     182      POPC     H3S      HAL2     0.900000E-01   1.00800           0
     20834 MEMB     182      POPC     C24      CTL2    -0.180000       12.0110           0
     20835 MEMB     182      POPC     H4R      HAL2     0.900000E-01   1.00800           0
     20836 MEMB     182      POPC     H4S      HAL2     0.900000E-01   1.00800           0
     20837 MEMB     182      POPC     C25      CTL2    -0.180000       12.0110           0
     20838 MEMB     182      POPC     H5R      HAL2     0.900000E-01   1.00800           0
     20839 MEMB     182      POPC     H5S      HAL2     0.900000E-01   1.00800           0
     20840 MEMB     182      POPC     C26      CTL2    -0.180000       12.0110           0
     20841 MEMB     182      POPC     H6R      HAL2     0.900000E-01   1.00800           0
     20842 MEMB     182      POPC     H6S      HAL2     0.900000E-01   1.00800           0
     20843 MEMB     182      POPC     C27      CTL2    -0.180000       12.0110           0
     20844 MEMB     182      POPC     H7R      HAL2     0.900000E-01   1.00800           0
     20845 MEMB     182      POPC     H7S      HAL2     0.900000E-01   1.00800           0
     20846 MEMB     182      POPC     C28      CTL2    -0.180000       12.0110           0
     20847 MEMB     182      POPC     H8R      HAL2     0.900000E-01   1.00800           0
     20848 MEMB     182      POPC     H8S      HAL2     0.900000E-01   1.00800           0
     20849 MEMB     182      POPC     C29      CEL1    -0.150000       12.0110           0
     20850 MEMB     182      POPC     H91      HEL1     0.150000       1.00800           0
     20851 MEMB     182      POPC     C210     CEL1    -0.150000       12.0110           0
     20852 MEMB     182      POPC     H101     HEL1     0.150000       1.00800           0
     20853 MEMB     182      POPC     C211     CTL2    -0.180000       12.0110           0
     20854 MEMB     182      POPC     H11R     HAL2     0.900000E-01   1.00800           0
     20855 MEMB     182      POPC     H11S     HAL2     0.900000E-01   1.00800           0
     20856 MEMB     182      POPC     C212     CTL2    -0.180000       12.0110           0
     20857 MEMB     182      POPC     H12R     HAL2     0.900000E-01   1.00800           0
     20858 MEMB     182      POPC     H12S     HAL2     0.900000E-01   1.00800           0
     20859 MEMB     182      POPC     C213     CTL2    -0.180000       12.0110           0
     20860 MEMB     182      POPC     H13R     HAL2     0.900000E-01   1.00800           0
     20861 MEMB     182      POPC     H13S     HAL2     0.900000E-01   1.00800           0
     20862 MEMB     182      POPC     C214     CTL2    -0.180000       12.0110           0
     20863 MEMB     182      POPC     H14R     HAL2     0.900000E-01   1.00800           0
     20864 MEMB     182      POPC     H14S     HAL2     0.900000E-01   1.00800           0
     20865 MEMB     182      POPC     C215     CTL2    -0.180000       12.0110           0
     20866 MEMB     182      POPC     H15R     HAL2     0.900000E-01   1.00800           0
     20867 MEMB     182      POPC     H15S     HAL2     0.900000E-01   1.00800           0
     20868 MEMB     182      POPC     C216     CTL2    -0.180000       12.0110           0
     20869 MEMB     182      POPC     H16R     HAL2     0.900000E-01   1.00800           0
     20870 MEMB     182      POPC     H16S     HAL2     0.900000E-01   1.00800           0
     20871 MEMB     182      POPC     C217     CTL2    -0.180000       12.0110           0
     20872 MEMB     182      POPC     H17R     HAL2     0.900000E-01   1.00800           0
     20873 MEMB     182      POPC     H17S     HAL2     0.900000E-01   1.00800           0
     20874 MEMB     182      POPC     C218     CTL3    -0.270000       12.0110           0
     20875 MEMB     182      POPC     H18R     HAL3     0.900000E-01   1.00800           0
     20876 MEMB     182      POPC     H18S     HAL3     0.900000E-01   1.00800           0
     20877 MEMB     182      POPC     H18T     HAL3     0.900000E-01   1.00800           0
     20878 MEMB     182      POPC     C33      CTL2    -0.180000       12.0110           0
     20879 MEMB     182      POPC     H3X      HAL2     0.900000E-01   1.00800           0
     20880 MEMB     182      POPC     H3Y      HAL2     0.900000E-01   1.00800           0
     20881 MEMB     182      POPC     C34      CTL2    -0.180000       12.0110           0
     20882 MEMB     182      POPC     H4X      HAL2     0.900000E-01   1.00800           0
     20883 MEMB     182      POPC     H4Y      HAL2     0.900000E-01   1.00800           0
     20884 MEMB     182      POPC     C35      CTL2    -0.180000       12.0110           0
     20885 MEMB     182      POPC     H5X      HAL2     0.900000E-01   1.00800           0
     20886 MEMB     182      POPC     H5Y      HAL2     0.900000E-01   1.00800           0
     20887 MEMB     182      POPC     C36      CTL2    -0.180000       12.0110           0
     20888 MEMB     182      POPC     H6X      HAL2     0.900000E-01   1.00800           0
     20889 MEMB     182      POPC     H6Y      HAL2     0.900000E-01   1.00800           0
     20890 MEMB     182      POPC     C37      CTL2    -0.180000       12.0110           0
     20891 MEMB     182      POPC     H7X      HAL2     0.900000E-01   1.00800           0
     20892 MEMB     182      POPC     H7Y      HAL2     0.900000E-01   1.00800           0
     20893 MEMB     182      POPC     C38      CTL2    -0.180000       12.0110           0
     20894 MEMB     182      POPC     H8X      HAL2     0.900000E-01   1.00800           0
     20895 MEMB     182      POPC     H8Y      HAL2     0.900000E-01   1.00800           0
     20896 MEMB     182      POPC     C39      CTL2    -0.180000       12.0110           0
     20897 MEMB     182      POPC     H9X      HAL2     0.900000E-01   1.00800           0
     20898 MEMB     182      POPC     H9Y      HAL2     0.900000E-01   1.00800           0
     20899 MEMB     182      POPC     C310     CTL2    -0.180000       12.0110           0
     20900 MEMB     182      POPC     H10X     HAL2     0.900000E-01   1.00800           0
     20901 MEMB     182      POPC     H10Y     HAL2     0.900000E-01   1.00800           0
     20902 MEMB     182      POPC     C311     CTL2    -0.180000       12.0110           0
     20903 MEMB     182      POPC     H11X     HAL2     0.900000E-01   1.00800           0
     20904 MEMB     182      POPC     H11Y     HAL2     0.900000E-01   1.00800           0
     20905 MEMB     182      POPC     C312     CTL2    -0.180000       12.0110           0
     20906 MEMB     182      POPC     H12X     HAL2     0.900000E-01   1.00800           0
     20907 MEMB     182      POPC     H12Y     HAL2     0.900000E-01   1.00800           0
     20908 MEMB     182      POPC     C313     CTL2    -0.180000       12.0110           0
     20909 MEMB     182      POPC     H13X     HAL2     0.900000E-01   1.00800           0
     20910 MEMB     182      POPC     H13Y     HAL2     0.900000E-01   1.00800           0
     20911 MEMB     182      POPC     C314     CTL2    -0.180000       12.0110           0
     20912 MEMB     182      POPC     H14X     HAL2     0.900000E-01   1.00800           0
     20913 MEMB     182      POPC     H14Y     HAL2     0.900000E-01   1.00800           0
     20914 MEMB     182      POPC     C315     CTL2    -0.180000       12.0110           0
     20915 MEMB     182      POPC     H15X     HAL2     0.900000E-01   1.00800           0
     20916 MEMB     182      POPC     H15Y     HAL2     0.900000E-01   1.00800           0
     20917 MEMB     182      POPC     C316     CTL3    -0.270000       12.0110           0
     20918 MEMB     182      POPC     H16X     HAL3     0.900000E-01   1.00800           0
     20919 MEMB     182      POPC     H16Y     HAL3     0.900000E-01   1.00800           0
     20920 MEMB     182      POPC     H16Z     HAL3     0.900000E-01   1.00800           0
     20921 MEMB     184      POPC     N        NTL     -0.600000       14.0070           0
     20922 MEMB     184      POPC     C12      CTL2    -0.100000       12.0110           0
     20923 MEMB     184      POPC     H12A     HL       0.250000       1.00800           0
     20924 MEMB     184      POPC     H12B     HL       0.250000       1.00800           0
     20925 MEMB     184      POPC     C13      CTL5    -0.350000       12.0110           0
     20926 MEMB     184      POPC     H13A     HL       0.250000       1.00800           0
     20927 MEMB     184      POPC     H13B     HL       0.250000       1.00800           0
     20928 MEMB     184      POPC     H13C     HL       0.250000       1.00800           0
     20929 MEMB     184      POPC     C14      CTL5    -0.350000       12.0110           0
     20930 MEMB     184      POPC     H14A     HL       0.250000       1.00800           0
     20931 MEMB     184      POPC     H14B     HL       0.250000       1.00800           0
     20932 MEMB     184      POPC     H14C     HL       0.250000       1.00800           0
     20933 MEMB     184      POPC     C15      CTL5    -0.350000       12.0110           0
     20934 MEMB     184      POPC     H15A     HL       0.250000       1.00800           0
     20935 MEMB     184      POPC     H15B     HL       0.250000       1.00800           0
     20936 MEMB     184      POPC     H15C     HL       0.250000       1.00800           0
     20937 MEMB     184      POPC     C11      CTL2    -0.800000E-01   12.0110           0
     20938 MEMB     184      POPC     H11A     HAL2     0.900000E-01   1.00800           0
     20939 MEMB     184      POPC     H11B     HAL2     0.900000E-01   1.00800           0
     20940 MEMB     184      POPC     P        PL       1.500000       30.9740           0
     20941 MEMB     184      POPC     O13      O2L     -0.780000       15.9994           0
     20942 MEMB     184      POPC     O14      O2L     -0.780000       15.9994           0
     20943 MEMB     184      POPC     O12      OSLP    -0.570000       15.9994           0
     20944 MEMB     184      POPC     O11      OSLP    -0.570000       15.9994           0
     20945 MEMB     184      POPC     C1       CTL2    -0.800000E-01   12.0110           0
     20946 MEMB     184      POPC     HA       HAL2     0.900000E-01   1.00800           0
     20947 MEMB     184      POPC     HB       HAL2     0.900000E-01   1.00800           0
     20948 MEMB     184      POPC     C2       CTL1     0.170000       12.0110           0
     20949 MEMB     184      POPC     HS       HAL1     0.900000E-01   1.00800           0
     20950 MEMB     184      POPC     O21      OSL     -0.490000       15.9994           0
     20951 MEMB     184      POPC     C21      CL       0.900000       12.0110           0
     20952 MEMB     184      POPC     O22      OBL     -0.630000       15.9994           0
     20953 MEMB     184      POPC     C22      CTL2    -0.220000       12.0110           0
     20954 MEMB     184      POPC     H2R      HAL2     0.900000E-01   1.00800           0
     20955 MEMB     184      POPC     H2S      HAL2     0.900000E-01   1.00800           0
     20956 MEMB     184      POPC     C3       CTL2     0.800000E-01   12.0110           0
     20957 MEMB     184      POPC     HX       HAL2     0.900000E-01   1.00800           0
     20958 MEMB     184      POPC     HY       HAL2     0.900000E-01   1.00800           0
     20959 MEMB     184      POPC     O31      OSL     -0.490000       15.9994           0
     20960 MEMB     184      POPC     C31      CL       0.900000       12.0110           0
     20961 MEMB     184      POPC     O32      OBL     -0.630000       15.9994           0
     20962 MEMB     184      POPC     C32      CTL2    -0.220000       12.0110           0
     20963 MEMB     184      POPC     H2X      HAL2     0.900000E-01   1.00800           0
     20964 MEMB     184      POPC     H2Y      HAL2     0.900000E-01   1.00800           0
     20965 MEMB     184      POPC     C23      CTL2    -0.180000       12.0110           0
     20966 MEMB     184      POPC     H3R      HAL2     0.900000E-01   1.00800           0
     20967 MEMB     184      POPC     H3S      HAL2     0.900000E-01   1.00800           0
     20968 MEMB     184      POPC     C24      CTL2    -0.180000       12.0110           0
     20969 MEMB     184      POPC     H4R      HAL2     0.900000E-01   1.00800           0
     20970 MEMB     184      POPC     H4S      HAL2     0.900000E-01   1.00800           0
     20971 MEMB     184      POPC     C25      CTL2    -0.180000       12.0110           0
     20972 MEMB     184      POPC     H5R      HAL2     0.900000E-01   1.00800           0
     20973 MEMB     184      POPC     H5S      HAL2     0.900000E-01   1.00800           0
     20974 MEMB     184      POPC     C26      CTL2    -0.180000       12.0110           0
     20975 MEMB     184      POPC     H6R      HAL2     0.900000E-01   1.00800           0
     20976 MEMB     184      POPC     H6S      HAL2     0.900000E-01   1.00800           0
     20977 MEMB     184      POPC     C27      CTL2    -0.180000       12.0110           0
     20978 MEMB     184      POPC     H7R      HAL2     0.900000E-01   1.00800           0
     20979 MEMB     184      POPC     H7S      HAL2     0.900000E-01   1.00800           0
     20980 MEMB     184      POPC     C28      CTL2    -0.180000       12.0110           0
     20981 MEMB     184      POPC     H8R      HAL2     0.900000E-01   1.00800           0
     20982 MEMB     184      POPC     H8S      HAL2     0.900000E-01   1.00800           0
     20983 MEMB     184      POPC     C29      CEL1    -0.150000       12.0110           0
     20984 MEMB     184      POPC     H91      HEL1     0.150000       1.00800           0
     20985 MEMB     184      POPC     C210     CEL1    -0.150000       12.0110           0
     20986 MEMB     184      POPC     H101     HEL1     0.150000       1.00800           0
     20987 MEMB     184      POPC     C211     CTL2    -0.180000       12.0110           0
     20988 MEMB     184      POPC     H11R     HAL2     0.900000E-01   1.00800           0
     20989 MEMB     184      POPC     H11S     HAL2     0.900000E-01   1.00800           0
     20990 MEMB     184      POPC     C212     CTL2    -0.180000       12.0110           0
     20991 MEMB     184      POPC     H12R     HAL2     0.900000E-01   1.00800           0
     20992 MEMB     184      POPC     H12S     HAL2     0.900000E-01   1.00800           0
     20993 MEMB     184      POPC     C213     CTL2    -0.180000       12.0110           0
     20994 MEMB     184      POPC     H13R     HAL2     0.900000E-01   1.00800           0
     20995 MEMB     184      POPC     H13S     HAL2     0.900000E-01   1.00800           0
     20996 MEMB     184      POPC     C214     CTL2    -0.180000       12.0110           0
     20997 MEMB     184      POPC     H14R     HAL2     0.900000E-01   1.00800           0
     20998 MEMB     184      POPC     H14S     HAL2     0.900000E-01   1.00800           0
     20999 MEMB     184      POPC     C215     CTL2    -0.180000       12.0110           0
     21000 MEMB     184      POPC     H15R     HAL2     0.900000E-01   1.00800           0
     21001 MEMB     184      POPC     H15S     HAL2     0.900000E-01   1.00800           0
     21002 MEMB     184      POPC     C216     CTL2    -0.180000       12.0110           0
     21003 MEMB     184      POPC     H16R     HAL2     0.900000E-01   1.00800           0
     21004 MEMB     184      POPC     H16S     HAL2     0.900000E-01   1.00800           0
     21005 MEMB     184      POPC     C217     CTL2    -0.180000       12.0110           0
     21006 MEMB     184      POPC     H17R     HAL2     0.900000E-01   1.00800           0
     21007 MEMB     184      POPC     H17S     HAL2     0.900000E-01   1.00800           0
     21008 MEMB     184      POPC     C218     CTL3    -0.270000       12.0110           0
     21009 MEMB     184      POPC     H18R     HAL3     0.900000E-01   1.00800           0
     21010 MEMB     184      POPC     H18S     HAL3     0.900000E-01   1.00800           0
     21011 MEMB     184      POPC     H18T     HAL3     0.900000E-01   1.00800           0
     21012 MEMB     184      POPC     C33      CTL2    -0.180000       12.0110           0
     21013 MEMB     184      POPC     H3X      HAL2     0.900000E-01   1.00800           0
     21014 MEMB     184      POPC     H3Y      HAL2     0.900000E-01   1.00800           0
     21015 MEMB     184      POPC     C34      CTL2    -0.180000       12.0110           0
     21016 MEMB     184      POPC     H4X      HAL2     0.900000E-01   1.00800           0
     21017 MEMB     184      POPC     H4Y      HAL2     0.900000E-01   1.00800           0
     21018 MEMB     184      POPC     C35      CTL2    -0.180000       12.0110           0
     21019 MEMB     184      POPC     H5X      HAL2     0.900000E-01   1.00800           0
     21020 MEMB     184      POPC     H5Y      HAL2     0.900000E-01   1.00800           0
     21021 MEMB     184      POPC     C36      CTL2    -0.180000       12.0110           0
     21022 MEMB     184      POPC     H6X      HAL2     0.900000E-01   1.00800           0
     21023 MEMB     184      POPC     H6Y      HAL2     0.900000E-01   1.00800           0
     21024 MEMB     184      POPC     C37      CTL2    -0.180000       12.0110           0
     21025 MEMB     184      POPC     H7X      HAL2     0.900000E-01   1.00800           0
     21026 MEMB     184      POPC     H7Y      HAL2     0.900000E-01   1.00800           0
     21027 MEMB     184      POPC     C38      CTL2    -0.180000       12.0110           0
     21028 MEMB     184      POPC     H8X      HAL2     0.900000E-01   1.00800           0
     21029 MEMB     184      POPC     H8Y      HAL2     0.900000E-01   1.00800           0
     21030 MEMB     184      POPC     C39      CTL2    -0.180000       12.0110           0
     21031 MEMB     184      POPC     H9X      HAL2     0.900000E-01   1.00800           0
     21032 MEMB     184      POPC     H9Y      HAL2     0.900000E-01   1.00800           0
     21033 MEMB     184      POPC     C310     CTL2    -0.180000       12.0110           0
     21034 MEMB     184      POPC     H10X     HAL2     0.900000E-01   1.00800           0
     21035 MEMB     184      POPC     H10Y     HAL2     0.900000E-01   1.00800           0
     21036 MEMB     184      POPC     C311     CTL2    -0.180000       12.0110           0
     21037 MEMB     184      POPC     H11X     HAL2     0.900000E-01   1.00800           0
     21038 MEMB     184      POPC     H11Y     HAL2     0.900000E-01   1.00800           0
     21039 MEMB     184      POPC     C312     CTL2    -0.180000       12.0110           0
     21040 MEMB     184      POPC     H12X     HAL2     0.900000E-01   1.00800           0
     21041 MEMB     184      POPC     H12Y     HAL2     0.900000E-01   1.00800           0
     21042 MEMB     184      POPC     C313     CTL2    -0.180000       12.0110           0
     21043 MEMB     184      POPC     H13X     HAL2     0.900000E-01   1.00800           0
     21044 MEMB     184      POPC     H13Y     HAL2     0.900000E-01   1.00800           0
     21045 MEMB     184      POPC     C314     CTL2    -0.180000       12.0110           0
     21046 MEMB     184      POPC     H14X     HAL2     0.900000E-01   1.00800           0
     21047 MEMB     184      POPC     H14Y     HAL2     0.900000E-01   1.00800           0
     21048 MEMB     184      POPC     C315     CTL2    -0.180000       12.0110           0
     21049 MEMB     184      POPC     H15X     HAL2     0.900000E-01   1.00800           0
     21050 MEMB     184      POPC     H15Y     HAL2     0.900000E-01   1.00800           0
     21051 MEMB     184      POPC     C316     CTL3    -0.270000       12.0110           0
     21052 MEMB     184      POPC     H16X     HAL3     0.900000E-01   1.00800           0
     21053 MEMB     184      POPC     H16Y     HAL3     0.900000E-01   1.00800           0
     21054 MEMB     184      POPC     H16Z     HAL3     0.900000E-01   1.00800           0
     21055 MEMB     186      POPC     N        NTL     -0.600000       14.0070           0
     21056 MEMB     186      POPC     C12      CTL2    -0.100000       12.0110           0
     21057 MEMB     186      POPC     H12A     HL       0.250000       1.00800           0
     21058 MEMB     186      POPC     H12B     HL       0.250000       1.00800           0
     21059 MEMB     186      POPC     C13      CTL5    -0.350000       12.0110           0
     21060 MEMB     186      POPC     H13A     HL       0.250000       1.00800           0
     21061 MEMB     186      POPC     H13B     HL       0.250000       1.00800           0
     21062 MEMB     186      POPC     H13C     HL       0.250000       1.00800           0
     21063 MEMB     186      POPC     C14      CTL5    -0.350000       12.0110           0
     21064 MEMB     186      POPC     H14A     HL       0.250000       1.00800           0
     21065 MEMB     186      POPC     H14B     HL       0.250000       1.00800           0
     21066 MEMB     186      POPC     H14C     HL       0.250000       1.00800           0
     21067 MEMB     186      POPC     C15      CTL5    -0.350000       12.0110           0
     21068 MEMB     186      POPC     H15A     HL       0.250000       1.00800           0
     21069 MEMB     186      POPC     H15B     HL       0.250000       1.00800           0
     21070 MEMB     186      POPC     H15C     HL       0.250000       1.00800           0
     21071 MEMB     186      POPC     C11      CTL2    -0.800000E-01   12.0110           0
     21072 MEMB     186      POPC     H11A     HAL2     0.900000E-01   1.00800           0
     21073 MEMB     186      POPC     H11B     HAL2     0.900000E-01   1.00800           0
     21074 MEMB     186      POPC     P        PL       1.500000       30.9740           0
     21075 MEMB     186      POPC     O13      O2L     -0.780000       15.9994           0
     21076 MEMB     186      POPC     O14      O2L     -0.780000       15.9994           0
     21077 MEMB     186      POPC     O12      OSLP    -0.570000       15.9994           0
     21078 MEMB     186      POPC     O11      OSLP    -0.570000       15.9994           0
     21079 MEMB     186      POPC     C1       CTL2    -0.800000E-01   12.0110           0
     21080 MEMB     186      POPC     HA       HAL2     0.900000E-01   1.00800           0
     21081 MEMB     186      POPC     HB       HAL2     0.900000E-01   1.00800           0
     21082 MEMB     186      POPC     C2       CTL1     0.170000       12.0110           0
     21083 MEMB     186      POPC     HS       HAL1     0.900000E-01   1.00800           0
     21084 MEMB     186      POPC     O21      OSL     -0.490000       15.9994           0
     21085 MEMB     186      POPC     C21      CL       0.900000       12.0110           0
     21086 MEMB     186      POPC     O22      OBL     -0.630000       15.9994           0
     21087 MEMB     186      POPC     C22      CTL2    -0.220000       12.0110           0
     21088 MEMB     186      POPC     H2R      HAL2     0.900000E-01   1.00800           0
     21089 MEMB     186      POPC     H2S      HAL2     0.900000E-01   1.00800           0
     21090 MEMB     186      POPC     C3       CTL2     0.800000E-01   12.0110           0
     21091 MEMB     186      POPC     HX       HAL2     0.900000E-01   1.00800           0
     21092 MEMB     186      POPC     HY       HAL2     0.900000E-01   1.00800           0
     21093 MEMB     186      POPC     O31      OSL     -0.490000       15.9994           0
     21094 MEMB     186      POPC     C31      CL       0.900000       12.0110           0
     21095 MEMB     186      POPC     O32      OBL     -0.630000       15.9994           0
     21096 MEMB     186      POPC     C32      CTL2    -0.220000       12.0110           0
     21097 MEMB     186      POPC     H2X      HAL2     0.900000E-01   1.00800           0
     21098 MEMB     186      POPC     H2Y      HAL2     0.900000E-01   1.00800           0
     21099 MEMB     186      POPC     C23      CTL2    -0.180000       12.0110           0
     21100 MEMB     186      POPC     H3R      HAL2     0.900000E-01   1.00800           0
     21101 MEMB     186      POPC     H3S      HAL2     0.900000E-01   1.00800           0
     21102 MEMB     186      POPC     C24      CTL2    -0.180000       12.0110           0
     21103 MEMB     186      POPC     H4R      HAL2     0.900000E-01   1.00800           0
     21104 MEMB     186      POPC     H4S      HAL2     0.900000E-01   1.00800           0
     21105 MEMB     186      POPC     C25      CTL2    -0.180000       12.0110           0
     21106 MEMB     186      POPC     H5R      HAL2     0.900000E-01   1.00800           0
     21107 MEMB     186      POPC     H5S      HAL2     0.900000E-01   1.00800           0
     21108 MEMB     186      POPC     C26      CTL2    -0.180000       12.0110           0
     21109 MEMB     186      POPC     H6R      HAL2     0.900000E-01   1.00800           0
     21110 MEMB     186      POPC     H6S      HAL2     0.900000E-01   1.00800           0
     21111 MEMB     186      POPC     C27      CTL2    -0.180000       12.0110           0
     21112 MEMB     186      POPC     H7R      HAL2     0.900000E-01   1.00800           0
     21113 MEMB     186      POPC     H7S      HAL2     0.900000E-01   1.00800           0
     21114 MEMB     186      POPC     C28      CTL2    -0.180000       12.0110           0
     21115 MEMB     186      POPC     H8R      HAL2     0.900000E-01   1.00800           0
     21116 MEMB     186      POPC     H8S      HAL2     0.900000E-01   1.00800           0
     21117 MEMB     186      POPC     C29      CEL1    -0.150000       12.0110           0
     21118 MEMB     186      POPC     H91      HEL1     0.150000       1.00800           0
     21119 MEMB     186      POPC     C210     CEL1    -0.150000       12.0110           0
     21120 MEMB     186      POPC     H101     HEL1     0.150000       1.00800           0
     21121 MEMB     186      POPC     C211     CTL2    -0.180000       12.0110           0
     21122 MEMB     186      POPC     H11R     HAL2     0.900000E-01   1.00800           0
     21123 MEMB     186      POPC     H11S     HAL2     0.900000E-01   1.00800           0
     21124 MEMB     186      POPC     C212     CTL2    -0.180000       12.0110           0
     21125 MEMB     186      POPC     H12R     HAL2     0.900000E-01   1.00800           0
     21126 MEMB     186      POPC     H12S     HAL2     0.900000E-01   1.00800           0
     21127 MEMB     186      POPC     C213     CTL2    -0.180000       12.0110           0
     21128 MEMB     186      POPC     H13R     HAL2     0.900000E-01   1.00800           0
     21129 MEMB     186      POPC     H13S     HAL2     0.900000E-01   1.00800           0
     21130 MEMB     186      POPC     C214     CTL2    -0.180000       12.0110           0
     21131 MEMB     186      POPC     H14R     HAL2     0.900000E-01   1.00800           0
     21132 MEMB     186      POPC     H14S     HAL2     0.900000E-01   1.00800           0
     21133 MEMB     186      POPC     C215     CTL2    -0.180000       12.0110           0
     21134 MEMB     186      POPC     H15R     HAL2     0.900000E-01   1.00800           0
     21135 MEMB     186      POPC     H15S     HAL2     0.900000E-01   1.00800           0
     21136 MEMB     186      POPC     C216     CTL2    -0.180000       12.0110           0
     21137 MEMB     186      POPC     H16R     HAL2     0.900000E-01   1.00800           0
     21138 MEMB     186      POPC     H16S     HAL2     0.900000E-01   1.00800           0
     21139 MEMB     186      POPC     C217     CTL2    -0.180000       12.0110           0
     21140 MEMB     186      POPC     H17R     HAL2     0.900000E-01   1.00800           0
     21141 MEMB     186      POPC     H17S     HAL2     0.900000E-01   1.00800           0
     21142 MEMB     186      POPC     C218     CTL3    -0.270000       12.0110           0
     21143 MEMB     186      POPC     H18R     HAL3     0.900000E-01   1.00800           0
     21144 MEMB     186      POPC     H18S     HAL3     0.900000E-01   1.00800           0
     21145 MEMB     186      POPC     H18T     HAL3     0.900000E-01   1.00800           0
     21146 MEMB     186      POPC     C33      CTL2    -0.180000       12.0110           0
     21147 MEMB     186      POPC     H3X      HAL2     0.900000E-01   1.00800           0
     21148 MEMB     186      POPC     H3Y      HAL2     0.900000E-01   1.00800           0
     21149 MEMB     186      POPC     C34      CTL2    -0.180000       12.0110           0
     21150 MEMB     186      POPC     H4X      HAL2     0.900000E-01   1.00800           0
     21151 MEMB     186      POPC     H4Y      HAL2     0.900000E-01   1.00800           0
     21152 MEMB     186      POPC     C35      CTL2    -0.180000       12.0110           0
     21153 MEMB     186      POPC     H5X      HAL2     0.900000E-01   1.00800           0
     21154 MEMB     186      POPC     H5Y      HAL2     0.900000E-01   1.00800           0
     21155 MEMB     186      POPC     C36      CTL2    -0.180000       12.0110           0
     21156 MEMB     186      POPC     H6X      HAL2     0.900000E-01   1.00800           0
     21157 MEMB     186      POPC     H6Y      HAL2     0.900000E-01   1.00800           0
     21158 MEMB     186      POPC     C37      CTL2    -0.180000       12.0110           0
     21159 MEMB     186      POPC     H7X      HAL2     0.900000E-01   1.00800           0
     21160 MEMB     186      POPC     H7Y      HAL2     0.900000E-01   1.00800           0
     21161 MEMB     186      POPC     C38      CTL2    -0.180000       12.0110           0
     21162 MEMB     186      POPC     H8X      HAL2     0.900000E-01   1.00800           0
     21163 MEMB     186      POPC     H8Y      HAL2     0.900000E-01   1.00800           0
     21164 MEMB     186      POPC     C39      CTL2    -0.180000       12.0110           0
     21165 MEMB     186      POPC     H9X      HAL2     0.900000E-01   1.00800           0
     21166 MEMB     186      POPC     H9Y      HAL2     0.900000E-01   1.00800           0
     21167 MEMB     186      POPC     C310     CTL2    -0.180000       12.0110           0
     21168 MEMB     186      POPC     H10X     HAL2     0.900000E-01   1.00800           0
     21169 MEMB     186      POPC     H10Y     HAL2     0.900000E-01   1.00800           0
     21170 MEMB     186      POPC     C311     CTL2    -0.180000       12.0110           0
     21171 MEMB     186      POPC     H11X     HAL2     0.900000E-01   1.00800           0
     21172 MEMB     186      POPC     H11Y     HAL2     0.900000E-01   1.00800           0
     21173 MEMB     186      POPC     C312     CTL2    -0.180000       12.0110           0
     21174 MEMB     186      POPC     H12X     HAL2     0.900000E-01   1.00800           0
     21175 MEMB     186      POPC     H12Y     HAL2     0.900000E-01   1.00800           0
     21176 MEMB     186      POPC     C313     CTL2    -0.180000       12.0110           0
     21177 MEMB     186      POPC     H13X     HAL2     0.900000E-01   1.00800           0
     21178 MEMB     186      POPC     H13Y     HAL2     0.900000E-01   1.00800           0
     21179 MEMB     186      POPC     C314     CTL2    -0.180000       12.0110           0
     21180 MEMB     186      POPC     H14X     HAL2     0.900000E-01   1.00800           0
     21181 MEMB     186      POPC     H14Y     HAL2     0.900000E-01   1.00800           0
     21182 MEMB     186      POPC     C315     CTL2    -0.180000       12.0110           0
     21183 MEMB     186      POPC     H15X     HAL2     0.900000E-01   1.00800           0
     21184 MEMB     186      POPC     H15Y     HAL2     0.900000E-01   1.00800           0
     21185 MEMB     186      POPC     C316     CTL3    -0.270000       12.0110           0
     21186 MEMB     186      POPC     H16X     HAL3     0.900000E-01   1.00800           0
     21187 MEMB     186      POPC     H16Y     HAL3     0.900000E-01   1.00800           0
     21188 MEMB     186      POPC     H16Z     HAL3     0.900000E-01   1.00800           0
     21189 MEMB     188      POPC     N        NTL     -0.600000       14.0070           0
     21190 MEMB     188      POPC     C12      CTL2    -0.100000       12.0110           0
     21191 MEMB     188      POPC     H12A     HL       0.250000       1.00800           0
     21192 MEMB     188      POPC     H12B     HL       0.250000       1.00800           0
     21193 MEMB     188      POPC     C13      CTL5    -0.350000       12.0110           0
     21194 MEMB     188      POPC     H13A     HL       0.250000       1.00800           0
     21195 MEMB     188      POPC     H13B     HL       0.250000       1.00800           0
     21196 MEMB     188      POPC     H13C     HL       0.250000       1.00800           0
     21197 MEMB     188      POPC     C14      CTL5    -0.350000       12.0110           0
     21198 MEMB     188      POPC     H14A     HL       0.250000       1.00800           0
     21199 MEMB     188      POPC     H14B     HL       0.250000       1.00800           0
     21200 MEMB     188      POPC     H14C     HL       0.250000       1.00800           0
     21201 MEMB     188      POPC     C15      CTL5    -0.350000       12.0110           0
     21202 MEMB     188      POPC     H15A     HL       0.250000       1.00800           0
     21203 MEMB     188      POPC     H15B     HL       0.250000       1.00800           0
     21204 MEMB     188      POPC     H15C     HL       0.250000       1.00800           0
     21205 MEMB     188      POPC     C11      CTL2    -0.800000E-01   12.0110           0
     21206 MEMB     188      POPC     H11A     HAL2     0.900000E-01   1.00800           0
     21207 MEMB     188      POPC     H11B     HAL2     0.900000E-01   1.00800           0
     21208 MEMB     188      POPC     P        PL       1.500000       30.9740           0
     21209 MEMB     188      POPC     O13      O2L     -0.780000       15.9994           0
     21210 MEMB     188      POPC     O14      O2L     -0.780000       15.9994           0
     21211 MEMB     188      POPC     O12      OSLP    -0.570000       15.9994           0
     21212 MEMB     188      POPC     O11      OSLP    -0.570000       15.9994           0
     21213 MEMB     188      POPC     C1       CTL2    -0.800000E-01   12.0110           0
     21214 MEMB     188      POPC     HA       HAL2     0.900000E-01   1.00800           0
     21215 MEMB     188      POPC     HB       HAL2     0.900000E-01   1.00800           0
     21216 MEMB     188      POPC     C2       CTL1     0.170000       12.0110           0
     21217 MEMB     188      POPC     HS       HAL1     0.900000E-01   1.00800           0
     21218 MEMB     188      POPC     O21      OSL     -0.490000       15.9994           0
     21219 MEMB     188      POPC     C21      CL       0.900000       12.0110           0
     21220 MEMB     188      POPC     O22      OBL     -0.630000       15.9994           0
     21221 MEMB     188      POPC     C22      CTL2    -0.220000       12.0110           0
     21222 MEMB     188      POPC     H2R      HAL2     0.900000E-01   1.00800           0
     21223 MEMB     188      POPC     H2S      HAL2     0.900000E-01   1.00800           0
     21224 MEMB     188      POPC     C3       CTL2     0.800000E-01   12.0110           0
     21225 MEMB     188      POPC     HX       HAL2     0.900000E-01   1.00800           0
     21226 MEMB     188      POPC     HY       HAL2     0.900000E-01   1.00800           0
     21227 MEMB     188      POPC     O31      OSL     -0.490000       15.9994           0
     21228 MEMB     188      POPC     C31      CL       0.900000       12.0110           0
     21229 MEMB     188      POPC     O32      OBL     -0.630000       15.9994           0
     21230 MEMB     188      POPC     C32      CTL2    -0.220000       12.0110           0
     21231 MEMB     188      POPC     H2X      HAL2     0.900000E-01   1.00800           0
     21232 MEMB     188      POPC     H2Y      HAL2     0.900000E-01   1.00800           0
     21233 MEMB     188      POPC     C23      CTL2    -0.180000       12.0110           0
     21234 MEMB     188      POPC     H3R      HAL2     0.900000E-01   1.00800           0
     21235 MEMB     188      POPC     H3S      HAL2     0.900000E-01   1.00800           0
     21236 MEMB     188      POPC     C24      CTL2    -0.180000       12.0110           0
     21237 MEMB     188      POPC     H4R      HAL2     0.900000E-01   1.00800           0
     21238 MEMB     188      POPC     H4S      HAL2     0.900000E-01   1.00800           0
     21239 MEMB     188      POPC     C25      CTL2    -0.180000       12.0110           0
     21240 MEMB     188      POPC     H5R      HAL2     0.900000E-01   1.00800           0
     21241 MEMB     188      POPC     H5S      HAL2     0.900000E-01   1.00800           0
     21242 MEMB     188      POPC     C26      CTL2    -0.180000       12.0110           0
     21243 MEMB     188      POPC     H6R      HAL2     0.900000E-01   1.00800           0
     21244 MEMB     188      POPC     H6S      HAL2     0.900000E-01   1.00800           0
     21245 MEMB     188      POPC     C27      CTL2    -0.180000       12.0110           0
     21246 MEMB     188      POPC     H7R      HAL2     0.900000E-01   1.00800           0
     21247 MEMB     188      POPC     H7S      HAL2     0.900000E-01   1.00800           0
     21248 MEMB     188      POPC     C28      CTL2    -0.180000       12.0110           0
     21249 MEMB     188      POPC     H8R      HAL2     0.900000E-01   1.00800           0
     21250 MEMB     188      POPC     H8S      HAL2     0.900000E-01   1.00800           0
     21251 MEMB     188      POPC     C29      CEL1    -0.150000       12.0110           0
     21252 MEMB     188      POPC     H91      HEL1     0.150000       1.00800           0
     21253 MEMB     188      POPC     C210     CEL1    -0.150000       12.0110           0
     21254 MEMB     188      POPC     H101     HEL1     0.150000       1.00800           0
     21255 MEMB     188      POPC     C211     CTL2    -0.180000       12.0110           0
     21256 MEMB     188      POPC     H11R     HAL2     0.900000E-01   1.00800           0
     21257 MEMB     188      POPC     H11S     HAL2     0.900000E-01   1.00800           0
     21258 MEMB     188      POPC     C212     CTL2    -0.180000       12.0110           0
     21259 MEMB     188      POPC     H12R     HAL2     0.900000E-01   1.00800           0
     21260 MEMB     188      POPC     H12S     HAL2     0.900000E-01   1.00800           0
     21261 MEMB     188      POPC     C213     CTL2    -0.180000       12.0110           0
     21262 MEMB     188      POPC     H13R     HAL2     0.900000E-01   1.00800           0
     21263 MEMB     188      POPC     H13S     HAL2     0.900000E-01   1.00800           0
     21264 MEMB     188      POPC     C214     CTL2    -0.180000       12.0110           0
     21265 MEMB     188      POPC     H14R     HAL2     0.900000E-01   1.00800           0
     21266 MEMB     188      POPC     H14S     HAL2     0.900000E-01   1.00800           0
     21267 MEMB     188      POPC     C215     CTL2    -0.180000       12.0110           0
     21268 MEMB     188      POPC     H15R     HAL2     0.900000E-01   1.00800           0
     21269 MEMB     188      POPC     H15S     HAL2     0.900000E-01   1.00800           0
     21270 MEMB     188      POPC     C216     CTL2    -0.180000       12.0110           0
     21271 MEMB     188      POPC     H16R     HAL2     0.900000E-01   1.00800           0
     21272 MEMB     188      POPC     H16S     HAL2     0.900000E-01   1.00800           0
     21273 MEMB     188      POPC     C217     CTL2    -0.180000       12.0110           0
     21274 MEMB     188      POPC     H17R     HAL2     0.900000E-01   1.00800           0
     21275 MEMB     188      POPC     H17S     HAL2     0.900000E-01   1.00800           0
     21276 MEMB     188      POPC     C218     CTL3    -0.270000       12.0110           0
     21277 MEMB     188      POPC     H18R     HAL3     0.900000E-01   1.00800           0
     21278 MEMB     188      POPC     H18S     HAL3     0.900000E-01   1.00800           0
     21279 MEMB     188      POPC     H18T     HAL3     0.900000E-01   1.00800           0
     21280 MEMB     188      POPC     C33      CTL2    -0.180000       12.0110           0
     21281 MEMB     188      POPC     H3X      HAL2     0.900000E-01   1.00800           0
     21282 MEMB     188      POPC     H3Y      HAL2     0.900000E-01   1.00800           0
     21283 MEMB     188      POPC     C34      CTL2    -0.180000       12.0110           0
     21284 MEMB     188      POPC     H4X      HAL2     0.900000E-01   1.00800           0
     21285 MEMB     188      POPC     H4Y      HAL2     0.900000E-01   1.00800           0
     21286 MEMB     188      POPC     C35      CTL2    -0.180000       12.0110           0
     21287 MEMB     188      POPC     H5X      HAL2     0.900000E-01   1.00800           0
     21288 MEMB     188      POPC     H5Y      HAL2     0.900000E-01   1.00800           0
     21289 MEMB     188      POPC     C36      CTL2    -0.180000       12.0110           0
     21290 MEMB     188      POPC     H6X      HAL2     0.900000E-01   1.00800           0
     21291 MEMB     188      POPC     H6Y      HAL2     0.900000E-01   1.00800           0
     21292 MEMB     188      POPC     C37      CTL2    -0.180000       12.0110           0
     21293 MEMB     188      POPC     H7X      HAL2     0.900000E-01   1.00800           0
     21294 MEMB     188      POPC     H7Y      HAL2     0.900000E-01   1.00800           0
     21295 MEMB     188      POPC     C38      CTL2    -0.180000       12.0110           0
     21296 MEMB     188      POPC     H8X      HAL2     0.900000E-01   1.00800           0
     21297 MEMB     188      POPC     H8Y      HAL2     0.900000E-01   1.00800           0
     21298 MEMB     188      POPC     C39      CTL2    -0.180000       12.0110           0
     21299 MEMB     188      POPC     H9X      HAL2     0.900000E-01   1.00800           0
     21300 MEMB     188      POPC     H9Y      HAL2     0.900000E-01   1.00800           0
     21301 MEMB     188      POPC     C310     CTL2    -0.180000       12.0110           0
     21302 MEMB     188      POPC     H10X     HAL2     0.900000E-01   1.00800           0
     21303 MEMB     188      POPC     H10Y     HAL2     0.900000E-01   1.00800           0
     21304 MEMB     188      POPC     C311     CTL2    -0.180000       12.0110           0
     21305 MEMB     188      POPC     H11X     HAL2     0.900000E-01   1.00800           0
     21306 MEMB     188      POPC     H11Y     HAL2     0.900000E-01   1.00800           0
     21307 MEMB     188      POPC     C312     CTL2    -0.180000       12.0110           0
     21308 MEMB     188      POPC     H12X     HAL2     0.900000E-01   1.00800           0
     21309 MEMB     188      POPC     H12Y     HAL2     0.900000E-01   1.00800           0
     21310 MEMB     188      POPC     C313     CTL2    -0.180000       12.0110           0
     21311 MEMB     188      POPC     H13X     HAL2     0.900000E-01   1.00800           0
     21312 MEMB     188      POPC     H13Y     HAL2     0.900000E-01   1.00800           0
     21313 MEMB     188      POPC     C314     CTL2    -0.180000       12.0110           0
     21314 MEMB     188      POPC     H14X     HAL2     0.900000E-01   1.00800           0
     21315 MEMB     188      POPC     H14Y     HAL2     0.900000E-01   1.00800           0
     21316 MEMB     188      POPC     C315     CTL2    -0.180000       12.0110           0
     21317 MEMB     188      POPC     H15X     HAL2     0.900000E-01   1.00800           0
     21318 MEMB     188      POPC     H15Y     HAL2     0.900000E-01   1.00800           0
     21319 MEMB     188      POPC     C316     CTL3    -0.270000       12.0110           0
     21320 MEMB     188      POPC     H16X     HAL3     0.900000E-01   1.00800           0
     21321 MEMB     188      POPC     H16Y     HAL3     0.900000E-01   1.00800           0
     21322 MEMB     188      POPC     H16Z     HAL3     0.900000E-01   1.00800           0
     21323 MEMB     196      POPC     N        NTL     -0.600000       14.0070           0
     21324 MEMB     196      POPC     C12      CTL2    -0.100000       12.0110           0
     21325 MEMB     196      POPC     H12A     HL       0.250000       1.00800           0
     21326 MEMB     196      POPC     H12B     HL       0.250000       1.00800           0
     21327 MEMB     196      POPC     C13      CTL5    -0.350000       12.0110           0
     21328 MEMB     196      POPC     H13A     HL       0.250000       1.00800           0
     21329 MEMB     196      POPC     H13B     HL       0.250000       1.00800           0
     21330 MEMB     196      POPC     H13C     HL       0.250000       1.00800           0
     21331 MEMB     196      POPC     C14      CTL5    -0.350000       12.0110           0
     21332 MEMB     196      POPC     H14A     HL       0.250000       1.00800           0
     21333 MEMB     196      POPC     H14B     HL       0.250000       1.00800           0
     21334 MEMB     196      POPC     H14C     HL       0.250000       1.00800           0
     21335 MEMB     196      POPC     C15      CTL5    -0.350000       12.0110           0
     21336 MEMB     196      POPC     H15A     HL       0.250000       1.00800           0
     21337 MEMB     196      POPC     H15B     HL       0.250000       1.00800           0
     21338 MEMB     196      POPC     H15C     HL       0.250000       1.00800           0
     21339 MEMB     196      POPC     C11      CTL2    -0.800000E-01   12.0110           0
     21340 MEMB     196      POPC     H11A     HAL2     0.900000E-01   1.00800           0
     21341 MEMB     196      POPC     H11B     HAL2     0.900000E-01   1.00800           0
     21342 MEMB     196      POPC     P        PL       1.500000       30.9740           0
     21343 MEMB     196      POPC     O13      O2L     -0.780000       15.9994           0
     21344 MEMB     196      POPC     O14      O2L     -0.780000       15.9994           0
     21345 MEMB     196      POPC     O12      OSLP    -0.570000       15.9994           0
     21346 MEMB     196      POPC     O11      OSLP    -0.570000       15.9994           0
     21347 MEMB     196      POPC     C1       CTL2    -0.800000E-01   12.0110           0
     21348 MEMB     196      POPC     HA       HAL2     0.900000E-01   1.00800           0
     21349 MEMB     196      POPC     HB       HAL2     0.900000E-01   1.00800           0
     21350 MEMB     196      POPC     C2       CTL1     0.170000       12.0110           0
     21351 MEMB     196      POPC     HS       HAL1     0.900000E-01   1.00800           0
     21352 MEMB     196      POPC     O21      OSL     -0.490000       15.9994           0
     21353 MEMB     196      POPC     C21      CL       0.900000       12.0110           0
     21354 MEMB     196      POPC     O22      OBL     -0.630000       15.9994           0
     21355 MEMB     196      POPC     C22      CTL2    -0.220000       12.0110           0
     21356 MEMB     196      POPC     H2R      HAL2     0.900000E-01   1.00800           0
     21357 MEMB     196      POPC     H2S      HAL2     0.900000E-01   1.00800           0
     21358 MEMB     196      POPC     C3       CTL2     0.800000E-01   12.0110           0
     21359 MEMB     196      POPC     HX       HAL2     0.900000E-01   1.00800           0
     21360 MEMB     196      POPC     HY       HAL2     0.900000E-01   1.00800           0
     21361 MEMB     196      POPC     O31      OSL     -0.490000       15.9994           0
     21362 MEMB     196      POPC     C31      CL       0.900000       12.0110           0
     21363 MEMB     196      POPC     O32      OBL     -0.630000       15.9994           0
     21364 MEMB     196      POPC     C32      CTL2    -0.220000       12.0110           0
     21365 MEMB     196      POPC     H2X      HAL2     0.900000E-01   1.00800           0
     21366 MEMB     196      POPC     H2Y      HAL2     0.900000E-01   1.00800           0
     21367 MEMB     196      POPC     C23      CTL2    -0.180000       12.0110           0
     21368 MEMB     196      POPC     H3R      HAL2     0.900000E-01   1.00800           0
     21369 MEMB     196      POPC     H3S      HAL2     0.900000E-01   1.00800           0
     21370 MEMB     196      POPC     C24      CTL2    -0.180000       12.0110           0
     21371 MEMB     196      POPC     H4R      HAL2     0.900000E-01   1.00800           0
     21372 MEMB     196      POPC     H4S      HAL2     0.900000E-01   1.00800           0
     21373 MEMB     196      POPC     C25      CTL2    -0.180000       12.0110           0
     21374 MEMB     196      POPC     H5R      HAL2     0.900000E-01   1.00800           0
     21375 MEMB     196      POPC     H5S      HAL2     0.900000E-01   1.00800           0
     21376 MEMB     196      POPC     C26      CTL2    -0.180000       12.0110           0
     21377 MEMB     196      POPC     H6R      HAL2     0.900000E-01   1.00800           0
     21378 MEMB     196      POPC     H6S      HAL2     0.900000E-01   1.00800           0
     21379 MEMB     196      POPC     C27      CTL2    -0.180000       12.0110           0
     21380 MEMB     196      POPC     H7R      HAL2     0.900000E-01   1.00800           0
     21381 MEMB     196      POPC     H7S      HAL2     0.900000E-01   1.00800           0
     21382 MEMB     196      POPC     C28      CTL2    -0.180000       12.0110           0
     21383 MEMB     196      POPC     H8R      HAL2     0.900000E-01   1.00800           0
     21384 MEMB     196      POPC     H8S      HAL2     0.900000E-01   1.00800           0
     21385 MEMB     196      POPC     C29      CEL1    -0.150000       12.0110           0
     21386 MEMB     196      POPC     H91      HEL1     0.150000       1.00800           0
     21387 MEMB     196      POPC     C210     CEL1    -0.150000       12.0110           0
     21388 MEMB     196      POPC     H101     HEL1     0.150000       1.00800           0
     21389 MEMB     196      POPC     C211     CTL2    -0.180000       12.0110           0
     21390 MEMB     196      POPC     H11R     HAL2     0.900000E-01   1.00800           0
     21391 MEMB     196      POPC     H11S     HAL2     0.900000E-01   1.00800           0
     21392 MEMB     196      POPC     C212     CTL2    -0.180000       12.0110           0
     21393 MEMB     196      POPC     H12R     HAL2     0.900000E-01   1.00800           0
     21394 MEMB     196      POPC     H12S     HAL2     0.900000E-01   1.00800           0
     21395 MEMB     196      POPC     C213     CTL2    -0.180000       12.0110           0
     21396 MEMB     196      POPC     H13R     HAL2     0.900000E-01   1.00800           0
     21397 MEMB     196      POPC     H13S     HAL2     0.900000E-01   1.00800           0
     21398 MEMB     196      POPC     C214     CTL2    -0.180000       12.0110           0
     21399 MEMB     196      POPC     H14R     HAL2     0.900000E-01   1.00800           0
     21400 MEMB     196      POPC     H14S     HAL2     0.900000E-01   1.00800           0
     21401 MEMB     196      POPC     C215     CTL2    -0.180000       12.0110           0
     21402 MEMB     196      POPC     H15R     HAL2     0.900000E-01   1.00800           0
     21403 MEMB     196      POPC     H15S     HAL2     0.900000E-01   1.00800           0
     21404 MEMB     196      POPC     C216     CTL2    -0.180000       12.0110           0
     21405 MEMB     196      POPC     H16R     HAL2     0.900000E-01   1.00800           0
     21406 MEMB     196      POPC     H16S     HAL2     0.900000E-01   1.00800           0
     21407 MEMB     196      POPC     C217     CTL2    -0.180000       12.0110           0
     21408 MEMB     196      POPC     H17R     HAL2     0.900000E-01   1.00800           0
     21409 MEMB     196      POPC     H17S     HAL2     0.900000E-01   1.00800           0
     21410 MEMB     196      POPC     C218     CTL3    -0.270000       12.0110           0
     21411 MEMB     196      POPC     H18R     HAL3     0.900000E-01   1.00800           0
     21412 MEMB     196      POPC     H18S     HAL3     0.900000E-01   1.00800           0
     21413 MEMB     196      POPC     H18T     HAL3     0.900000E-01   1.00800           0
     21414 MEMB     196      POPC     C33      CTL2    -0.180000       12.0110           0
     21415 MEMB     196      POPC     H3X      HAL2     0.900000E-01   1.00800           0
     21416 MEMB     196      POPC     H3Y      HAL2     0.900000E-01   1.00800           0
     21417 MEMB     196      POPC     C34      CTL2    -0.180000       12.0110           0
     21418 MEMB     196      POPC     H4X      HAL2     0.900000E-01   1.00800           0
     21419 MEMB     196      POPC     H4Y      HAL2     0.900000E-01   1.00800           0
     21420 MEMB     196      POPC     C35      CTL2    -0.180000       12.0110           0
     21421 MEMB     196      POPC     H5X      HAL2     0.900000E-01   1.00800           0
     21422 MEMB     196      POPC     H5Y      HAL2     0.900000E-01   1.00800           0
     21423 MEMB     196      POPC     C36      CTL2    -0.180000       12.0110           0
     21424 MEMB     196      POPC     H6X      HAL2     0.900000E-01   1.00800           0
     21425 MEMB     196      POPC     H6Y      HAL2     0.900000E-01   1.00800           0
     21426 MEMB     196      POPC     C37      CTL2    -0.180000       12.0110           0
     21427 MEMB     196      POPC     H7X      HAL2     0.900000E-01   1.00800           0
     21428 MEMB     196      POPC     H7Y      HAL2     0.900000E-01   1.00800           0
     21429 MEMB     196      POPC     C38      CTL2    -0.180000       12.0110           0
     21430 MEMB     196      POPC     H8X      HAL2     0.900000E-01   1.00800           0
     21431 MEMB     196      POPC     H8Y      HAL2     0.900000E-01   1.00800           0
     21432 MEMB     196      POPC     C39      CTL2    -0.180000       12.0110           0
     21433 MEMB     196      POPC     H9X      HAL2     0.900000E-01   1.00800           0
     21434 MEMB     196      POPC     H9Y      HAL2     0.900000E-01   1.00800           0
     21435 MEMB     196      POPC     C310     CTL2    -0.180000       12.0110           0
     21436 MEMB     196      POPC     H10X     HAL2     0.900000E-01   1.00800           0
     21437 MEMB     196      POPC     H10Y     HAL2     0.900000E-01   1.00800           0
     21438 MEMB     196      POPC     C311     CTL2    -0.180000       12.0110           0
     21439 MEMB     196      POPC     H11X     HAL2     0.900000E-01   1.00800           0
     21440 MEMB     196      POPC     H11Y     HAL2     0.900000E-01   1.00800           0
     21441 MEMB     196      POPC     C312     CTL2    -0.180000       12.0110           0
     21442 MEMB     196      POPC     H12X     HAL2     0.900000E-01   1.00800           0
     21443 MEMB     196      POPC     H12Y     HAL2     0.900000E-01   1.00800           0
     21444 MEMB     196      POPC     C313     CTL2    -0.180000       12.0110           0
     21445 MEMB     196      POPC     H13X     HAL2     0.900000E-01   1.00800           0
     21446 MEMB     196      POPC     H13Y     HAL2     0.900000E-01   1.00800           0
     21447 MEMB     196      POPC     C314     CTL2    -0.180000       12.0110           0
     21448 MEMB     196      POPC     H14X     HAL2     0.900000E-01   1.00800           0
     21449 MEMB     196      POPC     H14Y     HAL2     0.900000E-01   1.00800           0
     21450 MEMB     196      POPC     C315     CTL2    -0.180000       12.0110           0
     21451 MEMB     196      POPC     H15X     HAL2     0.900000E-01   1.00800           0
     21452 MEMB     196      POPC     H15Y     HAL2     0.900000E-01   1.00800           0
     21453 MEMB     196      POPC     C316     CTL3    -0.270000       12.0110           0
     21454 MEMB     196      POPC     H16X     HAL3     0.900000E-01   1.00800           0
     21455 MEMB     196      POPC     H16Y     HAL3     0.900000E-01   1.00800           0
     21456 MEMB     196      POPC     H16Z     HAL3     0.900000E-01   1.00800           0
     21457 MEMB     199      POPC     N        NTL     -0.600000       14.0070           0
     21458 MEMB     199      POPC     C12      CTL2    -0.100000       12.0110           0
     21459 MEMB     199      POPC     H12A     HL       0.250000       1.00800           0
     21460 MEMB     199      POPC     H12B     HL       0.250000       1.00800           0
     21461 MEMB     199      POPC     C13      CTL5    -0.350000       12.0110           0
     21462 MEMB     199      POPC     H13A     HL       0.250000       1.00800           0
     21463 MEMB     199      POPC     H13B     HL       0.250000       1.00800           0
     21464 MEMB     199      POPC     H13C     HL       0.250000       1.00800           0
     21465 MEMB     199      POPC     C14      CTL5    -0.350000       12.0110           0
     21466 MEMB     199      POPC     H14A     HL       0.250000       1.00800           0
     21467 MEMB     199      POPC     H14B     HL       0.250000       1.00800           0
     21468 MEMB     199      POPC     H14C     HL       0.250000       1.00800           0
     21469 MEMB     199      POPC     C15      CTL5    -0.350000       12.0110           0
     21470 MEMB     199      POPC     H15A     HL       0.250000       1.00800           0
     21471 MEMB     199      POPC     H15B     HL       0.250000       1.00800           0
     21472 MEMB     199      POPC     H15C     HL       0.250000       1.00800           0
     21473 MEMB     199      POPC     C11      CTL2    -0.800000E-01   12.0110           0
     21474 MEMB     199      POPC     H11A     HAL2     0.900000E-01   1.00800           0
     21475 MEMB     199      POPC     H11B     HAL2     0.900000E-01   1.00800           0
     21476 MEMB     199      POPC     P        PL       1.500000       30.9740           0
     21477 MEMB     199      POPC     O13      O2L     -0.780000       15.9994           0
     21478 MEMB     199      POPC     O14      O2L     -0.780000       15.9994           0
     21479 MEMB     199      POPC     O12      OSLP    -0.570000       15.9994           0
     21480 MEMB     199      POPC     O11      OSLP    -0.570000       15.9994           0
     21481 MEMB     199      POPC     C1       CTL2    -0.800000E-01   12.0110           0
     21482 MEMB     199      POPC     HA       HAL2     0.900000E-01   1.00800           0
     21483 MEMB     199      POPC     HB       HAL2     0.900000E-01   1.00800           0
     21484 MEMB     199      POPC     C2       CTL1     0.170000       12.0110           0
     21485 MEMB     199      POPC     HS       HAL1     0.900000E-01   1.00800           0
     21486 MEMB     199      POPC     O21      OSL     -0.490000       15.9994           0
     21487 MEMB     199      POPC     C21      CL       0.900000       12.0110           0
     21488 MEMB     199      POPC     O22      OBL     -0.630000       15.9994           0
     21489 MEMB     199      POPC     C22      CTL2    -0.220000       12.0110           0
     21490 MEMB     199      POPC     H2R      HAL2     0.900000E-01   1.00800           0
     21491 MEMB     199      POPC     H2S      HAL2     0.900000E-01   1.00800           0
     21492 MEMB     199      POPC     C3       CTL2     0.800000E-01   12.0110           0
     21493 MEMB     199      POPC     HX       HAL2     0.900000E-01   1.00800           0
     21494 MEMB     199      POPC     HY       HAL2     0.900000E-01   1.00800           0
     21495 MEMB     199      POPC     O31      OSL     -0.490000       15.9994           0
     21496 MEMB     199      POPC     C31      CL       0.900000       12.0110           0
     21497 MEMB     199      POPC     O32      OBL     -0.630000       15.9994           0
     21498 MEMB     199      POPC     C32      CTL2    -0.220000       12.0110           0
     21499 MEMB     199      POPC     H2X      HAL2     0.900000E-01   1.00800           0
     21500 MEMB     199      POPC     H2Y      HAL2     0.900000E-01   1.00800           0
     21501 MEMB     199      POPC     C23      CTL2    -0.180000       12.0110           0
     21502 MEMB     199      POPC     H3R      HAL2     0.900000E-01   1.00800           0
     21503 MEMB     199      POPC     H3S      HAL2     0.900000E-01   1.00800           0
     21504 MEMB     199      POPC     C24      CTL2    -0.180000       12.0110           0
     21505 MEMB     199      POPC     H4R      HAL2     0.900000E-01   1.00800           0
     21506 MEMB     199      POPC     H4S      HAL2     0.900000E-01   1.00800           0
     21507 MEMB     199      POPC     C25      CTL2    -0.180000       12.0110           0
     21508 MEMB     199      POPC     H5R      HAL2     0.900000E-01   1.00800           0
     21509 MEMB     199      POPC     H5S      HAL2     0.900000E-01   1.00800           0
     21510 MEMB     199      POPC     C26      CTL2    -0.180000       12.0110           0
     21511 MEMB     199      POPC     H6R      HAL2     0.900000E-01   1.00800           0
     21512 MEMB     199      POPC     H6S      HAL2     0.900000E-01   1.00800           0
     21513 MEMB     199      POPC     C27      CTL2    -0.180000       12.0110           0
     21514 MEMB     199      POPC     H7R      HAL2     0.900000E-01   1.00800           0
     21515 MEMB     199      POPC     H7S      HAL2     0.900000E-01   1.00800           0
     21516 MEMB     199      POPC     C28      CTL2    -0.180000       12.0110           0
     21517 MEMB     199      POPC     H8R      HAL2     0.900000E-01   1.00800           0
     21518 MEMB     199      POPC     H8S      HAL2     0.900000E-01   1.00800           0
     21519 MEMB     199      POPC     C29      CEL1    -0.150000       12.0110           0
     21520 MEMB     199      POPC     H91      HEL1     0.150000       1.00800           0
     21521 MEMB     199      POPC     C210     CEL1    -0.150000       12.0110           0
     21522 MEMB     199      POPC     H101     HEL1     0.150000       1.00800           0
     21523 MEMB     199      POPC     C211     CTL2    -0.180000       12.0110           0
     21524 MEMB     199      POPC     H11R     HAL2     0.900000E-01   1.00800           0
     21525 MEMB     199      POPC     H11S     HAL2     0.900000E-01   1.00800           0
     21526 MEMB     199      POPC     C212     CTL2    -0.180000       12.0110           0
     21527 MEMB     199      POPC     H12R     HAL2     0.900000E-01   1.00800           0
     21528 MEMB     199      POPC     H12S     HAL2     0.900000E-01   1.00800           0
     21529 MEMB     199      POPC     C213     CTL2    -0.180000       12.0110           0
     21530 MEMB     199      POPC     H13R     HAL2     0.900000E-01   1.00800           0
     21531 MEMB     199      POPC     H13S     HAL2     0.900000E-01   1.00800           0
     21532 MEMB     199      POPC     C214     CTL2    -0.180000       12.0110           0
     21533 MEMB     199      POPC     H14R     HAL2     0.900000E-01   1.00800           0
     21534 MEMB     199      POPC     H14S     HAL2     0.900000E-01   1.00800           0
     21535 MEMB     199      POPC     C215     CTL2    -0.180000       12.0110           0
     21536 MEMB     199      POPC     H15R     HAL2     0.900000E-01   1.00800           0
     21537 MEMB     199      POPC     H15S     HAL2     0.900000E-01   1.00800           0
     21538 MEMB     199      POPC     C216     CTL2    -0.180000       12.0110           0
     21539 MEMB     199      POPC     H16R     HAL2     0.900000E-01   1.00800           0
     21540 MEMB     199      POPC     H16S     HAL2     0.900000E-01   1.00800           0
     21541 MEMB     199      POPC     C217     CTL2    -0.180000       12.0110           0
     21542 MEMB     199      POPC     H17R     HAL2     0.900000E-01   1.00800           0
     21543 MEMB     199      POPC     H17S     HAL2     0.900000E-01   1.00800           0
     21544 MEMB     199      POPC     C218     CTL3    -0.270000       12.0110           0
     21545 MEMB     199      POPC     H18R     HAL3     0.900000E-01   1.00800           0
     21546 MEMB     199      POPC     H18S     HAL3     0.900000E-01   1.00800           0
     21547 MEMB     199      POPC     H18T     HAL3     0.900000E-01   1.00800           0
     21548 MEMB     199      POPC     C33      CTL2    -0.180000       12.0110           0
     21549 MEMB     199      POPC     H3X      HAL2     0.900000E-01   1.00800           0
     21550 MEMB     199      POPC     H3Y      HAL2     0.900000E-01   1.00800           0
     21551 MEMB     199      POPC     C34      CTL2    -0.180000       12.0110           0
     21552 MEMB     199      POPC     H4X      HAL2     0.900000E-01   1.00800           0
     21553 MEMB     199      POPC     H4Y      HAL2     0.900000E-01   1.00800           0
     21554 MEMB     199      POPC     C35      CTL2    -0.180000       12.0110           0
     21555 MEMB     199      POPC     H5X      HAL2     0.900000E-01   1.00800           0
     21556 MEMB     199      POPC     H5Y      HAL2     0.900000E-01   1.00800           0
     21557 MEMB     199      POPC     C36      CTL2    -0.180000       12.0110           0
     21558 MEMB     199      POPC     H6X      HAL2     0.900000E-01   1.00800           0
     21559 MEMB     199      POPC     H6Y      HAL2     0.900000E-01   1.00800           0
     21560 MEMB     199      POPC     C37      CTL2    -0.180000       12.0110           0
     21561 MEMB     199      POPC     H7X      HAL2     0.900000E-01   1.00800           0
     21562 MEMB     199      POPC     H7Y      HAL2     0.900000E-01   1.00800           0
     21563 MEMB     199      POPC     C38      CTL2    -0.180000       12.0110           0
     21564 MEMB     199      POPC     H8X      HAL2     0.900000E-01   1.00800           0
     21565 MEMB     199      POPC     H8Y      HAL2     0.900000E-01   1.00800           0
     21566 MEMB     199      POPC     C39      CTL2    -0.180000       12.0110           0
     21567 MEMB     199      POPC     H9X      HAL2     0.900000E-01   1.00800           0
     21568 MEMB     199      POPC     H9Y      HAL2     0.900000E-01   1.00800           0
     21569 MEMB     199      POPC     C310     CTL2    -0.180000       12.0110           0
     21570 MEMB     199      POPC     H10X     HAL2     0.900000E-01   1.00800           0
     21571 MEMB     199      POPC     H10Y     HAL2     0.900000E-01   1.00800           0
     21572 MEMB     199      POPC     C311     CTL2    -0.180000       12.0110           0
     21573 MEMB     199      POPC     H11X     HAL2     0.900000E-01   1.00800           0
     21574 MEMB     199      POPC     H11Y     HAL2     0.900000E-01   1.00800           0
     21575 MEMB     199      POPC     C312     CTL2    -0.180000       12.0110           0
     21576 MEMB     199      POPC     H12X     HAL2     0.900000E-01   1.00800           0
     21577 MEMB     199      POPC     H12Y     HAL2     0.900000E-01   1.00800           0
     21578 MEMB     199      POPC     C313     CTL2    -0.180000       12.0110           0
     21579 MEMB     199      POPC     H13X     HAL2     0.900000E-01   1.00800           0
     21580 MEMB     199      POPC     H13Y     HAL2     0.900000E-01   1.00800           0
     21581 MEMB     199      POPC     C314     CTL2    -0.180000       12.0110           0
     21582 MEMB     199      POPC     H14X     HAL2     0.900000E-01   1.00800           0
     21583 MEMB     199      POPC     H14Y     HAL2     0.900000E-01   1.00800           0
     21584 MEMB     199      POPC     C315     CTL2    -0.180000       12.0110           0
     21585 MEMB     199      POPC     H15X     HAL2     0.900000E-01   1.00800           0
     21586 MEMB     199      POPC     H15Y     HAL2     0.900000E-01   1.00800           0
     21587 MEMB     199      POPC     C316     CTL3    -0.270000       12.0110           0
     21588 MEMB     199      POPC     H16X     HAL3     0.900000E-01   1.00800           0
     21589 MEMB     199      POPC     H16Y     HAL3     0.900000E-01   1.00800           0
     21590 MEMB     199      POPC     H16Z     HAL3     0.900000E-01   1.00800           0
     21591 MEMB     8        POPI     C12      CC3161   0.140000       12.0110           0
     21592 MEMB     8        POPI     H2       HCA1     0.900000E-01   1.00800           0
     21593 MEMB     8        POPI     O2       OC311   -0.650000       15.9994           0
     21594 MEMB     8        POPI     HO2      HCP1     0.420000       1.00800           0
     21595 MEMB     8        POPI     C13      CC3161   0.140000       12.0110           0
     21596 MEMB     8        POPI     H3       HCA1     0.900000E-01   1.00800           0
     21597 MEMB     8        POPI     O3       OC311   -0.650000       15.9994           0
     21598 MEMB     8        POPI     HO3      HCP1     0.420000       1.00800           0
     21599 MEMB     8        POPI     C14      CC3161   0.140000       12.0110           0
     21600 MEMB     8        POPI     H4       HCA1     0.900000E-01   1.00800           0
     21601 MEMB     8        POPI     O4       OC311   -0.650000       15.9994           0
     21602 MEMB     8        POPI     HO4      HCP1     0.420000       1.00800           0
     21603 MEMB     8        POPI     C15      CC3161   0.140000       12.0110           0
     21604 MEMB     8        POPI     H5       HCA1     0.900000E-01   1.00800           0
     21605 MEMB     8        POPI     O5       OC311   -0.650000       15.9994           0
     21606 MEMB     8        POPI     HO5      HCP1     0.420000       1.00800           0
     21607 MEMB     8        POPI     C16      CC3161   0.140000       12.0110           0
     21608 MEMB     8        POPI     H6       HCA1     0.900000E-01   1.00800           0
     21609 MEMB     8        POPI     O6       OC311   -0.650000       15.9994           0
     21610 MEMB     8        POPI     HO6      HCP1     0.420000       1.00800           0
     21611 MEMB     8        POPI     C11      CC3161  -0.800000E-01   12.0110           0
     21612 MEMB     8        POPI     H1       HCA1     0.900000E-01   1.00800           0
     21613 MEMB     8        POPI     P        PL       1.590000       30.9740           0
     21614 MEMB     8        POPI     O13      O2L     -0.780000       15.9994           0
     21615 MEMB     8        POPI     O14      O2L     -0.780000       15.9994           0
     21616 MEMB     8        POPI     O12      OC30P   -0.570000       15.9994           0
     21617 MEMB     8        POPI     O11      OSLP    -0.570000       15.9994           0
     21618 MEMB     8        POPI     C1       CTL2    -0.800000E-01   12.0110           0
     21619 MEMB     8        POPI     HA       HAL2     0.900000E-01   1.00800           0
     21620 MEMB     8        POPI     HB       HAL2     0.900000E-01   1.00800           0
     21621 MEMB     8        POPI     C2       CTL1     0.170000       12.0110           0
     21622 MEMB     8        POPI     HS       HAL1     0.900000E-01   1.00800           0
     21623 MEMB     8        POPI     O21      OSL     -0.490000       15.9994           0
     21624 MEMB     8        POPI     C21      CL       0.900000       12.0110           0
     21625 MEMB     8        POPI     O22      OBL     -0.630000       15.9994           0
     21626 MEMB     8        POPI     C22      CTL2    -0.220000       12.0110           0
     21627 MEMB     8        POPI     H2R      HAL2     0.900000E-01   1.00800           0
     21628 MEMB     8        POPI     H2S      HAL2     0.900000E-01   1.00800           0
     21629 MEMB     8        POPI     C3       CTL2     0.800000E-01   12.0110           0
     21630 MEMB     8        POPI     HX       HAL2     0.900000E-01   1.00800           0
     21631 MEMB     8        POPI     HY       HAL2     0.900000E-01   1.00800           0
     21632 MEMB     8        POPI     O31      OSL     -0.490000       15.9994           0
     21633 MEMB     8        POPI     C31      CL       0.900000       12.0110           0
     21634 MEMB     8        POPI     O32      OBL     -0.630000       15.9994           0
     21635 MEMB     8        POPI     C32      CTL2    -0.220000       12.0110           0
     21636 MEMB     8        POPI     H2X      HAL2     0.900000E-01   1.00800           0
     21637 MEMB     8        POPI     H2Y      HAL2     0.900000E-01   1.00800           0
     21638 MEMB     8        POPI     C23      CTL2    -0.180000       12.0110           0
     21639 MEMB     8        POPI     H3R      HAL2     0.900000E-01   1.00800           0
     21640 MEMB     8        POPI     H3S      HAL2     0.900000E-01   1.00800           0
     21641 MEMB     8        POPI     C24      CTL2    -0.180000       12.0110           0
     21642 MEMB     8        POPI     H4R      HAL2     0.900000E-01   1.00800           0
     21643 MEMB     8        POPI     H4S      HAL2     0.900000E-01   1.00800           0
     21644 MEMB     8        POPI     C25      CTL2    -0.180000       12.0110           0
     21645 MEMB     8        POPI     H5R      HAL2     0.900000E-01   1.00800           0
     21646 MEMB     8        POPI     H5S      HAL2     0.900000E-01   1.00800           0
     21647 MEMB     8        POPI     C26      CTL2    -0.180000       12.0110           0
     21648 MEMB     8        POPI     H6R      HAL2     0.900000E-01   1.00800           0
     21649 MEMB     8        POPI     H6S      HAL2     0.900000E-01   1.00800           0
     21650 MEMB     8        POPI     C27      CTL2    -0.180000       12.0110           0
     21651 MEMB     8        POPI     H7R      HAL2     0.900000E-01   1.00800           0
     21652 MEMB     8        POPI     H7S      HAL2     0.900000E-01   1.00800           0
     21653 MEMB     8        POPI     C28      CTL2    -0.180000       12.0110           0
     21654 MEMB     8        POPI     H8R      HAL2     0.900000E-01   1.00800           0
     21655 MEMB     8        POPI     H8S      HAL2     0.900000E-01   1.00800           0
     21656 MEMB     8        POPI     C29      CEL1    -0.150000       12.0110           0
     21657 MEMB     8        POPI     H91      HEL1     0.150000       1.00800           0
     21658 MEMB     8        POPI     C210     CEL1    -0.150000       12.0110           0
     21659 MEMB     8        POPI     H101     HEL1     0.150000       1.00800           0
     21660 MEMB     8        POPI     C211     CTL2    -0.180000       12.0110           0
     21661 MEMB     8        POPI     H11R     HAL2     0.900000E-01   1.00800           0
     21662 MEMB     8        POPI     H11S     HAL2     0.900000E-01   1.00800           0
     21663 MEMB     8        POPI     C212     CTL2    -0.180000       12.0110           0
     21664 MEMB     8        POPI     H12R     HAL2     0.900000E-01   1.00800           0
     21665 MEMB     8        POPI     H12S     HAL2     0.900000E-01   1.00800           0
     21666 MEMB     8        POPI     C213     CTL2    -0.180000       12.0110           0
     21667 MEMB     8        POPI     H13R     HAL2     0.900000E-01   1.00800           0
     21668 MEMB     8        POPI     H13S     HAL2     0.900000E-01   1.00800           0
     21669 MEMB     8        POPI     C214     CTL2    -0.180000       12.0110           0
     21670 MEMB     8        POPI     H14R     HAL2     0.900000E-01   1.00800           0
     21671 MEMB     8        POPI     H14S     HAL2     0.900000E-01   1.00800           0
     21672 MEMB     8        POPI     C215     CTL2    -0.180000       12.0110           0
     21673 MEMB     8        POPI     H15R     HAL2     0.900000E-01   1.00800           0
     21674 MEMB     8        POPI     H15S     HAL2     0.900000E-01   1.00800           0
     21675 MEMB     8        POPI     C216     CTL2    -0.180000       12.0110           0
     21676 MEMB     8        POPI     H16R     HAL2     0.900000E-01   1.00800           0
     21677 MEMB     8        POPI     H16S     HAL2     0.900000E-01   1.00800           0
     21678 MEMB     8        POPI     C217     CTL2    -0.180000       12.0110           0
     21679 MEMB     8        POPI     H17R     HAL2     0.900000E-01   1.00800           0
     21680 MEMB     8        POPI     H17S     HAL2     0.900000E-01   1.00800           0
     21681 MEMB     8        POPI     C218     CTL3    -0.270000       12.0110           0
     21682 MEMB     8        POPI     H18R     HAL3     0.900000E-01   1.00800           0
     21683 MEMB     8        POPI     H18S     HAL3     0.900000E-01   1.00800           0
     21684 MEMB     8        POPI     H18T     HAL3     0.900000E-01   1.00800           0
     21685 MEMB     8        POPI     C33      CTL2    -0.180000       12.0110           0
     21686 MEMB     8        POPI     H3X      HAL2     0.900000E-01   1.00800           0
     21687 MEMB     8        POPI     H3Y      HAL2     0.900000E-01   1.00800           0
     21688 MEMB     8        POPI     C34      CTL2    -0.180000       12.0110           0
     21689 MEMB     8        POPI     H4X      HAL2     0.900000E-01   1.00800           0
     21690 MEMB     8        POPI     H4Y      HAL2     0.900000E-01   1.00800           0
     21691 MEMB     8        POPI     C35      CTL2    -0.180000       12.0110           0
     21692 MEMB     8        POPI     H5X      HAL2     0.900000E-01   1.00800           0
     21693 MEMB     8        POPI     H5Y      HAL2     0.900000E-01   1.00800           0
     21694 MEMB     8        POPI     C36      CTL2    -0.180000       12.0110           0
     21695 MEMB     8        POPI     H6X      HAL2     0.900000E-01   1.00800           0
     21696 MEMB     8        POPI     H6Y      HAL2     0.900000E-01   1.00800           0
     21697 MEMB     8        POPI     C37      CTL2    -0.180000       12.0110           0
     21698 MEMB     8        POPI     H7X      HAL2     0.900000E-01   1.00800           0
     21699 MEMB     8        POPI     H7Y      HAL2     0.900000E-01   1.00800           0
     21700 MEMB     8        POPI     C38      CTL2    -0.180000       12.0110           0
     21701 MEMB     8        POPI     H8X      HAL2     0.900000E-01   1.00800           0
     21702 MEMB     8        POPI     H8Y      HAL2     0.900000E-01   1.00800           0
     21703 MEMB     8        POPI     C39      CTL2    -0.180000       12.0110           0
     21704 MEMB     8        POPI     H9X      HAL2     0.900000E-01   1.00800           0
     21705 MEMB     8        POPI     H9Y      HAL2     0.900000E-01   1.00800           0
     21706 MEMB     8        POPI     C310     CTL2    -0.180000       12.0110           0
     21707 MEMB     8        POPI     H10X     HAL2     0.900000E-01   1.00800           0
     21708 MEMB     8        POPI     H10Y     HAL2     0.900000E-01   1.00800           0
     21709 MEMB     8        POPI     C311     CTL2    -0.180000       12.0110           0
     21710 MEMB     8        POPI     H11X     HAL2     0.900000E-01   1.00800           0
     21711 MEMB     8        POPI     H11Y     HAL2     0.900000E-01   1.00800           0
     21712 MEMB     8        POPI     C312     CTL2    -0.180000       12.0110           0
     21713 MEMB     8        POPI     H12X     HAL2     0.900000E-01   1.00800           0
     21714 MEMB     8        POPI     H12Y     HAL2     0.900000E-01   1.00800           0
     21715 MEMB     8        POPI     C313     CTL2    -0.180000       12.0110           0
     21716 MEMB     8        POPI     H13X     HAL2     0.900000E-01   1.00800           0
     21717 MEMB     8        POPI     H13Y     HAL2     0.900000E-01   1.00800           0
     21718 MEMB     8        POPI     C314     CTL2    -0.180000       12.0110           0
     21719 MEMB     8        POPI     H14X     HAL2     0.900000E-01   1.00800           0
     21720 MEMB     8        POPI     H14Y     HAL2     0.900000E-01   1.00800           0
     21721 MEMB     8        POPI     C315     CTL2    -0.180000       12.0110           0
     21722 MEMB     8        POPI     H15X     HAL2     0.900000E-01   1.00800           0
     21723 MEMB     8        POPI     H15Y     HAL2     0.900000E-01   1.00800           0
     21724 MEMB     8        POPI     C316     CTL3    -0.270000       12.0110           0
     21725 MEMB     8        POPI     H16X     HAL3     0.900000E-01   1.00800           0
     21726 MEMB     8        POPI     H16Y     HAL3     0.900000E-01   1.00800           0
     21727 MEMB     8        POPI     H16Z     HAL3     0.900000E-01   1.00800           0
     21728 MEMB     59       POPI     C12      CC3161   0.140000       12.0110           0
     21729 MEMB     59       POPI     H2       HCA1     0.900000E-01   1.00800           0
     21730 MEMB     59       POPI     O2       OC311   -0.650000       15.9994           0
     21731 MEMB     59       POPI     HO2      HCP1     0.420000       1.00800           0
     21732 MEMB     59       POPI     C13      CC3161   0.140000       12.0110           0
     21733 MEMB     59       POPI     H3       HCA1     0.900000E-01   1.00800           0
     21734 MEMB     59       POPI     O3       OC311   -0.650000       15.9994           0
     21735 MEMB     59       POPI     HO3      HCP1     0.420000       1.00800           0
     21736 MEMB     59       POPI     C14      CC3161   0.140000       12.0110           0
     21737 MEMB     59       POPI     H4       HCA1     0.900000E-01   1.00800           0
     21738 MEMB     59       POPI     O4       OC311   -0.650000       15.9994           0
     21739 MEMB     59       POPI     HO4      HCP1     0.420000       1.00800           0
     21740 MEMB     59       POPI     C15      CC3161   0.140000       12.0110           0
     21741 MEMB     59       POPI     H5       HCA1     0.900000E-01   1.00800           0
     21742 MEMB     59       POPI     O5       OC311   -0.650000       15.9994           0
     21743 MEMB     59       POPI     HO5      HCP1     0.420000       1.00800           0
     21744 MEMB     59       POPI     C16      CC3161   0.140000       12.0110           0
     21745 MEMB     59       POPI     H6       HCA1     0.900000E-01   1.00800           0
     21746 MEMB     59       POPI     O6       OC311   -0.650000       15.9994           0
     21747 MEMB     59       POPI     HO6      HCP1     0.420000       1.00800           0
     21748 MEMB     59       POPI     C11      CC3161  -0.800000E-01   12.0110           0
     21749 MEMB     59       POPI     H1       HCA1     0.900000E-01   1.00800           0
     21750 MEMB     59       POPI     P        PL       1.590000       30.9740           0
     21751 MEMB     59       POPI     O13      O2L     -0.780000       15.9994           0
     21752 MEMB     59       POPI     O14      O2L     -0.780000       15.9994           0
     21753 MEMB     59       POPI     O12      OC30P   -0.570000       15.9994           0
     21754 MEMB     59       POPI     O11      OSLP    -0.570000       15.9994           0
     21755 MEMB     59       POPI     C1       CTL2    -0.800000E-01   12.0110           0
     21756 MEMB     59       POPI     HA       HAL2     0.900000E-01   1.00800           0
     21757 MEMB     59       POPI     HB       HAL2     0.900000E-01   1.00800           0
     21758 MEMB     59       POPI     C2       CTL1     0.170000       12.0110           0
     21759 MEMB     59       POPI     HS       HAL1     0.900000E-01   1.00800           0
     21760 MEMB     59       POPI     O21      OSL     -0.490000       15.9994           0
     21761 MEMB     59       POPI     C21      CL       0.900000       12.0110           0
     21762 MEMB     59       POPI     O22      OBL     -0.630000       15.9994           0
     21763 MEMB     59       POPI     C22      CTL2    -0.220000       12.0110           0
     21764 MEMB     59       POPI     H2R      HAL2     0.900000E-01   1.00800           0
     21765 MEMB     59       POPI     H2S      HAL2     0.900000E-01   1.00800           0
     21766 MEMB     59       POPI     C3       CTL2     0.800000E-01   12.0110           0
     21767 MEMB     59       POPI     HX       HAL2     0.900000E-01   1.00800           0
     21768 MEMB     59       POPI     HY       HAL2     0.900000E-01   1.00800           0
     21769 MEMB     59       POPI     O31      OSL     -0.490000       15.9994           0
     21770 MEMB     59       POPI     C31      CL       0.900000       12.0110           0
     21771 MEMB     59       POPI     O32      OBL     -0.630000       15.9994           0
     21772 MEMB     59       POPI     C32      CTL2    -0.220000       12.0110           0
     21773 MEMB     59       POPI     H2X      HAL2     0.900000E-01   1.00800           0
     21774 MEMB     59       POPI     H2Y      HAL2     0.900000E-01   1.00800           0
     21775 MEMB     59       POPI     C23      CTL2    -0.180000       12.0110           0
     21776 MEMB     59       POPI     H3R      HAL2     0.900000E-01   1.00800           0
     21777 MEMB     59       POPI     H3S      HAL2     0.900000E-01   1.00800           0
     21778 MEMB     59       POPI     C24      CTL2    -0.180000       12.0110           0
     21779 MEMB     59       POPI     H4R      HAL2     0.900000E-01   1.00800           0
     21780 MEMB     59       POPI     H4S      HAL2     0.900000E-01   1.00800           0
     21781 MEMB     59       POPI     C25      CTL2    -0.180000       12.0110           0
     21782 MEMB     59       POPI     H5R      HAL2     0.900000E-01   1.00800           0
     21783 MEMB     59       POPI     H5S      HAL2     0.900000E-01   1.00800           0
     21784 MEMB     59       POPI     C26      CTL2    -0.180000       12.0110           0
     21785 MEMB     59       POPI     H6R      HAL2     0.900000E-01   1.00800           0
     21786 MEMB     59       POPI     H6S      HAL2     0.900000E-01   1.00800           0
     21787 MEMB     59       POPI     C27      CTL2    -0.180000       12.0110           0
     21788 MEMB     59       POPI     H7R      HAL2     0.900000E-01   1.00800           0
     21789 MEMB     59       POPI     H7S      HAL2     0.900000E-01   1.00800           0
     21790 MEMB     59       POPI     C28      CTL2    -0.180000       12.0110           0
     21791 MEMB     59       POPI     H8R      HAL2     0.900000E-01   1.00800           0
     21792 MEMB     59       POPI     H8S      HAL2     0.900000E-01   1.00800           0
     21793 MEMB     59       POPI     C29      CEL1    -0.150000       12.0110           0
     21794 MEMB     59       POPI     H91      HEL1     0.150000       1.00800           0
     21795 MEMB     59       POPI     C210     CEL1    -0.150000       12.0110           0
     21796 MEMB     59       POPI     H101     HEL1     0.150000       1.00800           0
     21797 MEMB     59       POPI     C211     CTL2    -0.180000       12.0110           0
     21798 MEMB     59       POPI     H11R     HAL2     0.900000E-01   1.00800           0
     21799 MEMB     59       POPI     H11S     HAL2     0.900000E-01   1.00800           0
     21800 MEMB     59       POPI     C212     CTL2    -0.180000       12.0110           0
     21801 MEMB     59       POPI     H12R     HAL2     0.900000E-01   1.00800           0
     21802 MEMB     59       POPI     H12S     HAL2     0.900000E-01   1.00800           0
     21803 MEMB     59       POPI     C213     CTL2    -0.180000       12.0110           0
     21804 MEMB     59       POPI     H13R     HAL2     0.900000E-01   1.00800           0
     21805 MEMB     59       POPI     H13S     HAL2     0.900000E-01   1.00800           0
     21806 MEMB     59       POPI     C214     CTL2    -0.180000       12.0110           0
     21807 MEMB     59       POPI     H14R     HAL2     0.900000E-01   1.00800           0
     21808 MEMB     59       POPI     H14S     HAL2     0.900000E-01   1.00800           0
     21809 MEMB     59       POPI     C215     CTL2    -0.180000       12.0110           0
     21810 MEMB     59       POPI     H15R     HAL2     0.900000E-01   1.00800           0
     21811 MEMB     59       POPI     H15S     HAL2     0.900000E-01   1.00800           0
     21812 MEMB     59       POPI     C216     CTL2    -0.180000       12.0110           0
     21813 MEMB     59       POPI     H16R     HAL2     0.900000E-01   1.00800           0
     21814 MEMB     59       POPI     H16S     HAL2     0.900000E-01   1.00800           0
     21815 MEMB     59       POPI     C217     CTL2    -0.180000       12.0110           0
     21816 MEMB     59       POPI     H17R     HAL2     0.900000E-01   1.00800           0
     21817 MEMB     59       POPI     H17S     HAL2     0.900000E-01   1.00800           0
     21818 MEMB     59       POPI     C218     CTL3    -0.270000       12.0110           0
     21819 MEMB     59       POPI     H18R     HAL3     0.900000E-01   1.00800           0
     21820 MEMB     59       POPI     H18S     HAL3     0.900000E-01   1.00800           0
     21821 MEMB     59       POPI     H18T     HAL3     0.900000E-01   1.00800           0
     21822 MEMB     59       POPI     C33      CTL2    -0.180000       12.0110           0
     21823 MEMB     59       POPI     H3X      HAL2     0.900000E-01   1.00800           0
     21824 MEMB     59       POPI     H3Y      HAL2     0.900000E-01   1.00800           0
     21825 MEMB     59       POPI     C34      CTL2    -0.180000       12.0110           0
     21826 MEMB     59       POPI     H4X      HAL2     0.900000E-01   1.00800           0
     21827 MEMB     59       POPI     H4Y      HAL2     0.900000E-01   1.00800           0
     21828 MEMB     59       POPI     C35      CTL2    -0.180000       12.0110           0
     21829 MEMB     59       POPI     H5X      HAL2     0.900000E-01   1.00800           0
     21830 MEMB     59       POPI     H5Y      HAL2     0.900000E-01   1.00800           0
     21831 MEMB     59       POPI     C36      CTL2    -0.180000       12.0110           0
     21832 MEMB     59       POPI     H6X      HAL2     0.900000E-01   1.00800           0
     21833 MEMB     59       POPI     H6Y      HAL2     0.900000E-01   1.00800           0
     21834 MEMB     59       POPI     C37      CTL2    -0.180000       12.0110           0
     21835 MEMB     59       POPI     H7X      HAL2     0.900000E-01   1.00800           0
     21836 MEMB     59       POPI     H7Y      HAL2     0.900000E-01   1.00800           0
     21837 MEMB     59       POPI     C38      CTL2    -0.180000       12.0110           0
     21838 MEMB     59       POPI     H8X      HAL2     0.900000E-01   1.00800           0
     21839 MEMB     59       POPI     H8Y      HAL2     0.900000E-01   1.00800           0
     21840 MEMB     59       POPI     C39      CTL2    -0.180000       12.0110           0
     21841 MEMB     59       POPI     H9X      HAL2     0.900000E-01   1.00800           0
     21842 MEMB     59       POPI     H9Y      HAL2     0.900000E-01   1.00800           0
     21843 MEMB     59       POPI     C310     CTL2    -0.180000       12.0110           0
     21844 MEMB     59       POPI     H10X     HAL2     0.900000E-01   1.00800           0
     21845 MEMB     59       POPI     H10Y     HAL2     0.900000E-01   1.00800           0
     21846 MEMB     59       POPI     C311     CTL2    -0.180000       12.0110           0
     21847 MEMB     59       POPI     H11X     HAL2     0.900000E-01   1.00800           0
     21848 MEMB     59       POPI     H11Y     HAL2     0.900000E-01   1.00800           0
     21849 MEMB     59       POPI     C312     CTL2    -0.180000       12.0110           0
     21850 MEMB     59       POPI     H12X     HAL2     0.900000E-01   1.00800           0
     21851 MEMB     59       POPI     H12Y     HAL2     0.900000E-01   1.00800           0
     21852 MEMB     59       POPI     C313     CTL2    -0.180000       12.0110           0
     21853 MEMB     59       POPI     H13X     HAL2     0.900000E-01   1.00800           0
     21854 MEMB     59       POPI     H13Y     HAL2     0.900000E-01   1.00800           0
     21855 MEMB     59       POPI     C314     CTL2    -0.180000       12.0110           0
     21856 MEMB     59       POPI     H14X     HAL2     0.900000E-01   1.00800           0
     21857 MEMB     59       POPI     H14Y     HAL2     0.900000E-01   1.00800           0
     21858 MEMB     59       POPI     C315     CTL2    -0.180000       12.0110           0
     21859 MEMB     59       POPI     H15X     HAL2     0.900000E-01   1.00800           0
     21860 MEMB     59       POPI     H15Y     HAL2     0.900000E-01   1.00800           0
     21861 MEMB     59       POPI     C316     CTL3    -0.270000       12.0110           0
     21862 MEMB     59       POPI     H16X     HAL3     0.900000E-01   1.00800           0
     21863 MEMB     59       POPI     H16Y     HAL3     0.900000E-01   1.00800           0
     21864 MEMB     59       POPI     H16Z     HAL3     0.900000E-01   1.00800           0
     21865 MEMB     76       POPI     C12      CC3161   0.140000       12.0110           0
     21866 MEMB     76       POPI     H2       HCA1     0.900000E-01   1.00800           0
     21867 MEMB     76       POPI     O2       OC311   -0.650000       15.9994           0
     21868 MEMB     76       POPI     HO2      HCP1     0.420000       1.00800           0
     21869 MEMB     76       POPI     C13      CC3161   0.140000       12.0110           0
     21870 MEMB     76       POPI     H3       HCA1     0.900000E-01   1.00800           0
     21871 MEMB     76       POPI     O3       OC311   -0.650000       15.9994           0
     21872 MEMB     76       POPI     HO3      HCP1     0.420000       1.00800           0
     21873 MEMB     76       POPI     C14      CC3161   0.140000       12.0110           0
     21874 MEMB     76       POPI     H4       HCA1     0.900000E-01   1.00800           0
     21875 MEMB     76       POPI     O4       OC311   -0.650000       15.9994           0
     21876 MEMB     76       POPI     HO4      HCP1     0.420000       1.00800           0
     21877 MEMB     76       POPI     C15      CC3161   0.140000       12.0110           0
     21878 MEMB     76       POPI     H5       HCA1     0.900000E-01   1.00800           0
     21879 MEMB     76       POPI     O5       OC311   -0.650000       15.9994           0
     21880 MEMB     76       POPI     HO5      HCP1     0.420000       1.00800           0
     21881 MEMB     76       POPI     C16      CC3161   0.140000       12.0110           0
     21882 MEMB     76       POPI     H6       HCA1     0.900000E-01   1.00800           0
     21883 MEMB     76       POPI     O6       OC311   -0.650000       15.9994           0
     21884 MEMB     76       POPI     HO6      HCP1     0.420000       1.00800           0
     21885 MEMB     76       POPI     C11      CC3161  -0.800000E-01   12.0110           0
     21886 MEMB     76       POPI     H1       HCA1     0.900000E-01   1.00800           0
     21887 MEMB     76       POPI     P        PL       1.590000       30.9740           0
     21888 MEMB     76       POPI     O13      O2L     -0.780000       15.9994           0
     21889 MEMB     76       POPI     O14      O2L     -0.780000       15.9994           0
     21890 MEMB     76       POPI     O12      OC30P   -0.570000       15.9994           0
     21891 MEMB     76       POPI     O11      OSLP    -0.570000       15.9994           0
     21892 MEMB     76       POPI     C1       CTL2    -0.800000E-01   12.0110           0
     21893 MEMB     76       POPI     HA       HAL2     0.900000E-01   1.00800           0
     21894 MEMB     76       POPI     HB       HAL2     0.900000E-01   1.00800           0
     21895 MEMB     76       POPI     C2       CTL1     0.170000       12.0110           0
     21896 MEMB     76       POPI     HS       HAL1     0.900000E-01   1.00800           0
     21897 MEMB     76       POPI     O21      OSL     -0.490000       15.9994           0
     21898 MEMB     76       POPI     C21      CL       0.900000       12.0110           0
     21899 MEMB     76       POPI     O22      OBL     -0.630000       15.9994           0
     21900 MEMB     76       POPI     C22      CTL2    -0.220000       12.0110           0
     21901 MEMB     76       POPI     H2R      HAL2     0.900000E-01   1.00800           0
     21902 MEMB     76       POPI     H2S      HAL2     0.900000E-01   1.00800           0
     21903 MEMB     76       POPI     C3       CTL2     0.800000E-01   12.0110           0
     21904 MEMB     76       POPI     HX       HAL2     0.900000E-01   1.00800           0
     21905 MEMB     76       POPI     HY       HAL2     0.900000E-01   1.00800           0
     21906 MEMB     76       POPI     O31      OSL     -0.490000       15.9994           0
     21907 MEMB     76       POPI     C31      CL       0.900000       12.0110           0
     21908 MEMB     76       POPI     O32      OBL     -0.630000       15.9994           0
     21909 MEMB     76       POPI     C32      CTL2    -0.220000       12.0110           0
     21910 MEMB     76       POPI     H2X      HAL2     0.900000E-01   1.00800           0
     21911 MEMB     76       POPI     H2Y      HAL2     0.900000E-01   1.00800           0
     21912 MEMB     76       POPI     C23      CTL2    -0.180000       12.0110           0
     21913 MEMB     76       POPI     H3R      HAL2     0.900000E-01   1.00800           0
     21914 MEMB     76       POPI     H3S      HAL2     0.900000E-01   1.00800           0
     21915 MEMB     76       POPI     C24      CTL2    -0.180000       12.0110           0
     21916 MEMB     76       POPI     H4R      HAL2     0.900000E-01   1.00800           0
     21917 MEMB     76       POPI     H4S      HAL2     0.900000E-01   1.00800           0
     21918 MEMB     76       POPI     C25      CTL2    -0.180000       12.0110           0
     21919 MEMB     76       POPI     H5R      HAL2     0.900000E-01   1.00800           0
     21920 MEMB     76       POPI     H5S      HAL2     0.900000E-01   1.00800           0
     21921 MEMB     76       POPI     C26      CTL2    -0.180000       12.0110           0
     21922 MEMB     76       POPI     H6R      HAL2     0.900000E-01   1.00800           0
     21923 MEMB     76       POPI     H6S      HAL2     0.900000E-01   1.00800           0
     21924 MEMB     76       POPI     C27      CTL2    -0.180000       12.0110           0
     21925 MEMB     76       POPI     H7R      HAL2     0.900000E-01   1.00800           0
     21926 MEMB     76       POPI     H7S      HAL2     0.900000E-01   1.00800           0
     21927 MEMB     76       POPI     C28      CTL2    -0.180000       12.0110           0
     21928 MEMB     76       POPI     H8R      HAL2     0.900000E-01   1.00800           0
     21929 MEMB     76       POPI     H8S      HAL2     0.900000E-01   1.00800           0
     21930 MEMB     76       POPI     C29      CEL1    -0.150000       12.0110           0
     21931 MEMB     76       POPI     H91      HEL1     0.150000       1.00800           0
     21932 MEMB     76       POPI     C210     CEL1    -0.150000       12.0110           0
     21933 MEMB     76       POPI     H101     HEL1     0.150000       1.00800           0
     21934 MEMB     76       POPI     C211     CTL2    -0.180000       12.0110           0
     21935 MEMB     76       POPI     H11R     HAL2     0.900000E-01   1.00800           0
     21936 MEMB     76       POPI     H11S     HAL2     0.900000E-01   1.00800           0
     21937 MEMB     76       POPI     C212     CTL2    -0.180000       12.0110           0
     21938 MEMB     76       POPI     H12R     HAL2     0.900000E-01   1.00800           0
     21939 MEMB     76       POPI     H12S     HAL2     0.900000E-01   1.00800           0
     21940 MEMB     76       POPI     C213     CTL2    -0.180000       12.0110           0
     21941 MEMB     76       POPI     H13R     HAL2     0.900000E-01   1.00800           0
     21942 MEMB     76       POPI     H13S     HAL2     0.900000E-01   1.00800           0
     21943 MEMB     76       POPI     C214     CTL2    -0.180000       12.0110           0
     21944 MEMB     76       POPI     H14R     HAL2     0.900000E-01   1.00800           0
     21945 MEMB     76       POPI     H14S     HAL2     0.900000E-01   1.00800           0
     21946 MEMB     76       POPI     C215     CTL2    -0.180000       12.0110           0
     21947 MEMB     76       POPI     H15R     HAL2     0.900000E-01   1.00800           0
     21948 MEMB     76       POPI     H15S     HAL2     0.900000E-01   1.00800           0
     21949 MEMB     76       POPI     C216     CTL2    -0.180000       12.0110           0
     21950 MEMB     76       POPI     H16R     HAL2     0.900000E-01   1.00800           0
     21951 MEMB     76       POPI     H16S     HAL2     0.900000E-01   1.00800           0
     21952 MEMB     76       POPI     C217     CTL2    -0.180000       12.0110           0
     21953 MEMB     76       POPI     H17R     HAL2     0.900000E-01   1.00800           0
     21954 MEMB     76       POPI     H17S     HAL2     0.900000E-01   1.00800           0
     21955 MEMB     76       POPI     C218     CTL3    -0.270000       12.0110           0
     21956 MEMB     76       POPI     H18R     HAL3     0.900000E-01   1.00800           0
     21957 MEMB     76       POPI     H18S     HAL3     0.900000E-01   1.00800           0
     21958 MEMB     76       POPI     H18T     HAL3     0.900000E-01   1.00800           0
     21959 MEMB     76       POPI     C33      CTL2    -0.180000       12.0110           0
     21960 MEMB     76       POPI     H3X      HAL2     0.900000E-01   1.00800           0
     21961 MEMB     76       POPI     H3Y      HAL2     0.900000E-01   1.00800           0
     21962 MEMB     76       POPI     C34      CTL2    -0.180000       12.0110           0
     21963 MEMB     76       POPI     H4X      HAL2     0.900000E-01   1.00800           0
     21964 MEMB     76       POPI     H4Y      HAL2     0.900000E-01   1.00800           0
     21965 MEMB     76       POPI     C35      CTL2    -0.180000       12.0110           0
     21966 MEMB     76       POPI     H5X      HAL2     0.900000E-01   1.00800           0
     21967 MEMB     76       POPI     H5Y      HAL2     0.900000E-01   1.00800           0
     21968 MEMB     76       POPI     C36      CTL2    -0.180000       12.0110           0
     21969 MEMB     76       POPI     H6X      HAL2     0.900000E-01   1.00800           0
     21970 MEMB     76       POPI     H6Y      HAL2     0.900000E-01   1.00800           0
     21971 MEMB     76       POPI     C37      CTL2    -0.180000       12.0110           0
     21972 MEMB     76       POPI     H7X      HAL2     0.900000E-01   1.00800           0
     21973 MEMB     76       POPI     H7Y      HAL2     0.900000E-01   1.00800           0
     21974 MEMB     76       POPI     C38      CTL2    -0.180000       12.0110           0
     21975 MEMB     76       POPI     H8X      HAL2     0.900000E-01   1.00800           0
     21976 MEMB     76       POPI     H8Y      HAL2     0.900000E-01   1.00800           0
     21977 MEMB     76       POPI     C39      CTL2    -0.180000       12.0110           0
     21978 MEMB     76       POPI     H9X      HAL2     0.900000E-01   1.00800           0
     21979 MEMB     76       POPI     H9Y      HAL2     0.900000E-01   1.00800           0
     21980 MEMB     76       POPI     C310     CTL2    -0.180000       12.0110           0
     21981 MEMB     76       POPI     H10X     HAL2     0.900000E-01   1.00800           0
     21982 MEMB     76       POPI     H10Y     HAL2     0.900000E-01   1.00800           0
     21983 MEMB     76       POPI     C311     CTL2    -0.180000       12.0110           0
     21984 MEMB     76       POPI     H11X     HAL2     0.900000E-01   1.00800           0
     21985 MEMB     76       POPI     H11Y     HAL2     0.900000E-01   1.00800           0
     21986 MEMB     76       POPI     C312     CTL2    -0.180000       12.0110           0
     21987 MEMB     76       POPI     H12X     HAL2     0.900000E-01   1.00800           0
     21988 MEMB     76       POPI     H12Y     HAL2     0.900000E-01   1.00800           0
     21989 MEMB     76       POPI     C313     CTL2    -0.180000       12.0110           0
     21990 MEMB     76       POPI     H13X     HAL2     0.900000E-01   1.00800           0
     21991 MEMB     76       POPI     H13Y     HAL2     0.900000E-01   1.00800           0
     21992 MEMB     76       POPI     C314     CTL2    -0.180000       12.0110           0
     21993 MEMB     76       POPI     H14X     HAL2     0.900000E-01   1.00800           0
     21994 MEMB     76       POPI     H14Y     HAL2     0.900000E-01   1.00800           0
     21995 MEMB     76       POPI     C315     CTL2    -0.180000       12.0110           0
     21996 MEMB     76       POPI     H15X     HAL2     0.900000E-01   1.00800           0
     21997 MEMB     76       POPI     H15Y     HAL2     0.900000E-01   1.00800           0
     21998 MEMB     76       POPI     C316     CTL3    -0.270000       12.0110           0
     21999 MEMB     76       POPI     H16X     HAL3     0.900000E-01   1.00800           0
     22000 MEMB     76       POPI     H16Y     HAL3     0.900000E-01   1.00800           0
     22001 MEMB     76       POPI     H16Z     HAL3     0.900000E-01   1.00800           0
     22002 MEMB     99       POPI     C12      CC3161   0.140000       12.0110           0
     22003 MEMB     99       POPI     H2       HCA1     0.900000E-01   1.00800           0
     22004 MEMB     99       POPI     O2       OC311   -0.650000       15.9994           0
     22005 MEMB     99       POPI     HO2      HCP1     0.420000       1.00800           0
     22006 MEMB     99       POPI     C13      CC3161   0.140000       12.0110           0
     22007 MEMB     99       POPI     H3       HCA1     0.900000E-01   1.00800           0
     22008 MEMB     99       POPI     O3       OC311   -0.650000       15.9994           0
     22009 MEMB     99       POPI     HO3      HCP1     0.420000       1.00800           0
     22010 MEMB     99       POPI     C14      CC3161   0.140000       12.0110           0
     22011 MEMB     99       POPI     H4       HCA1     0.900000E-01   1.00800           0
     22012 MEMB     99       POPI     O4       OC311   -0.650000       15.9994           0
     22013 MEMB     99       POPI     HO4      HCP1     0.420000       1.00800           0
     22014 MEMB     99       POPI     C15      CC3161   0.140000       12.0110           0
     22015 MEMB     99       POPI     H5       HCA1     0.900000E-01   1.00800           0
     22016 MEMB     99       POPI     O5       OC311   -0.650000       15.9994           0
     22017 MEMB     99       POPI     HO5      HCP1     0.420000       1.00800           0
     22018 MEMB     99       POPI     C16      CC3161   0.140000       12.0110           0
     22019 MEMB     99       POPI     H6       HCA1     0.900000E-01   1.00800           0
     22020 MEMB     99       POPI     O6       OC311   -0.650000       15.9994           0
     22021 MEMB     99       POPI     HO6      HCP1     0.420000       1.00800           0
     22022 MEMB     99       POPI     C11      CC3161  -0.800000E-01   12.0110           0
     22023 MEMB     99       POPI     H1       HCA1     0.900000E-01   1.00800           0
     22024 MEMB     99       POPI     P        PL       1.590000       30.9740           0
     22025 MEMB     99       POPI     O13      O2L     -0.780000       15.9994           0
     22026 MEMB     99       POPI     O14      O2L     -0.780000       15.9994           0
     22027 MEMB     99       POPI     O12      OC30P   -0.570000       15.9994           0
     22028 MEMB     99       POPI     O11      OSLP    -0.570000       15.9994           0
     22029 MEMB     99       POPI     C1       CTL2    -0.800000E-01   12.0110           0
     22030 MEMB     99       POPI     HA       HAL2     0.900000E-01   1.00800           0
     22031 MEMB     99       POPI     HB       HAL2     0.900000E-01   1.00800           0
     22032 MEMB     99       POPI     C2       CTL1     0.170000       12.0110           0
     22033 MEMB     99       POPI     HS       HAL1     0.900000E-01   1.00800           0
     22034 MEMB     99       POPI     O21      OSL     -0.490000       15.9994           0
     22035 MEMB     99       POPI     C21      CL       0.900000       12.0110           0
     22036 MEMB     99       POPI     O22      OBL     -0.630000       15.9994           0
     22037 MEMB     99       POPI     C22      CTL2    -0.220000       12.0110           0
     22038 MEMB     99       POPI     H2R      HAL2     0.900000E-01   1.00800           0
     22039 MEMB     99       POPI     H2S      HAL2     0.900000E-01   1.00800           0
     22040 MEMB     99       POPI     C3       CTL2     0.800000E-01   12.0110           0
     22041 MEMB     99       POPI     HX       HAL2     0.900000E-01   1.00800           0
     22042 MEMB     99       POPI     HY       HAL2     0.900000E-01   1.00800           0
     22043 MEMB     99       POPI     O31      OSL     -0.490000       15.9994           0
     22044 MEMB     99       POPI     C31      CL       0.900000       12.0110           0
     22045 MEMB     99       POPI     O32      OBL     -0.630000       15.9994           0
     22046 MEMB     99       POPI     C32      CTL2    -0.220000       12.0110           0
     22047 MEMB     99       POPI     H2X      HAL2     0.900000E-01   1.00800           0
     22048 MEMB     99       POPI     H2Y      HAL2     0.900000E-01   1.00800           0
     22049 MEMB     99       POPI     C23      CTL2    -0.180000       12.0110           0
     22050 MEMB     99       POPI     H3R      HAL2     0.900000E-01   1.00800           0
     22051 MEMB     99       POPI     H3S      HAL2     0.900000E-01   1.00800           0
     22052 MEMB     99       POPI     C24      CTL2    -0.180000       12.0110           0
     22053 MEMB     99       POPI     H4R      HAL2     0.900000E-01   1.00800           0
     22054 MEMB     99       POPI     H4S      HAL2     0.900000E-01   1.00800           0
     22055 MEMB     99       POPI     C25      CTL2    -0.180000       12.0110           0
     22056 MEMB     99       POPI     H5R      HAL2     0.900000E-01   1.00800           0
     22057 MEMB     99       POPI     H5S      HAL2     0.900000E-01   1.00800           0
     22058 MEMB     99       POPI     C26      CTL2    -0.180000       12.0110           0
     22059 MEMB     99       POPI     H6R      HAL2     0.900000E-01   1.00800           0
     22060 MEMB     99       POPI     H6S      HAL2     0.900000E-01   1.00800           0
     22061 MEMB     99       POPI     C27      CTL2    -0.180000       12.0110           0
     22062 MEMB     99       POPI     H7R      HAL2     0.900000E-01   1.00800           0
     22063 MEMB     99       POPI     H7S      HAL2     0.900000E-01   1.00800           0
     22064 MEMB     99       POPI     C28      CTL2    -0.180000       12.0110           0
     22065 MEMB     99       POPI     H8R      HAL2     0.900000E-01   1.00800           0
     22066 MEMB     99       POPI     H8S      HAL2     0.900000E-01   1.00800           0
     22067 MEMB     99       POPI     C29      CEL1    -0.150000       12.0110           0
     22068 MEMB     99       POPI     H91      HEL1     0.150000       1.00800           0
     22069 MEMB     99       POPI     C210     CEL1    -0.150000       12.0110           0
     22070 MEMB     99       POPI     H101     HEL1     0.150000       1.00800           0
     22071 MEMB     99       POPI     C211     CTL2    -0.180000       12.0110           0
     22072 MEMB     99       POPI     H11R     HAL2     0.900000E-01   1.00800           0
     22073 MEMB     99       POPI     H11S     HAL2     0.900000E-01   1.00800           0
     22074 MEMB     99       POPI     C212     CTL2    -0.180000       12.0110           0
     22075 MEMB     99       POPI     H12R     HAL2     0.900000E-01   1.00800           0
     22076 MEMB     99       POPI     H12S     HAL2     0.900000E-01   1.00800           0
     22077 MEMB     99       POPI     C213     CTL2    -0.180000       12.0110           0
     22078 MEMB     99       POPI     H13R     HAL2     0.900000E-01   1.00800           0
     22079 MEMB     99       POPI     H13S     HAL2     0.900000E-01   1.00800           0
     22080 MEMB     99       POPI     C214     CTL2    -0.180000       12.0110           0
     22081 MEMB     99       POPI     H14R     HAL2     0.900000E-01   1.00800           0
     22082 MEMB     99       POPI     H14S     HAL2     0.900000E-01   1.00800           0
     22083 MEMB     99       POPI     C215     CTL2    -0.180000       12.0110           0
     22084 MEMB     99       POPI     H15R     HAL2     0.900000E-01   1.00800           0
     22085 MEMB     99       POPI     H15S     HAL2     0.900000E-01   1.00800           0
     22086 MEMB     99       POPI     C216     CTL2    -0.180000       12.0110           0
     22087 MEMB     99       POPI     H16R     HAL2     0.900000E-01   1.00800           0
     22088 MEMB     99       POPI     H16S     HAL2     0.900000E-01   1.00800           0
     22089 MEMB     99       POPI     C217     CTL2    -0.180000       12.0110           0
     22090 MEMB     99       POPI     H17R     HAL2     0.900000E-01   1.00800           0
     22091 MEMB     99       POPI     H17S     HAL2     0.900000E-01   1.00800           0
     22092 MEMB     99       POPI     C218     CTL3    -0.270000       12.0110           0
     22093 MEMB     99       POPI     H18R     HAL3     0.900000E-01   1.00800           0
     22094 MEMB     99       POPI     H18S     HAL3     0.900000E-01   1.00800           0
     22095 MEMB     99       POPI     H18T     HAL3     0.900000E-01   1.00800           0
     22096 MEMB     99       POPI     C33      CTL2    -0.180000       12.0110           0
     22097 MEMB     99       POPI     H3X      HAL2     0.900000E-01   1.00800           0
     22098 MEMB     99       POPI     H3Y      HAL2     0.900000E-01   1.00800           0
     22099 MEMB     99       POPI     C34      CTL2    -0.180000       12.0110           0
     22100 MEMB     99       POPI     H4X      HAL2     0.900000E-01   1.00800           0
     22101 MEMB     99       POPI     H4Y      HAL2     0.900000E-01   1.00800           0
     22102 MEMB     99       POPI     C35      CTL2    -0.180000       12.0110           0
     22103 MEMB     99       POPI     H5X      HAL2     0.900000E-01   1.00800           0
     22104 MEMB     99       POPI     H5Y      HAL2     0.900000E-01   1.00800           0
     22105 MEMB     99       POPI     C36      CTL2    -0.180000       12.0110           0
     22106 MEMB     99       POPI     H6X      HAL2     0.900000E-01   1.00800           0
     22107 MEMB     99       POPI     H6Y      HAL2     0.900000E-01   1.00800           0
     22108 MEMB     99       POPI     C37      CTL2    -0.180000       12.0110           0
     22109 MEMB     99       POPI     H7X      HAL2     0.900000E-01   1.00800           0
     22110 MEMB     99       POPI     H7Y      HAL2     0.900000E-01   1.00800           0
     22111 MEMB     99       POPI     C38      CTL2    -0.180000       12.0110           0
     22112 MEMB     99       POPI     H8X      HAL2     0.900000E-01   1.00800           0
     22113 MEMB     99       POPI     H8Y      HAL2     0.900000E-01   1.00800           0
     22114 MEMB     99       POPI     C39      CTL2    -0.180000       12.0110           0
     22115 MEMB     99       POPI     H9X      HAL2     0.900000E-01   1.00800           0
     22116 MEMB     99       POPI     H9Y      HAL2     0.900000E-01   1.00800           0
     22117 MEMB     99       POPI     C310     CTL2    -0.180000       12.0110           0
     22118 MEMB     99       POPI     H10X     HAL2     0.900000E-01   1.00800           0
     22119 MEMB     99       POPI     H10Y     HAL2     0.900000E-01   1.00800           0
     22120 MEMB     99       POPI     C311     CTL2    -0.180000       12.0110           0
     22121 MEMB     99       POPI     H11X     HAL2     0.900000E-01   1.00800           0
     22122 MEMB     99       POPI     H11Y     HAL2     0.900000E-01   1.00800           0
     22123 MEMB     99       POPI     C312     CTL2    -0.180000       12.0110           0
     22124 MEMB     99       POPI     H12X     HAL2     0.900000E-01   1.00800           0
     22125 MEMB     99       POPI     H12Y     HAL2     0.900000E-01   1.00800           0
     22126 MEMB     99       POPI     C313     CTL2    -0.180000       12.0110           0
     22127 MEMB     99       POPI     H13X     HAL2     0.900000E-01   1.00800           0
     22128 MEMB     99       POPI     H13Y     HAL2     0.900000E-01   1.00800           0
     22129 MEMB     99       POPI     C314     CTL2    -0.180000       12.0110           0
     22130 MEMB     99       POPI     H14X     HAL2     0.900000E-01   1.00800           0
     22131 MEMB     99       POPI     H14Y     HAL2     0.900000E-01   1.00800           0
     22132 MEMB     99       POPI     C315     CTL2    -0.180000       12.0110           0
     22133 MEMB     99       POPI     H15X     HAL2     0.900000E-01   1.00800           0
     22134 MEMB     99       POPI     H15Y     HAL2     0.900000E-01   1.00800           0
     22135 MEMB     99       POPI     C316     CTL3    -0.270000       12.0110           0
     22136 MEMB     99       POPI     H16X     HAL3     0.900000E-01   1.00800           0
     22137 MEMB     99       POPI     H16Y     HAL3     0.900000E-01   1.00800           0
     22138 MEMB     99       POPI     H16Z     HAL3     0.900000E-01   1.00800           0
     22139 MEMB     100      POPI     C12      CC3161   0.140000       12.0110           0
     22140 MEMB     100      POPI     H2       HCA1     0.900000E-01   1.00800           0
     22141 MEMB     100      POPI     O2       OC311   -0.650000       15.9994           0
     22142 MEMB     100      POPI     HO2      HCP1     0.420000       1.00800           0
     22143 MEMB     100      POPI     C13      CC3161   0.140000       12.0110           0
     22144 MEMB     100      POPI     H3       HCA1     0.900000E-01   1.00800           0
     22145 MEMB     100      POPI     O3       OC311   -0.650000       15.9994           0
     22146 MEMB     100      POPI     HO3      HCP1     0.420000       1.00800           0
     22147 MEMB     100      POPI     C14      CC3161   0.140000       12.0110           0
     22148 MEMB     100      POPI     H4       HCA1     0.900000E-01   1.00800           0
     22149 MEMB     100      POPI     O4       OC311   -0.650000       15.9994           0
     22150 MEMB     100      POPI     HO4      HCP1     0.420000       1.00800           0
     22151 MEMB     100      POPI     C15      CC3161   0.140000       12.0110           0
     22152 MEMB     100      POPI     H5       HCA1     0.900000E-01   1.00800           0
     22153 MEMB     100      POPI     O5       OC311   -0.650000       15.9994           0
     22154 MEMB     100      POPI     HO5      HCP1     0.420000       1.00800           0
     22155 MEMB     100      POPI     C16      CC3161   0.140000       12.0110           0
     22156 MEMB     100      POPI     H6       HCA1     0.900000E-01   1.00800           0
     22157 MEMB     100      POPI     O6       OC311   -0.650000       15.9994           0
     22158 MEMB     100      POPI     HO6      HCP1     0.420000       1.00800           0
     22159 MEMB     100      POPI     C11      CC3161  -0.800000E-01   12.0110           0
     22160 MEMB     100      POPI     H1       HCA1     0.900000E-01   1.00800           0
     22161 MEMB     100      POPI     P        PL       1.590000       30.9740           0
     22162 MEMB     100      POPI     O13      O2L     -0.780000       15.9994           0
     22163 MEMB     100      POPI     O14      O2L     -0.780000       15.9994           0
     22164 MEMB     100      POPI     O12      OC30P   -0.570000       15.9994           0
     22165 MEMB     100      POPI     O11      OSLP    -0.570000       15.9994           0
     22166 MEMB     100      POPI     C1       CTL2    -0.800000E-01   12.0110           0
     22167 MEMB     100      POPI     HA       HAL2     0.900000E-01   1.00800           0
     22168 MEMB     100      POPI     HB       HAL2     0.900000E-01   1.00800           0
     22169 MEMB     100      POPI     C2       CTL1     0.170000       12.0110           0
     22170 MEMB     100      POPI     HS       HAL1     0.900000E-01   1.00800           0
     22171 MEMB     100      POPI     O21      OSL     -0.490000       15.9994           0
     22172 MEMB     100      POPI     C21      CL       0.900000       12.0110           0
     22173 MEMB     100      POPI     O22      OBL     -0.630000       15.9994           0
     22174 MEMB     100      POPI     C22      CTL2    -0.220000       12.0110           0
     22175 MEMB     100      POPI     H2R      HAL2     0.900000E-01   1.00800           0
     22176 MEMB     100      POPI     H2S      HAL2     0.900000E-01   1.00800           0
     22177 MEMB     100      POPI     C3       CTL2     0.800000E-01   12.0110           0
     22178 MEMB     100      POPI     HX       HAL2     0.900000E-01   1.00800           0
     22179 MEMB     100      POPI     HY       HAL2     0.900000E-01   1.00800           0
     22180 MEMB     100      POPI     O31      OSL     -0.490000       15.9994           0
     22181 MEMB     100      POPI     C31      CL       0.900000       12.0110           0
     22182 MEMB     100      POPI     O32      OBL     -0.630000       15.9994           0
     22183 MEMB     100      POPI     C32      CTL2    -0.220000       12.0110           0
     22184 MEMB     100      POPI     H2X      HAL2     0.900000E-01   1.00800           0
     22185 MEMB     100      POPI     H2Y      HAL2     0.900000E-01   1.00800           0
     22186 MEMB     100      POPI     C23      CTL2    -0.180000       12.0110           0
     22187 MEMB     100      POPI     H3R      HAL2     0.900000E-01   1.00800           0
     22188 MEMB     100      POPI     H3S      HAL2     0.900000E-01   1.00800           0
     22189 MEMB     100      POPI     C24      CTL2    -0.180000       12.0110           0
     22190 MEMB     100      POPI     H4R      HAL2     0.900000E-01   1.00800           0
     22191 MEMB     100      POPI     H4S      HAL2     0.900000E-01   1.00800           0
     22192 MEMB     100      POPI     C25      CTL2    -0.180000       12.0110           0
     22193 MEMB     100      POPI     H5R      HAL2     0.900000E-01   1.00800           0
     22194 MEMB     100      POPI     H5S      HAL2     0.900000E-01   1.00800           0
     22195 MEMB     100      POPI     C26      CTL2    -0.180000       12.0110           0
     22196 MEMB     100      POPI     H6R      HAL2     0.900000E-01   1.00800           0
     22197 MEMB     100      POPI     H6S      HAL2     0.900000E-01   1.00800           0
     22198 MEMB     100      POPI     C27      CTL2    -0.180000       12.0110           0
     22199 MEMB     100      POPI     H7R      HAL2     0.900000E-01   1.00800           0
     22200 MEMB     100      POPI     H7S      HAL2     0.900000E-01   1.00800           0
     22201 MEMB     100      POPI     C28      CTL2    -0.180000       12.0110           0
     22202 MEMB     100      POPI     H8R      HAL2     0.900000E-01   1.00800           0
     22203 MEMB     100      POPI     H8S      HAL2     0.900000E-01   1.00800           0
     22204 MEMB     100      POPI     C29      CEL1    -0.150000       12.0110           0
     22205 MEMB     100      POPI     H91      HEL1     0.150000       1.00800           0
     22206 MEMB     100      POPI     C210     CEL1    -0.150000       12.0110           0
     22207 MEMB     100      POPI     H101     HEL1     0.150000       1.00800           0
     22208 MEMB     100      POPI     C211     CTL2    -0.180000       12.0110           0
     22209 MEMB     100      POPI     H11R     HAL2     0.900000E-01   1.00800           0
     22210 MEMB     100      POPI     H11S     HAL2     0.900000E-01   1.00800           0
     22211 MEMB     100      POPI     C212     CTL2    -0.180000       12.0110           0
     22212 MEMB     100      POPI     H12R     HAL2     0.900000E-01   1.00800           0
     22213 MEMB     100      POPI     H12S     HAL2     0.900000E-01   1.00800           0
     22214 MEMB     100      POPI     C213     CTL2    -0.180000       12.0110           0
     22215 MEMB     100      POPI     H13R     HAL2     0.900000E-01   1.00800           0
     22216 MEMB     100      POPI     H13S     HAL2     0.900000E-01   1.00800           0
     22217 MEMB     100      POPI     C214     CTL2    -0.180000       12.0110           0
     22218 MEMB     100      POPI     H14R     HAL2     0.900000E-01   1.00800           0
     22219 MEMB     100      POPI     H14S     HAL2     0.900000E-01   1.00800           0
     22220 MEMB     100      POPI     C215     CTL2    -0.180000       12.0110           0
     22221 MEMB     100      POPI     H15R     HAL2     0.900000E-01   1.00800           0
     22222 MEMB     100      POPI     H15S     HAL2     0.900000E-01   1.00800           0
     22223 MEMB     100      POPI     C216     CTL2    -0.180000       12.0110           0
     22224 MEMB     100      POPI     H16R     HAL2     0.900000E-01   1.00800           0
     22225 MEMB     100      POPI     H16S     HAL2     0.900000E-01   1.00800           0
     22226 MEMB     100      POPI     C217     CTL2    -0.180000       12.0110           0
     22227 MEMB     100      POPI     H17R     HAL2     0.900000E-01   1.00800           0
     22228 MEMB     100      POPI     H17S     HAL2     0.900000E-01   1.00800           0
     22229 MEMB     100      POPI     C218     CTL3    -0.270000       12.0110           0
     22230 MEMB     100      POPI     H18R     HAL3     0.900000E-01   1.00800           0
     22231 MEMB     100      POPI     H18S     HAL3     0.900000E-01   1.00800           0
     22232 MEMB     100      POPI     H18T     HAL3     0.900000E-01   1.00800           0
     22233 MEMB     100      POPI     C33      CTL2    -0.180000       12.0110           0
     22234 MEMB     100      POPI     H3X      HAL2     0.900000E-01   1.00800           0
     22235 MEMB     100      POPI     H3Y      HAL2     0.900000E-01   1.00800           0
     22236 MEMB     100      POPI     C34      CTL2    -0.180000       12.0110           0
     22237 MEMB     100      POPI     H4X      HAL2     0.900000E-01   1.00800           0
     22238 MEMB     100      POPI     H4Y      HAL2     0.900000E-01   1.00800           0
     22239 MEMB     100      POPI     C35      CTL2    -0.180000       12.0110           0
     22240 MEMB     100      POPI     H5X      HAL2     0.900000E-01   1.00800           0
     22241 MEMB     100      POPI     H5Y      HAL2     0.900000E-01   1.00800           0
     22242 MEMB     100      POPI     C36      CTL2    -0.180000       12.0110           0
     22243 MEMB     100      POPI     H6X      HAL2     0.900000E-01   1.00800           0
     22244 MEMB     100      POPI     H6Y      HAL2     0.900000E-01   1.00800           0
     22245 MEMB     100      POPI     C37      CTL2    -0.180000       12.0110           0
     22246 MEMB     100      POPI     H7X      HAL2     0.900000E-01   1.00800           0
     22247 MEMB     100      POPI     H7Y      HAL2     0.900000E-01   1.00800           0
     22248 MEMB     100      POPI     C38      CTL2    -0.180000       12.0110           0
     22249 MEMB     100      POPI     H8X      HAL2     0.900000E-01   1.00800           0
     22250 MEMB     100      POPI     H8Y      HAL2     0.900000E-01   1.00800           0
     22251 MEMB     100      POPI     C39      CTL2    -0.180000       12.0110           0
     22252 MEMB     100      POPI     H9X      HAL2     0.900000E-01   1.00800           0
     22253 MEMB     100      POPI     H9Y      HAL2     0.900000E-01   1.00800           0
     22254 MEMB     100      POPI     C310     CTL2    -0.180000       12.0110           0
     22255 MEMB     100      POPI     H10X     HAL2     0.900000E-01   1.00800           0
     22256 MEMB     100      POPI     H10Y     HAL2     0.900000E-01   1.00800           0
     22257 MEMB     100      POPI     C311     CTL2    -0.180000       12.0110           0
     22258 MEMB     100      POPI     H11X     HAL2     0.900000E-01   1.00800           0
     22259 MEMB     100      POPI     H11Y     HAL2     0.900000E-01   1.00800           0
     22260 MEMB     100      POPI     C312     CTL2    -0.180000       12.0110           0
     22261 MEMB     100      POPI     H12X     HAL2     0.900000E-01   1.00800           0
     22262 MEMB     100      POPI     H12Y     HAL2     0.900000E-01   1.00800           0
     22263 MEMB     100      POPI     C313     CTL2    -0.180000       12.0110           0
     22264 MEMB     100      POPI     H13X     HAL2     0.900000E-01   1.00800           0
     22265 MEMB     100      POPI     H13Y     HAL2     0.900000E-01   1.00800           0
     22266 MEMB     100      POPI     C314     CTL2    -0.180000       12.0110           0
     22267 MEMB     100      POPI     H14X     HAL2     0.900000E-01   1.00800           0
     22268 MEMB     100      POPI     H14Y     HAL2     0.900000E-01   1.00800           0
     22269 MEMB     100      POPI     C315     CTL2    -0.180000       12.0110           0
     22270 MEMB     100      POPI     H15X     HAL2     0.900000E-01   1.00800           0
     22271 MEMB     100      POPI     H15Y     HAL2     0.900000E-01   1.00800           0
     22272 MEMB     100      POPI     C316     CTL3    -0.270000       12.0110           0
     22273 MEMB     100      POPI     H16X     HAL3     0.900000E-01   1.00800           0
     22274 MEMB     100      POPI     H16Y     HAL3     0.900000E-01   1.00800           0
     22275 MEMB     100      POPI     H16Z     HAL3     0.900000E-01   1.00800           0
     22276 MEMB     128      POPI     C12      CC3161   0.140000       12.0110           0
     22277 MEMB     128      POPI     H2       HCA1     0.900000E-01   1.00800           0
     22278 MEMB     128      POPI     O2       OC311   -0.650000       15.9994           0
     22279 MEMB     128      POPI     HO2      HCP1     0.420000       1.00800           0
     22280 MEMB     128      POPI     C13      CC3161   0.140000       12.0110           0
     22281 MEMB     128      POPI     H3       HCA1     0.900000E-01   1.00800           0
     22282 MEMB     128      POPI     O3       OC311   -0.650000       15.9994           0
     22283 MEMB     128      POPI     HO3      HCP1     0.420000       1.00800           0
     22284 MEMB     128      POPI     C14      CC3161   0.140000       12.0110           0
     22285 MEMB     128      POPI     H4       HCA1     0.900000E-01   1.00800           0
     22286 MEMB     128      POPI     O4       OC311   -0.650000       15.9994           0
     22287 MEMB     128      POPI     HO4      HCP1     0.420000       1.00800           0
     22288 MEMB     128      POPI     C15      CC3161   0.140000       12.0110           0
     22289 MEMB     128      POPI     H5       HCA1     0.900000E-01   1.00800           0
     22290 MEMB     128      POPI     O5       OC311   -0.650000       15.9994           0
     22291 MEMB     128      POPI     HO5      HCP1     0.420000       1.00800           0
     22292 MEMB     128      POPI     C16      CC3161   0.140000       12.0110           0
     22293 MEMB     128      POPI     H6       HCA1     0.900000E-01   1.00800           0
     22294 MEMB     128      POPI     O6       OC311   -0.650000       15.9994           0
     22295 MEMB     128      POPI     HO6      HCP1     0.420000       1.00800           0
     22296 MEMB     128      POPI     C11      CC3161  -0.800000E-01   12.0110           0
     22297 MEMB     128      POPI     H1       HCA1     0.900000E-01   1.00800           0
     22298 MEMB     128      POPI     P        PL       1.590000       30.9740           0
     22299 MEMB     128      POPI     O13      O2L     -0.780000       15.9994           0
     22300 MEMB     128      POPI     O14      O2L     -0.780000       15.9994           0
     22301 MEMB     128      POPI     O12      OC30P   -0.570000       15.9994           0
     22302 MEMB     128      POPI     O11      OSLP    -0.570000       15.9994           0
     22303 MEMB     128      POPI     C1       CTL2    -0.800000E-01   12.0110           0
     22304 MEMB     128      POPI     HA       HAL2     0.900000E-01   1.00800           0
     22305 MEMB     128      POPI     HB       HAL2     0.900000E-01   1.00800           0
     22306 MEMB     128      POPI     C2       CTL1     0.170000       12.0110           0
     22307 MEMB     128      POPI     HS       HAL1     0.900000E-01   1.00800           0
     22308 MEMB     128      POPI     O21      OSL     -0.490000       15.9994           0
     22309 MEMB     128      POPI     C21      CL       0.900000       12.0110           0
     22310 MEMB     128      POPI     O22      OBL     -0.630000       15.9994           0
     22311 MEMB     128      POPI     C22      CTL2    -0.220000       12.0110           0
     22312 MEMB     128      POPI     H2R      HAL2     0.900000E-01   1.00800           0
     22313 MEMB     128      POPI     H2S      HAL2     0.900000E-01   1.00800           0
     22314 MEMB     128      POPI     C3       CTL2     0.800000E-01   12.0110           0
     22315 MEMB     128      POPI     HX       HAL2     0.900000E-01   1.00800           0
     22316 MEMB     128      POPI     HY       HAL2     0.900000E-01   1.00800           0
     22317 MEMB     128      POPI     O31      OSL     -0.490000       15.9994           0
     22318 MEMB     128      POPI     C31      CL       0.900000       12.0110           0
     22319 MEMB     128      POPI     O32      OBL     -0.630000       15.9994           0
     22320 MEMB     128      POPI     C32      CTL2    -0.220000       12.0110           0
     22321 MEMB     128      POPI     H2X      HAL2     0.900000E-01   1.00800           0
     22322 MEMB     128      POPI     H2Y      HAL2     0.900000E-01   1.00800           0
     22323 MEMB     128      POPI     C23      CTL2    -0.180000       12.0110           0
     22324 MEMB     128      POPI     H3R      HAL2     0.900000E-01   1.00800           0
     22325 MEMB     128      POPI     H3S      HAL2     0.900000E-01   1.00800           0
     22326 MEMB     128      POPI     C24      CTL2    -0.180000       12.0110           0
     22327 MEMB     128      POPI     H4R      HAL2     0.900000E-01   1.00800           0
     22328 MEMB     128      POPI     H4S      HAL2     0.900000E-01   1.00800           0
     22329 MEMB     128      POPI     C25      CTL2    -0.180000       12.0110           0
     22330 MEMB     128      POPI     H5R      HAL2     0.900000E-01   1.00800           0
     22331 MEMB     128      POPI     H5S      HAL2     0.900000E-01   1.00800           0
     22332 MEMB     128      POPI     C26      CTL2    -0.180000       12.0110           0
     22333 MEMB     128      POPI     H6R      HAL2     0.900000E-01   1.00800           0
     22334 MEMB     128      POPI     H6S      HAL2     0.900000E-01   1.00800           0
     22335 MEMB     128      POPI     C27      CTL2    -0.180000       12.0110           0
     22336 MEMB     128      POPI     H7R      HAL2     0.900000E-01   1.00800           0
     22337 MEMB     128      POPI     H7S      HAL2     0.900000E-01   1.00800           0
     22338 MEMB     128      POPI     C28      CTL2    -0.180000       12.0110           0
     22339 MEMB     128      POPI     H8R      HAL2     0.900000E-01   1.00800           0
     22340 MEMB     128      POPI     H8S      HAL2     0.900000E-01   1.00800           0
     22341 MEMB     128      POPI     C29      CEL1    -0.150000       12.0110           0
     22342 MEMB     128      POPI     H91      HEL1     0.150000       1.00800           0
     22343 MEMB     128      POPI     C210     CEL1    -0.150000       12.0110           0
     22344 MEMB     128      POPI     H101     HEL1     0.150000       1.00800           0
     22345 MEMB     128      POPI     C211     CTL2    -0.180000       12.0110           0
     22346 MEMB     128      POPI     H11R     HAL2     0.900000E-01   1.00800           0
     22347 MEMB     128      POPI     H11S     HAL2     0.900000E-01   1.00800           0
     22348 MEMB     128      POPI     C212     CTL2    -0.180000       12.0110           0
     22349 MEMB     128      POPI     H12R     HAL2     0.900000E-01   1.00800           0
     22350 MEMB     128      POPI     H12S     HAL2     0.900000E-01   1.00800           0
     22351 MEMB     128      POPI     C213     CTL2    -0.180000       12.0110           0
     22352 MEMB     128      POPI     H13R     HAL2     0.900000E-01   1.00800           0
     22353 MEMB     128      POPI     H13S     HAL2     0.900000E-01   1.00800           0
     22354 MEMB     128      POPI     C214     CTL2    -0.180000       12.0110           0
     22355 MEMB     128      POPI     H14R     HAL2     0.900000E-01   1.00800           0
     22356 MEMB     128      POPI     H14S     HAL2     0.900000E-01   1.00800           0
     22357 MEMB     128      POPI     C215     CTL2    -0.180000       12.0110           0
     22358 MEMB     128      POPI     H15R     HAL2     0.900000E-01   1.00800           0
     22359 MEMB     128      POPI     H15S     HAL2     0.900000E-01   1.00800           0
     22360 MEMB     128      POPI     C216     CTL2    -0.180000       12.0110           0
     22361 MEMB     128      POPI     H16R     HAL2     0.900000E-01   1.00800           0
     22362 MEMB     128      POPI     H16S     HAL2     0.900000E-01   1.00800           0
     22363 MEMB     128      POPI     C217     CTL2    -0.180000       12.0110           0
     22364 MEMB     128      POPI     H17R     HAL2     0.900000E-01   1.00800           0
     22365 MEMB     128      POPI     H17S     HAL2     0.900000E-01   1.00800           0
     22366 MEMB     128      POPI     C218     CTL3    -0.270000       12.0110           0
     22367 MEMB     128      POPI     H18R     HAL3     0.900000E-01   1.00800           0
     22368 MEMB     128      POPI     H18S     HAL3     0.900000E-01   1.00800           0
     22369 MEMB     128      POPI     H18T     HAL3     0.900000E-01   1.00800           0
     22370 MEMB     128      POPI     C33      CTL2    -0.180000       12.0110           0
     22371 MEMB     128      POPI     H3X      HAL2     0.900000E-01   1.00800           0
     22372 MEMB     128      POPI     H3Y      HAL2     0.900000E-01   1.00800           0
     22373 MEMB     128      POPI     C34      CTL2    -0.180000       12.0110           0
     22374 MEMB     128      POPI     H4X      HAL2     0.900000E-01   1.00800           0
     22375 MEMB     128      POPI     H4Y      HAL2     0.900000E-01   1.00800           0
     22376 MEMB     128      POPI     C35      CTL2    -0.180000       12.0110           0
     22377 MEMB     128      POPI     H5X      HAL2     0.900000E-01   1.00800           0
     22378 MEMB     128      POPI     H5Y      HAL2     0.900000E-01   1.00800           0
     22379 MEMB     128      POPI     C36      CTL2    -0.180000       12.0110           0
     22380 MEMB     128      POPI     H6X      HAL2     0.900000E-01   1.00800           0
     22381 MEMB     128      POPI     H6Y      HAL2     0.900000E-01   1.00800           0
     22382 MEMB     128      POPI     C37      CTL2    -0.180000       12.0110           0
     22383 MEMB     128      POPI     H7X      HAL2     0.900000E-01   1.00800           0
     22384 MEMB     128      POPI     H7Y      HAL2     0.900000E-01   1.00800           0
     22385 MEMB     128      POPI     C38      CTL2    -0.180000       12.0110           0
     22386 MEMB     128      POPI     H8X      HAL2     0.900000E-01   1.00800           0
     22387 MEMB     128      POPI     H8Y      HAL2     0.900000E-01   1.00800           0
     22388 MEMB     128      POPI     C39      CTL2    -0.180000       12.0110           0
     22389 MEMB     128      POPI     H9X      HAL2     0.900000E-01   1.00800           0
     22390 MEMB     128      POPI     H9Y      HAL2     0.900000E-01   1.00800           0
     22391 MEMB     128      POPI     C310     CTL2    -0.180000       12.0110           0
     22392 MEMB     128      POPI     H10X     HAL2     0.900000E-01   1.00800           0
     22393 MEMB     128      POPI     H10Y     HAL2     0.900000E-01   1.00800           0
     22394 MEMB     128      POPI     C311     CTL2    -0.180000       12.0110           0
     22395 MEMB     128      POPI     H11X     HAL2     0.900000E-01   1.00800           0
     22396 MEMB     128      POPI     H11Y     HAL2     0.900000E-01   1.00800           0
     22397 MEMB     128      POPI     C312     CTL2    -0.180000       12.0110           0
     22398 MEMB     128      POPI     H12X     HAL2     0.900000E-01   1.00800           0
     22399 MEMB     128      POPI     H12Y     HAL2     0.900000E-01   1.00800           0
     22400 MEMB     128      POPI     C313     CTL2    -0.180000       12.0110           0
     22401 MEMB     128      POPI     H13X     HAL2     0.900000E-01   1.00800           0
     22402 MEMB     128      POPI     H13Y     HAL2     0.900000E-01   1.00800           0
     22403 MEMB     128      POPI     C314     CTL2    -0.180000       12.0110           0
     22404 MEMB     128      POPI     H14X     HAL2     0.900000E-01   1.00800           0
     22405 MEMB     128      POPI     H14Y     HAL2     0.900000E-01   1.00800           0
     22406 MEMB     128      POPI     C315     CTL2    -0.180000       12.0110           0
     22407 MEMB     128      POPI     H15X     HAL2     0.900000E-01   1.00800           0
     22408 MEMB     128      POPI     H15Y     HAL2     0.900000E-01   1.00800           0
     22409 MEMB     128      POPI     C316     CTL3    -0.270000       12.0110           0
     22410 MEMB     128      POPI     H16X     HAL3     0.900000E-01   1.00800           0
     22411 MEMB     128      POPI     H16Y     HAL3     0.900000E-01   1.00800           0
     22412 MEMB     128      POPI     H16Z     HAL3     0.900000E-01   1.00800           0
     22413 MEMB     137      POPI     C12      CC3161   0.140000       12.0110           0
     22414 MEMB     137      POPI     H2       HCA1     0.900000E-01   1.00800           0
     22415 MEMB     137      POPI     O2       OC311   -0.650000       15.9994           0
     22416 MEMB     137      POPI     HO2      HCP1     0.420000       1.00800           0
     22417 MEMB     137      POPI     C13      CC3161   0.140000       12.0110           0
     22418 MEMB     137      POPI     H3       HCA1     0.900000E-01   1.00800           0
     22419 MEMB     137      POPI     O3       OC311   -0.650000       15.9994           0
     22420 MEMB     137      POPI     HO3      HCP1     0.420000       1.00800           0
     22421 MEMB     137      POPI     C14      CC3161   0.140000       12.0110           0
     22422 MEMB     137      POPI     H4       HCA1     0.900000E-01   1.00800           0
     22423 MEMB     137      POPI     O4       OC311   -0.650000       15.9994           0
     22424 MEMB     137      POPI     HO4      HCP1     0.420000       1.00800           0
     22425 MEMB     137      POPI     C15      CC3161   0.140000       12.0110           0
     22426 MEMB     137      POPI     H5       HCA1     0.900000E-01   1.00800           0
     22427 MEMB     137      POPI     O5       OC311   -0.650000       15.9994           0
     22428 MEMB     137      POPI     HO5      HCP1     0.420000       1.00800           0
     22429 MEMB     137      POPI     C16      CC3161   0.140000       12.0110           0
     22430 MEMB     137      POPI     H6       HCA1     0.900000E-01   1.00800           0
     22431 MEMB     137      POPI     O6       OC311   -0.650000       15.9994           0
     22432 MEMB     137      POPI     HO6      HCP1     0.420000       1.00800           0
     22433 MEMB     137      POPI     C11      CC3161  -0.800000E-01   12.0110           0
     22434 MEMB     137      POPI     H1       HCA1     0.900000E-01   1.00800           0
     22435 MEMB     137      POPI     P        PL       1.590000       30.9740           0
     22436 MEMB     137      POPI     O13      O2L     -0.780000       15.9994           0
     22437 MEMB     137      POPI     O14      O2L     -0.780000       15.9994           0
     22438 MEMB     137      POPI     O12      OC30P   -0.570000       15.9994           0
     22439 MEMB     137      POPI     O11      OSLP    -0.570000       15.9994           0
     22440 MEMB     137      POPI     C1       CTL2    -0.800000E-01   12.0110           0
     22441 MEMB     137      POPI     HA       HAL2     0.900000E-01   1.00800           0
     22442 MEMB     137      POPI     HB       HAL2     0.900000E-01   1.00800           0
     22443 MEMB     137      POPI     C2       CTL1     0.170000       12.0110           0
     22444 MEMB     137      POPI     HS       HAL1     0.900000E-01   1.00800           0
     22445 MEMB     137      POPI     O21      OSL     -0.490000       15.9994           0
     22446 MEMB     137      POPI     C21      CL       0.900000       12.0110           0
     22447 MEMB     137      POPI     O22      OBL     -0.630000       15.9994           0
     22448 MEMB     137      POPI     C22      CTL2    -0.220000       12.0110           0
     22449 MEMB     137      POPI     H2R      HAL2     0.900000E-01   1.00800           0
     22450 MEMB     137      POPI     H2S      HAL2     0.900000E-01   1.00800           0
     22451 MEMB     137      POPI     C3       CTL2     0.800000E-01   12.0110           0
     22452 MEMB     137      POPI     HX       HAL2     0.900000E-01   1.00800           0
     22453 MEMB     137      POPI     HY       HAL2     0.900000E-01   1.00800           0
     22454 MEMB     137      POPI     O31      OSL     -0.490000       15.9994           0
     22455 MEMB     137      POPI     C31      CL       0.900000       12.0110           0
     22456 MEMB     137      POPI     O32      OBL     -0.630000       15.9994           0
     22457 MEMB     137      POPI     C32      CTL2    -0.220000       12.0110           0
     22458 MEMB     137      POPI     H2X      HAL2     0.900000E-01   1.00800           0
     22459 MEMB     137      POPI     H2Y      HAL2     0.900000E-01   1.00800           0
     22460 MEMB     137      POPI     C23      CTL2    -0.180000       12.0110           0
     22461 MEMB     137      POPI     H3R      HAL2     0.900000E-01   1.00800           0
     22462 MEMB     137      POPI     H3S      HAL2     0.900000E-01   1.00800           0
     22463 MEMB     137      POPI     C24      CTL2    -0.180000       12.0110           0
     22464 MEMB     137      POPI     H4R      HAL2     0.900000E-01   1.00800           0
     22465 MEMB     137      POPI     H4S      HAL2     0.900000E-01   1.00800           0
     22466 MEMB     137      POPI     C25      CTL2    -0.180000       12.0110           0
     22467 MEMB     137      POPI     H5R      HAL2     0.900000E-01   1.00800           0
     22468 MEMB     137      POPI     H5S      HAL2     0.900000E-01   1.00800           0
     22469 MEMB     137      POPI     C26      CTL2    -0.180000       12.0110           0
     22470 MEMB     137      POPI     H6R      HAL2     0.900000E-01   1.00800           0
     22471 MEMB     137      POPI     H6S      HAL2     0.900000E-01   1.00800           0
     22472 MEMB     137      POPI     C27      CTL2    -0.180000       12.0110           0
     22473 MEMB     137      POPI     H7R      HAL2     0.900000E-01   1.00800           0
     22474 MEMB     137      POPI     H7S      HAL2     0.900000E-01   1.00800           0
     22475 MEMB     137      POPI     C28      CTL2    -0.180000       12.0110           0
     22476 MEMB     137      POPI     H8R      HAL2     0.900000E-01   1.00800           0
     22477 MEMB     137      POPI     H8S      HAL2     0.900000E-01   1.00800           0
     22478 MEMB     137      POPI     C29      CEL1    -0.150000       12.0110           0
     22479 MEMB     137      POPI     H91      HEL1     0.150000       1.00800           0
     22480 MEMB     137      POPI     C210     CEL1    -0.150000       12.0110           0
     22481 MEMB     137      POPI     H101     HEL1     0.150000       1.00800           0
     22482 MEMB     137      POPI     C211     CTL2    -0.180000       12.0110           0
     22483 MEMB     137      POPI     H11R     HAL2     0.900000E-01   1.00800           0
     22484 MEMB     137      POPI     H11S     HAL2     0.900000E-01   1.00800           0
     22485 MEMB     137      POPI     C212     CTL2    -0.180000       12.0110           0
     22486 MEMB     137      POPI     H12R     HAL2     0.900000E-01   1.00800           0
     22487 MEMB     137      POPI     H12S     HAL2     0.900000E-01   1.00800           0
     22488 MEMB     137      POPI     C213     CTL2    -0.180000       12.0110           0
     22489 MEMB     137      POPI     H13R     HAL2     0.900000E-01   1.00800           0
     22490 MEMB     137      POPI     H13S     HAL2     0.900000E-01   1.00800           0
     22491 MEMB     137      POPI     C214     CTL2    -0.180000       12.0110           0
     22492 MEMB     137      POPI     H14R     HAL2     0.900000E-01   1.00800           0
     22493 MEMB     137      POPI     H14S     HAL2     0.900000E-01   1.00800           0
     22494 MEMB     137      POPI     C215     CTL2    -0.180000       12.0110           0
     22495 MEMB     137      POPI     H15R     HAL2     0.900000E-01   1.00800           0
     22496 MEMB     137      POPI     H15S     HAL2     0.900000E-01   1.00800           0
     22497 MEMB     137      POPI     C216     CTL2    -0.180000       12.0110           0
     22498 MEMB     137      POPI     H16R     HAL2     0.900000E-01   1.00800           0
     22499 MEMB     137      POPI     H16S     HAL2     0.900000E-01   1.00800           0
     22500 MEMB     137      POPI     C217     CTL2    -0.180000       12.0110           0
     22501 MEMB     137      POPI     H17R     HAL2     0.900000E-01   1.00800           0
     22502 MEMB     137      POPI     H17S     HAL2     0.900000E-01   1.00800           0
     22503 MEMB     137      POPI     C218     CTL3    -0.270000       12.0110           0
     22504 MEMB     137      POPI     H18R     HAL3     0.900000E-01   1.00800           0
     22505 MEMB     137      POPI     H18S     HAL3     0.900000E-01   1.00800           0
     22506 MEMB     137      POPI     H18T     HAL3     0.900000E-01   1.00800           0
     22507 MEMB     137      POPI     C33      CTL2    -0.180000       12.0110           0
     22508 MEMB     137      POPI     H3X      HAL2     0.900000E-01   1.00800           0
     22509 MEMB     137      POPI     H3Y      HAL2     0.900000E-01   1.00800           0
     22510 MEMB     137      POPI     C34      CTL2    -0.180000       12.0110           0
     22511 MEMB     137      POPI     H4X      HAL2     0.900000E-01   1.00800           0
     22512 MEMB     137      POPI     H4Y      HAL2     0.900000E-01   1.00800           0
     22513 MEMB     137      POPI     C35      CTL2    -0.180000       12.0110           0
     22514 MEMB     137      POPI     H5X      HAL2     0.900000E-01   1.00800           0
     22515 MEMB     137      POPI     H5Y      HAL2     0.900000E-01   1.00800           0
     22516 MEMB     137      POPI     C36      CTL2    -0.180000       12.0110           0
     22517 MEMB     137      POPI     H6X      HAL2     0.900000E-01   1.00800           0
     22518 MEMB     137      POPI     H6Y      HAL2     0.900000E-01   1.00800           0
     22519 MEMB     137      POPI     C37      CTL2    -0.180000       12.0110           0
     22520 MEMB     137      POPI     H7X      HAL2     0.900000E-01   1.00800           0
     22521 MEMB     137      POPI     H7Y      HAL2     0.900000E-01   1.00800           0
     22522 MEMB     137      POPI     C38      CTL2    -0.180000       12.0110           0
     22523 MEMB     137      POPI     H8X      HAL2     0.900000E-01   1.00800           0
     22524 MEMB     137      POPI     H8Y      HAL2     0.900000E-01   1.00800           0
     22525 MEMB     137      POPI     C39      CTL2    -0.180000       12.0110           0
     22526 MEMB     137      POPI     H9X      HAL2     0.900000E-01   1.00800           0
     22527 MEMB     137      POPI     H9Y      HAL2     0.900000E-01   1.00800           0
     22528 MEMB     137      POPI     C310     CTL2    -0.180000       12.0110           0
     22529 MEMB     137      POPI     H10X     HAL2     0.900000E-01   1.00800           0
     22530 MEMB     137      POPI     H10Y     HAL2     0.900000E-01   1.00800           0
     22531 MEMB     137      POPI     C311     CTL2    -0.180000       12.0110           0
     22532 MEMB     137      POPI     H11X     HAL2     0.900000E-01   1.00800           0
     22533 MEMB     137      POPI     H11Y     HAL2     0.900000E-01   1.00800           0
     22534 MEMB     137      POPI     C312     CTL2    -0.180000       12.0110           0
     22535 MEMB     137      POPI     H12X     HAL2     0.900000E-01   1.00800           0
     22536 MEMB     137      POPI     H12Y     HAL2     0.900000E-01   1.00800           0
     22537 MEMB     137      POPI     C313     CTL2    -0.180000       12.0110           0
     22538 MEMB     137      POPI     H13X     HAL2     0.900000E-01   1.00800           0
     22539 MEMB     137      POPI     H13Y     HAL2     0.900000E-01   1.00800           0
     22540 MEMB     137      POPI     C314     CTL2    -0.180000       12.0110           0
     22541 MEMB     137      POPI     H14X     HAL2     0.900000E-01   1.00800           0
     22542 MEMB     137      POPI     H14Y     HAL2     0.900000E-01   1.00800           0
     22543 MEMB     137      POPI     C315     CTL2    -0.180000       12.0110           0
     22544 MEMB     137      POPI     H15X     HAL2     0.900000E-01   1.00800           0
     22545 MEMB     137      POPI     H15Y     HAL2     0.900000E-01   1.00800           0
     22546 MEMB     137      POPI     C316     CTL3    -0.270000       12.0110           0
     22547 MEMB     137      POPI     H16X     HAL3     0.900000E-01   1.00800           0
     22548 MEMB     137      POPI     H16Y     HAL3     0.900000E-01   1.00800           0
     22549 MEMB     137      POPI     H16Z     HAL3     0.900000E-01   1.00800           0
     22550 MEMB     138      POPI     C12      CC3161   0.140000       12.0110           0
     22551 MEMB     138      POPI     H2       HCA1     0.900000E-01   1.00800           0
     22552 MEMB     138      POPI     O2       OC311   -0.650000       15.9994           0
     22553 MEMB     138      POPI     HO2      HCP1     0.420000       1.00800           0
     22554 MEMB     138      POPI     C13      CC3161   0.140000       12.0110           0
     22555 MEMB     138      POPI     H3       HCA1     0.900000E-01   1.00800           0
     22556 MEMB     138      POPI     O3       OC311   -0.650000       15.9994           0
     22557 MEMB     138      POPI     HO3      HCP1     0.420000       1.00800           0
     22558 MEMB     138      POPI     C14      CC3161   0.140000       12.0110           0
     22559 MEMB     138      POPI     H4       HCA1     0.900000E-01   1.00800           0
     22560 MEMB     138      POPI     O4       OC311   -0.650000       15.9994           0
     22561 MEMB     138      POPI     HO4      HCP1     0.420000       1.00800           0
     22562 MEMB     138      POPI     C15      CC3161   0.140000       12.0110           0
     22563 MEMB     138      POPI     H5       HCA1     0.900000E-01   1.00800           0
     22564 MEMB     138      POPI     O5       OC311   -0.650000       15.9994           0
     22565 MEMB     138      POPI     HO5      HCP1     0.420000       1.00800           0
     22566 MEMB     138      POPI     C16      CC3161   0.140000       12.0110           0
     22567 MEMB     138      POPI     H6       HCA1     0.900000E-01   1.00800           0
     22568 MEMB     138      POPI     O6       OC311   -0.650000       15.9994           0
     22569 MEMB     138      POPI     HO6      HCP1     0.420000       1.00800           0
     22570 MEMB     138      POPI     C11      CC3161  -0.800000E-01   12.0110           0
     22571 MEMB     138      POPI     H1       HCA1     0.900000E-01   1.00800           0
     22572 MEMB     138      POPI     P        PL       1.590000       30.9740           0
     22573 MEMB     138      POPI     O13      O2L     -0.780000       15.9994           0
     22574 MEMB     138      POPI     O14      O2L     -0.780000       15.9994           0
     22575 MEMB     138      POPI     O12      OC30P   -0.570000       15.9994           0
     22576 MEMB     138      POPI     O11      OSLP    -0.570000       15.9994           0
     22577 MEMB     138      POPI     C1       CTL2    -0.800000E-01   12.0110           0
     22578 MEMB     138      POPI     HA       HAL2     0.900000E-01   1.00800           0
     22579 MEMB     138      POPI     HB       HAL2     0.900000E-01   1.00800           0
     22580 MEMB     138      POPI     C2       CTL1     0.170000       12.0110           0
     22581 MEMB     138      POPI     HS       HAL1     0.900000E-01   1.00800           0
     22582 MEMB     138      POPI     O21      OSL     -0.490000       15.9994           0
     22583 MEMB     138      POPI     C21      CL       0.900000       12.0110           0
     22584 MEMB     138      POPI     O22      OBL     -0.630000       15.9994           0
     22585 MEMB     138      POPI     C22      CTL2    -0.220000       12.0110           0
     22586 MEMB     138      POPI     H2R      HAL2     0.900000E-01   1.00800           0
     22587 MEMB     138      POPI     H2S      HAL2     0.900000E-01   1.00800           0
     22588 MEMB     138      POPI     C3       CTL2     0.800000E-01   12.0110           0
     22589 MEMB     138      POPI     HX       HAL2     0.900000E-01   1.00800           0
     22590 MEMB     138      POPI     HY       HAL2     0.900000E-01   1.00800           0
     22591 MEMB     138      POPI     O31      OSL     -0.490000       15.9994           0
     22592 MEMB     138      POPI     C31      CL       0.900000       12.0110           0
     22593 MEMB     138      POPI     O32      OBL     -0.630000       15.9994           0
     22594 MEMB     138      POPI     C32      CTL2    -0.220000       12.0110           0
     22595 MEMB     138      POPI     H2X      HAL2     0.900000E-01   1.00800           0
     22596 MEMB     138      POPI     H2Y      HAL2     0.900000E-01   1.00800           0
     22597 MEMB     138      POPI     C23      CTL2    -0.180000       12.0110           0
     22598 MEMB     138      POPI     H3R      HAL2     0.900000E-01   1.00800           0
     22599 MEMB     138      POPI     H3S      HAL2     0.900000E-01   1.00800           0
     22600 MEMB     138      POPI     C24      CTL2    -0.180000       12.0110           0
     22601 MEMB     138      POPI     H4R      HAL2     0.900000E-01   1.00800           0
     22602 MEMB     138      POPI     H4S      HAL2     0.900000E-01   1.00800           0
     22603 MEMB     138      POPI     C25      CTL2    -0.180000       12.0110           0
     22604 MEMB     138      POPI     H5R      HAL2     0.900000E-01   1.00800           0
     22605 MEMB     138      POPI     H5S      HAL2     0.900000E-01   1.00800           0
     22606 MEMB     138      POPI     C26      CTL2    -0.180000       12.0110           0
     22607 MEMB     138      POPI     H6R      HAL2     0.900000E-01   1.00800           0
     22608 MEMB     138      POPI     H6S      HAL2     0.900000E-01   1.00800           0
     22609 MEMB     138      POPI     C27      CTL2    -0.180000       12.0110           0
     22610 MEMB     138      POPI     H7R      HAL2     0.900000E-01   1.00800           0
     22611 MEMB     138      POPI     H7S      HAL2     0.900000E-01   1.00800           0
     22612 MEMB     138      POPI     C28      CTL2    -0.180000       12.0110           0
     22613 MEMB     138      POPI     H8R      HAL2     0.900000E-01   1.00800           0
     22614 MEMB     138      POPI     H8S      HAL2     0.900000E-01   1.00800           0
     22615 MEMB     138      POPI     C29      CEL1    -0.150000       12.0110           0
     22616 MEMB     138      POPI     H91      HEL1     0.150000       1.00800           0
     22617 MEMB     138      POPI     C210     CEL1    -0.150000       12.0110           0
     22618 MEMB     138      POPI     H101     HEL1     0.150000       1.00800           0
     22619 MEMB     138      POPI     C211     CTL2    -0.180000       12.0110           0
     22620 MEMB     138      POPI     H11R     HAL2     0.900000E-01   1.00800           0
     22621 MEMB     138      POPI     H11S     HAL2     0.900000E-01   1.00800           0
     22622 MEMB     138      POPI     C212     CTL2    -0.180000       12.0110           0
     22623 MEMB     138      POPI     H12R     HAL2     0.900000E-01   1.00800           0
     22624 MEMB     138      POPI     H12S     HAL2     0.900000E-01   1.00800           0
     22625 MEMB     138      POPI     C213     CTL2    -0.180000       12.0110           0
     22626 MEMB     138      POPI     H13R     HAL2     0.900000E-01   1.00800           0
     22627 MEMB     138      POPI     H13S     HAL2     0.900000E-01   1.00800           0
     22628 MEMB     138      POPI     C214     CTL2    -0.180000       12.0110           0
     22629 MEMB     138      POPI     H14R     HAL2     0.900000E-01   1.00800           0
     22630 MEMB     138      POPI     H14S     HAL2     0.900000E-01   1.00800           0
     22631 MEMB     138      POPI     C215     CTL2    -0.180000       12.0110           0
     22632 MEMB     138      POPI     H15R     HAL2     0.900000E-01   1.00800           0
     22633 MEMB     138      POPI     H15S     HAL2     0.900000E-01   1.00800           0
     22634 MEMB     138      POPI     C216     CTL2    -0.180000       12.0110           0
     22635 MEMB     138      POPI     H16R     HAL2     0.900000E-01   1.00800           0
     22636 MEMB     138      POPI     H16S     HAL2     0.900000E-01   1.00800           0
     22637 MEMB     138      POPI     C217     CTL2    -0.180000       12.0110           0
     22638 MEMB     138      POPI     H17R     HAL2     0.900000E-01   1.00800           0
     22639 MEMB     138      POPI     H17S     HAL2     0.900000E-01   1.00800           0
     22640 MEMB     138      POPI     C218     CTL3    -0.270000       12.0110           0
     22641 MEMB     138      POPI     H18R     HAL3     0.900000E-01   1.00800           0
     22642 MEMB     138      POPI     H18S     HAL3     0.900000E-01   1.00800           0
     22643 MEMB     138      POPI     H18T     HAL3     0.900000E-01   1.00800           0
     22644 MEMB     138      POPI     C33      CTL2    -0.180000       12.0110           0
     22645 MEMB     138      POPI     H3X      HAL2     0.900000E-01   1.00800           0
     22646 MEMB     138      POPI     H3Y      HAL2     0.900000E-01   1.00800           0
     22647 MEMB     138      POPI     C34      CTL2    -0.180000       12.0110           0
     22648 MEMB     138      POPI     H4X      HAL2     0.900000E-01   1.00800           0
     22649 MEMB     138      POPI     H4Y      HAL2     0.900000E-01   1.00800           0
     22650 MEMB     138      POPI     C35      CTL2    -0.180000       12.0110           0
     22651 MEMB     138      POPI     H5X      HAL2     0.900000E-01   1.00800           0
     22652 MEMB     138      POPI     H5Y      HAL2     0.900000E-01   1.00800           0
     22653 MEMB     138      POPI     C36      CTL2    -0.180000       12.0110           0
     22654 MEMB     138      POPI     H6X      HAL2     0.900000E-01   1.00800           0
     22655 MEMB     138      POPI     H6Y      HAL2     0.900000E-01   1.00800           0
     22656 MEMB     138      POPI     C37      CTL2    -0.180000       12.0110           0
     22657 MEMB     138      POPI     H7X      HAL2     0.900000E-01   1.00800           0
     22658 MEMB     138      POPI     H7Y      HAL2     0.900000E-01   1.00800           0
     22659 MEMB     138      POPI     C38      CTL2    -0.180000       12.0110           0
     22660 MEMB     138      POPI     H8X      HAL2     0.900000E-01   1.00800           0
     22661 MEMB     138      POPI     H8Y      HAL2     0.900000E-01   1.00800           0
     22662 MEMB     138      POPI     C39      CTL2    -0.180000       12.0110           0
     22663 MEMB     138      POPI     H9X      HAL2     0.900000E-01   1.00800           0
     22664 MEMB     138      POPI     H9Y      HAL2     0.900000E-01   1.00800           0
     22665 MEMB     138      POPI     C310     CTL2    -0.180000       12.0110           0
     22666 MEMB     138      POPI     H10X     HAL2     0.900000E-01   1.00800           0
     22667 MEMB     138      POPI     H10Y     HAL2     0.900000E-01   1.00800           0
     22668 MEMB     138      POPI     C311     CTL2    -0.180000       12.0110           0
     22669 MEMB     138      POPI     H11X     HAL2     0.900000E-01   1.00800           0
     22670 MEMB     138      POPI     H11Y     HAL2     0.900000E-01   1.00800           0
     22671 MEMB     138      POPI     C312     CTL2    -0.180000       12.0110           0
     22672 MEMB     138      POPI     H12X     HAL2     0.900000E-01   1.00800           0
     22673 MEMB     138      POPI     H12Y     HAL2     0.900000E-01   1.00800           0
     22674 MEMB     138      POPI     C313     CTL2    -0.180000       12.0110           0
     22675 MEMB     138      POPI     H13X     HAL2     0.900000E-01   1.00800           0
     22676 MEMB     138      POPI     H13Y     HAL2     0.900000E-01   1.00800           0
     22677 MEMB     138      POPI     C314     CTL2    -0.180000       12.0110           0
     22678 MEMB     138      POPI     H14X     HAL2     0.900000E-01   1.00800           0
     22679 MEMB     138      POPI     H14Y     HAL2     0.900000E-01   1.00800           0
     22680 MEMB     138      POPI     C315     CTL2    -0.180000       12.0110           0
     22681 MEMB     138      POPI     H15X     HAL2     0.900000E-01   1.00800           0
     22682 MEMB     138      POPI     H15Y     HAL2     0.900000E-01   1.00800           0
     22683 MEMB     138      POPI     C316     CTL3    -0.270000       12.0110           0
     22684 MEMB     138      POPI     H16X     HAL3     0.900000E-01   1.00800           0
     22685 MEMB     138      POPI     H16Y     HAL3     0.900000E-01   1.00800           0
     22686 MEMB     138      POPI     H16Z     HAL3     0.900000E-01   1.00800           0
     22687 MEMB     190      POPI     C12      CC3161   0.140000       12.0110           0
     22688 MEMB     190      POPI     H2       HCA1     0.900000E-01   1.00800           0
     22689 MEMB     190      POPI     O2       OC311   -0.650000       15.9994           0
     22690 MEMB     190      POPI     HO2      HCP1     0.420000       1.00800           0
     22691 MEMB     190      POPI     C13      CC3161   0.140000       12.0110           0
     22692 MEMB     190      POPI     H3       HCA1     0.900000E-01   1.00800           0
     22693 MEMB     190      POPI     O3       OC311   -0.650000       15.9994           0
     22694 MEMB     190      POPI     HO3      HCP1     0.420000       1.00800           0
     22695 MEMB     190      POPI     C14      CC3161   0.140000       12.0110           0
     22696 MEMB     190      POPI     H4       HCA1     0.900000E-01   1.00800           0
     22697 MEMB     190      POPI     O4       OC311   -0.650000       15.9994           0
     22698 MEMB     190      POPI     HO4      HCP1     0.420000       1.00800           0
     22699 MEMB     190      POPI     C15      CC3161   0.140000       12.0110           0
     22700 MEMB     190      POPI     H5       HCA1     0.900000E-01   1.00800           0
     22701 MEMB     190      POPI     O5       OC311   -0.650000       15.9994           0
     22702 MEMB     190      POPI     HO5      HCP1     0.420000       1.00800           0
     22703 MEMB     190      POPI     C16      CC3161   0.140000       12.0110           0
     22704 MEMB     190      POPI     H6       HCA1     0.900000E-01   1.00800           0
     22705 MEMB     190      POPI     O6       OC311   -0.650000       15.9994           0
     22706 MEMB     190      POPI     HO6      HCP1     0.420000       1.00800           0
     22707 MEMB     190      POPI     C11      CC3161  -0.800000E-01   12.0110           0
     22708 MEMB     190      POPI     H1       HCA1     0.900000E-01   1.00800           0
     22709 MEMB     190      POPI     P        PL       1.590000       30.9740           0
     22710 MEMB     190      POPI     O13      O2L     -0.780000       15.9994           0
     22711 MEMB     190      POPI     O14      O2L     -0.780000       15.9994           0
     22712 MEMB     190      POPI     O12      OC30P   -0.570000       15.9994           0
     22713 MEMB     190      POPI     O11      OSLP    -0.570000       15.9994           0
     22714 MEMB     190      POPI     C1       CTL2    -0.800000E-01   12.0110           0
     22715 MEMB     190      POPI     HA       HAL2     0.900000E-01   1.00800           0
     22716 MEMB     190      POPI     HB       HAL2     0.900000E-01   1.00800           0
     22717 MEMB     190      POPI     C2       CTL1     0.170000       12.0110           0
     22718 MEMB     190      POPI     HS       HAL1     0.900000E-01   1.00800           0
     22719 MEMB     190      POPI     O21      OSL     -0.490000       15.9994           0
     22720 MEMB     190      POPI     C21      CL       0.900000       12.0110           0
     22721 MEMB     190      POPI     O22      OBL     -0.630000       15.9994           0
     22722 MEMB     190      POPI     C22      CTL2    -0.220000       12.0110           0
     22723 MEMB     190      POPI     H2R      HAL2     0.900000E-01   1.00800           0
     22724 MEMB     190      POPI     H2S      HAL2     0.900000E-01   1.00800           0
     22725 MEMB     190      POPI     C3       CTL2     0.800000E-01   12.0110           0
     22726 MEMB     190      POPI     HX       HAL2     0.900000E-01   1.00800           0
     22727 MEMB     190      POPI     HY       HAL2     0.900000E-01   1.00800           0
     22728 MEMB     190      POPI     O31      OSL     -0.490000       15.9994           0
     22729 MEMB     190      POPI     C31      CL       0.900000       12.0110           0
     22730 MEMB     190      POPI     O32      OBL     -0.630000       15.9994           0
     22731 MEMB     190      POPI     C32      CTL2    -0.220000       12.0110           0
     22732 MEMB     190      POPI     H2X      HAL2     0.900000E-01   1.00800           0
     22733 MEMB     190      POPI     H2Y      HAL2     0.900000E-01   1.00800           0
     22734 MEMB     190      POPI     C23      CTL2    -0.180000       12.0110           0
     22735 MEMB     190      POPI     H3R      HAL2     0.900000E-01   1.00800           0
     22736 MEMB     190      POPI     H3S      HAL2     0.900000E-01   1.00800           0
     22737 MEMB     190      POPI     C24      CTL2    -0.180000       12.0110           0
     22738 MEMB     190      POPI     H4R      HAL2     0.900000E-01   1.00800           0
     22739 MEMB     190      POPI     H4S      HAL2     0.900000E-01   1.00800           0
     22740 MEMB     190      POPI     C25      CTL2    -0.180000       12.0110           0
     22741 MEMB     190      POPI     H5R      HAL2     0.900000E-01   1.00800           0
     22742 MEMB     190      POPI     H5S      HAL2     0.900000E-01   1.00800           0
     22743 MEMB     190      POPI     C26      CTL2    -0.180000       12.0110           0
     22744 MEMB     190      POPI     H6R      HAL2     0.900000E-01   1.00800           0
     22745 MEMB     190      POPI     H6S      HAL2     0.900000E-01   1.00800           0
     22746 MEMB     190      POPI     C27      CTL2    -0.180000       12.0110           0
     22747 MEMB     190      POPI     H7R      HAL2     0.900000E-01   1.00800           0
     22748 MEMB     190      POPI     H7S      HAL2     0.900000E-01   1.00800           0
     22749 MEMB     190      POPI     C28      CTL2    -0.180000       12.0110           0
     22750 MEMB     190      POPI     H8R      HAL2     0.900000E-01   1.00800           0
     22751 MEMB     190      POPI     H8S      HAL2     0.900000E-01   1.00800           0
     22752 MEMB     190      POPI     C29      CEL1    -0.150000       12.0110           0
     22753 MEMB     190      POPI     H91      HEL1     0.150000       1.00800           0
     22754 MEMB     190      POPI     C210     CEL1    -0.150000       12.0110           0
     22755 MEMB     190      POPI     H101     HEL1     0.150000       1.00800           0
     22756 MEMB     190      POPI     C211     CTL2    -0.180000       12.0110           0
     22757 MEMB     190      POPI     H11R     HAL2     0.900000E-01   1.00800           0
     22758 MEMB     190      POPI     H11S     HAL2     0.900000E-01   1.00800           0
     22759 MEMB     190      POPI     C212     CTL2    -0.180000       12.0110           0
     22760 MEMB     190      POPI     H12R     HAL2     0.900000E-01   1.00800           0
     22761 MEMB     190      POPI     H12S     HAL2     0.900000E-01   1.00800           0
     22762 MEMB     190      POPI     C213     CTL2    -0.180000       12.0110           0
     22763 MEMB     190      POPI     H13R     HAL2     0.900000E-01   1.00800           0
     22764 MEMB     190      POPI     H13S     HAL2     0.900000E-01   1.00800           0
     22765 MEMB     190      POPI     C214     CTL2    -0.180000       12.0110           0
     22766 MEMB     190      POPI     H14R     HAL2     0.900000E-01   1.00800           0
     22767 MEMB     190      POPI     H14S     HAL2     0.900000E-01   1.00800           0
     22768 MEMB     190      POPI     C215     CTL2    -0.180000       12.0110           0
     22769 MEMB     190      POPI     H15R     HAL2     0.900000E-01   1.00800           0
     22770 MEMB     190      POPI     H15S     HAL2     0.900000E-01   1.00800           0
     22771 MEMB     190      POPI     C216     CTL2    -0.180000       12.0110           0
     22772 MEMB     190      POPI     H16R     HAL2     0.900000E-01   1.00800           0
     22773 MEMB     190      POPI     H16S     HAL2     0.900000E-01   1.00800           0
     22774 MEMB     190      POPI     C217     CTL2    -0.180000       12.0110           0
     22775 MEMB     190      POPI     H17R     HAL2     0.900000E-01   1.00800           0
     22776 MEMB     190      POPI     H17S     HAL2     0.900000E-01   1.00800           0
     22777 MEMB     190      POPI     C218     CTL3    -0.270000       12.0110           0
     22778 MEMB     190      POPI     H18R     HAL3     0.900000E-01   1.00800           0
     22779 MEMB     190      POPI     H18S     HAL3     0.900000E-01   1.00800           0
     22780 MEMB     190      POPI     H18T     HAL3     0.900000E-01   1.00800           0
     22781 MEMB     190      POPI     C33      CTL2    -0.180000       12.0110           0
     22782 MEMB     190      POPI     H3X      HAL2     0.900000E-01   1.00800           0
     22783 MEMB     190      POPI     H3Y      HAL2     0.900000E-01   1.00800           0
     22784 MEMB     190      POPI     C34      CTL2    -0.180000       12.0110           0
     22785 MEMB     190      POPI     H4X      HAL2     0.900000E-01   1.00800           0
     22786 MEMB     190      POPI     H4Y      HAL2     0.900000E-01   1.00800           0
     22787 MEMB     190      POPI     C35      CTL2    -0.180000       12.0110           0
     22788 MEMB     190      POPI     H5X      HAL2     0.900000E-01   1.00800           0
     22789 MEMB     190      POPI     H5Y      HAL2     0.900000E-01   1.00800           0
     22790 MEMB     190      POPI     C36      CTL2    -0.180000       12.0110           0
     22791 MEMB     190      POPI     H6X      HAL2     0.900000E-01   1.00800           0
     22792 MEMB     190      POPI     H6Y      HAL2     0.900000E-01   1.00800           0
     22793 MEMB     190      POPI     C37      CTL2    -0.180000       12.0110           0
     22794 MEMB     190      POPI     H7X      HAL2     0.900000E-01   1.00800           0
     22795 MEMB     190      POPI     H7Y      HAL2     0.900000E-01   1.00800           0
     22796 MEMB     190      POPI     C38      CTL2    -0.180000       12.0110           0
     22797 MEMB     190      POPI     H8X      HAL2     0.900000E-01   1.00800           0
     22798 MEMB     190      POPI     H8Y      HAL2     0.900000E-01   1.00800           0
     22799 MEMB     190      POPI     C39      CTL2    -0.180000       12.0110           0
     22800 MEMB     190      POPI     H9X      HAL2     0.900000E-01   1.00800           0
     22801 MEMB     190      POPI     H9Y      HAL2     0.900000E-01   1.00800           0
     22802 MEMB     190      POPI     C310     CTL2    -0.180000       12.0110           0
     22803 MEMB     190      POPI     H10X     HAL2     0.900000E-01   1.00800           0
     22804 MEMB     190      POPI     H10Y     HAL2     0.900000E-01   1.00800           0
     22805 MEMB     190      POPI     C311     CTL2    -0.180000       12.0110           0
     22806 MEMB     190      POPI     H11X     HAL2     0.900000E-01   1.00800           0
     22807 MEMB     190      POPI     H11Y     HAL2     0.900000E-01   1.00800           0
     22808 MEMB     190      POPI     C312     CTL2    -0.180000       12.0110           0
     22809 MEMB     190      POPI     H12X     HAL2     0.900000E-01   1.00800           0
     22810 MEMB     190      POPI     H12Y     HAL2     0.900000E-01   1.00800           0
     22811 MEMB     190      POPI     C313     CTL2    -0.180000       12.0110           0
     22812 MEMB     190      POPI     H13X     HAL2     0.900000E-01   1.00800           0
     22813 MEMB     190      POPI     H13Y     HAL2     0.900000E-01   1.00800           0
     22814 MEMB     190      POPI     C314     CTL2    -0.180000       12.0110           0
     22815 MEMB     190      POPI     H14X     HAL2     0.900000E-01   1.00800           0
     22816 MEMB     190      POPI     H14Y     HAL2     0.900000E-01   1.00800           0
     22817 MEMB     190      POPI     C315     CTL2    -0.180000       12.0110           0
     22818 MEMB     190      POPI     H15X     HAL2     0.900000E-01   1.00800           0
     22819 MEMB     190      POPI     H15Y     HAL2     0.900000E-01   1.00800           0
     22820 MEMB     190      POPI     C316     CTL3    -0.270000       12.0110           0
     22821 MEMB     190      POPI     H16X     HAL3     0.900000E-01   1.00800           0
     22822 MEMB     190      POPI     H16Y     HAL3     0.900000E-01   1.00800           0
     22823 MEMB     190      POPI     H16Z     HAL3     0.900000E-01   1.00800           0
     22824 MEMB     200      POPI     C12      CC3161   0.140000       12.0110           0
     22825 MEMB     200      POPI     H2       HCA1     0.900000E-01   1.00800           0
     22826 MEMB     200      POPI     O2       OC311   -0.650000       15.9994           0
     22827 MEMB     200      POPI     HO2      HCP1     0.420000       1.00800           0
     22828 MEMB     200      POPI     C13      CC3161   0.140000       12.0110           0
     22829 MEMB     200      POPI     H3       HCA1     0.900000E-01   1.00800           0
     22830 MEMB     200      POPI     O3       OC311   -0.650000       15.9994           0
     22831 MEMB     200      POPI     HO3      HCP1     0.420000       1.00800           0
     22832 MEMB     200      POPI     C14      CC3161   0.140000       12.0110           0
     22833 MEMB     200      POPI     H4       HCA1     0.900000E-01   1.00800           0
     22834 MEMB     200      POPI     O4       OC311   -0.650000       15.9994           0
     22835 MEMB     200      POPI     HO4      HCP1     0.420000       1.00800           0
     22836 MEMB     200      POPI     C15      CC3161   0.140000       12.0110           0
     22837 MEMB     200      POPI     H5       HCA1     0.900000E-01   1.00800           0
     22838 MEMB     200      POPI     O5       OC311   -0.650000       15.9994           0
     22839 MEMB     200      POPI     HO5      HCP1     0.420000       1.00800           0
     22840 MEMB     200      POPI     C16      CC3161   0.140000       12.0110           0
     22841 MEMB     200      POPI     H6       HCA1     0.900000E-01   1.00800           0
     22842 MEMB     200      POPI     O6       OC311   -0.650000       15.9994           0
     22843 MEMB     200      POPI     HO6      HCP1     0.420000       1.00800           0
     22844 MEMB     200      POPI     C11      CC3161  -0.800000E-01   12.0110           0
     22845 MEMB     200      POPI     H1       HCA1     0.900000E-01   1.00800           0
     22846 MEMB     200      POPI     P        PL       1.590000       30.9740           0
     22847 MEMB     200      POPI     O13      O2L     -0.780000       15.9994           0
     22848 MEMB     200      POPI     O14      O2L     -0.780000       15.9994           0
     22849 MEMB     200      POPI     O12      OC30P   -0.570000       15.9994           0
     22850 MEMB     200      POPI     O11      OSLP    -0.570000       15.9994           0
     22851 MEMB     200      POPI     C1       CTL2    -0.800000E-01   12.0110           0
     22852 MEMB     200      POPI     HA       HAL2     0.900000E-01   1.00800           0
     22853 MEMB     200      POPI     HB       HAL2     0.900000E-01   1.00800           0
     22854 MEMB     200      POPI     C2       CTL1     0.170000       12.0110           0
     22855 MEMB     200      POPI     HS       HAL1     0.900000E-01   1.00800           0
     22856 MEMB     200      POPI     O21      OSL     -0.490000       15.9994           0
     22857 MEMB     200      POPI     C21      CL       0.900000       12.0110           0
     22858 MEMB     200      POPI     O22      OBL     -0.630000       15.9994           0
     22859 MEMB     200      POPI     C22      CTL2    -0.220000       12.0110           0
     22860 MEMB     200      POPI     H2R      HAL2     0.900000E-01   1.00800           0
     22861 MEMB     200      POPI     H2S      HAL2     0.900000E-01   1.00800           0
     22862 MEMB     200      POPI     C3       CTL2     0.800000E-01   12.0110           0
     22863 MEMB     200      POPI     HX       HAL2     0.900000E-01   1.00800           0
     22864 MEMB     200      POPI     HY       HAL2     0.900000E-01   1.00800           0
     22865 MEMB     200      POPI     O31      OSL     -0.490000       15.9994           0
     22866 MEMB     200      POPI     C31      CL       0.900000       12.0110           0
     22867 MEMB     200      POPI     O32      OBL     -0.630000       15.9994           0
     22868 MEMB     200      POPI     C32      CTL2    -0.220000       12.0110           0
     22869 MEMB     200      POPI     H2X      HAL2     0.900000E-01   1.00800           0
     22870 MEMB     200      POPI     H2Y      HAL2     0.900000E-01   1.00800           0
     22871 MEMB     200      POPI     C23      CTL2    -0.180000       12.0110           0
     22872 MEMB     200      POPI     H3R      HAL2     0.900000E-01   1.00800           0
     22873 MEMB     200      POPI     H3S      HAL2     0.900000E-01   1.00800           0
     22874 MEMB     200      POPI     C24      CTL2    -0.180000       12.0110           0
     22875 MEMB     200      POPI     H4R      HAL2     0.900000E-01   1.00800           0
     22876 MEMB     200      POPI     H4S      HAL2     0.900000E-01   1.00800           0
     22877 MEMB     200      POPI     C25      CTL2    -0.180000       12.0110           0
     22878 MEMB     200      POPI     H5R      HAL2     0.900000E-01   1.00800           0
     22879 MEMB     200      POPI     H5S      HAL2     0.900000E-01   1.00800           0
     22880 MEMB     200      POPI     C26      CTL2    -0.180000       12.0110           0
     22881 MEMB     200      POPI     H6R      HAL2     0.900000E-01   1.00800           0
     22882 MEMB     200      POPI     H6S      HAL2     0.900000E-01   1.00800           0
     22883 MEMB     200      POPI     C27      CTL2    -0.180000       12.0110           0
     22884 MEMB     200      POPI     H7R      HAL2     0.900000E-01   1.00800           0
     22885 MEMB     200      POPI     H7S      HAL2     0.900000E-01   1.00800           0
     22886 MEMB     200      POPI     C28      CTL2    -0.180000       12.0110           0
     22887 MEMB     200      POPI     H8R      HAL2     0.900000E-01   1.00800           0
     22888 MEMB     200      POPI     H8S      HAL2     0.900000E-01   1.00800           0
     22889 MEMB     200      POPI     C29      CEL1    -0.150000       12.0110           0
     22890 MEMB     200      POPI     H91      HEL1     0.150000       1.00800           0
     22891 MEMB     200      POPI     C210     CEL1    -0.150000       12.0110           0
     22892 MEMB     200      POPI     H101     HEL1     0.150000       1.00800           0
     22893 MEMB     200      POPI     C211     CTL2    -0.180000       12.0110           0
     22894 MEMB     200      POPI     H11R     HAL2     0.900000E-01   1.00800           0
     22895 MEMB     200      POPI     H11S     HAL2     0.900000E-01   1.00800           0
     22896 MEMB     200      POPI     C212     CTL2    -0.180000       12.0110           0
     22897 MEMB     200      POPI     H12R     HAL2     0.900000E-01   1.00800           0
     22898 MEMB     200      POPI     H12S     HAL2     0.900000E-01   1.00800           0
     22899 MEMB     200      POPI     C213     CTL2    -0.180000       12.0110           0
     22900 MEMB     200      POPI     H13R     HAL2     0.900000E-01   1.00800           0
     22901 MEMB     200      POPI     H13S     HAL2     0.900000E-01   1.00800           0
     22902 MEMB     200      POPI     C214     CTL2    -0.180000       12.0110           0
     22903 MEMB     200      POPI     H14R     HAL2     0.900000E-01   1.00800           0
     22904 MEMB     200      POPI     H14S     HAL2     0.900000E-01   1.00800           0
     22905 MEMB     200      POPI     C215     CTL2    -0.180000       12.0110           0
     22906 MEMB     200      POPI     H15R     HAL2     0.900000E-01   1.00800           0
     22907 MEMB     200      POPI     H15S     HAL2     0.900000E-01   1.00800           0
     22908 MEMB     200      POPI     C216     CTL2    -0.180000       12.0110           0
     22909 MEMB     200      POPI     H16R     HAL2     0.900000E-01   1.00800           0
     22910 MEMB     200      POPI     H16S     HAL2     0.900000E-01   1.00800           0
     22911 MEMB     200      POPI     C217     CTL2    -0.180000       12.0110           0
     22912 MEMB     200      POPI     H17R     HAL2     0.900000E-01   1.00800           0
     22913 MEMB     200      POPI     H17S     HAL2     0.900000E-01   1.00800           0
     22914 MEMB     200      POPI     C218     CTL3    -0.270000       12.0110           0
     22915 MEMB     200      POPI     H18R     HAL3     0.900000E-01   1.00800           0
     22916 MEMB     200      POPI     H18S     HAL3     0.900000E-01   1.00800           0
     22917 MEMB     200      POPI     H18T     HAL3     0.900000E-01   1.00800           0
     22918 MEMB     200      POPI     C33      CTL2    -0.180000       12.0110           0
     22919 MEMB     200      POPI     H3X      HAL2     0.900000E-01   1.00800           0
     22920 MEMB     200      POPI     H3Y      HAL2     0.900000E-01   1.00800           0
     22921 MEMB     200      POPI     C34      CTL2    -0.180000       12.0110           0
     22922 MEMB     200      POPI     H4X      HAL2     0.900000E-01   1.00800           0
     22923 MEMB     200      POPI     H4Y      HAL2     0.900000E-01   1.00800           0
     22924 MEMB     200      POPI     C35      CTL2    -0.180000       12.0110           0
     22925 MEMB     200      POPI     H5X      HAL2     0.900000E-01   1.00800           0
     22926 MEMB     200      POPI     H5Y      HAL2     0.900000E-01   1.00800           0
     22927 MEMB     200      POPI     C36      CTL2    -0.180000       12.0110           0
     22928 MEMB     200      POPI     H6X      HAL2     0.900000E-01   1.00800           0
     22929 MEMB     200      POPI     H6Y      HAL2     0.900000E-01   1.00800           0
     22930 MEMB     200      POPI     C37      CTL2    -0.180000       12.0110           0
     22931 MEMB     200      POPI     H7X      HAL2     0.900000E-01   1.00800           0
     22932 MEMB     200      POPI     H7Y      HAL2     0.900000E-01   1.00800           0
     22933 MEMB     200      POPI     C38      CTL2    -0.180000       12.0110           0
     22934 MEMB     200      POPI     H8X      HAL2     0.900000E-01   1.00800           0
     22935 MEMB     200      POPI     H8Y      HAL2     0.900000E-01   1.00800           0
     22936 MEMB     200      POPI     C39      CTL2    -0.180000       12.0110           0
     22937 MEMB     200      POPI     H9X      HAL2     0.900000E-01   1.00800           0
     22938 MEMB     200      POPI     H9Y      HAL2     0.900000E-01   1.00800           0
     22939 MEMB     200      POPI     C310     CTL2    -0.180000       12.0110           0
     22940 MEMB     200      POPI     H10X     HAL2     0.900000E-01   1.00800           0
     22941 MEMB     200      POPI     H10Y     HAL2     0.900000E-01   1.00800           0
     22942 MEMB     200      POPI     C311     CTL2    -0.180000       12.0110           0
     22943 MEMB     200      POPI     H11X     HAL2     0.900000E-01   1.00800           0
     22944 MEMB     200      POPI     H11Y     HAL2     0.900000E-01   1.00800           0
     22945 MEMB     200      POPI     C312     CTL2    -0.180000       12.0110           0
     22946 MEMB     200      POPI     H12X     HAL2     0.900000E-01   1.00800           0
     22947 MEMB     200      POPI     H12Y     HAL2     0.900000E-01   1.00800           0
     22948 MEMB     200      POPI     C313     CTL2    -0.180000       12.0110           0
     22949 MEMB     200      POPI     H13X     HAL2     0.900000E-01   1.00800           0
     22950 MEMB     200      POPI     H13Y     HAL2     0.900000E-01   1.00800           0
     22951 MEMB     200      POPI     C314     CTL2    -0.180000       12.0110           0
     22952 MEMB     200      POPI     H14X     HAL2     0.900000E-01   1.00800           0
     22953 MEMB     200      POPI     H14Y     HAL2     0.900000E-01   1.00800           0
     22954 MEMB     200      POPI     C315     CTL2    -0.180000       12.0110           0
     22955 MEMB     200      POPI     H15X     HAL2     0.900000E-01   1.00800           0
     22956 MEMB     200      POPI     H15Y     HAL2     0.900000E-01   1.00800           0
     22957 MEMB     200      POPI     C316     CTL3    -0.270000       12.0110           0
     22958 MEMB     200      POPI     H16X     HAL3     0.900000E-01   1.00800           0
     22959 MEMB     200      POPI     H16Y     HAL3     0.900000E-01   1.00800           0
     22960 MEMB     200      POPI     H16Z     HAL3     0.900000E-01   1.00800           0
     22961 MEMB     13       PSM      N        NTL     -0.600000       14.0070           0
     22962 MEMB     13       PSM      C15      CTL5    -0.350000       12.0110           0
     22963 MEMB     13       PSM      H15A     HL       0.250000       1.00800           0
     22964 MEMB     13       PSM      H15B     HL       0.250000       1.00800           0
     22965 MEMB     13       PSM      H15C     HL       0.250000       1.00800           0
     22966 MEMB     13       PSM      C14      CTL5    -0.350000       12.0110           0
     22967 MEMB     13       PSM      H14A     HL       0.250000       1.00800           0
     22968 MEMB     13       PSM      H14B     HL       0.250000       1.00800           0
     22969 MEMB     13       PSM      H14C     HL       0.250000       1.00800           0
     22970 MEMB     13       PSM      C13      CTL5    -0.350000       12.0110           0
     22971 MEMB     13       PSM      H13A     HL       0.250000       1.00800           0
     22972 MEMB     13       PSM      H13B     HL       0.250000       1.00800           0
     22973 MEMB     13       PSM      H13C     HL       0.250000       1.00800           0
     22974 MEMB     13       PSM      C12      CTL2    -0.100000       12.0110           0
     22975 MEMB     13       PSM      H12A     HL       0.250000       1.00800           0
     22976 MEMB     13       PSM      H12B     HL       0.250000       1.00800           0
     22977 MEMB     13       PSM      C11      CTL2    -0.800000E-01   12.0110           0
     22978 MEMB     13       PSM      H11A     HAL2     0.900000E-01   1.00800           0
     22979 MEMB     13       PSM      H11B     HAL2     0.900000E-01   1.00800           0
     22980 MEMB     13       PSM      P        PL       1.500000       30.9740           0
     22981 MEMB     13       PSM      O13      O2L     -0.780000       15.9994           0
     22982 MEMB     13       PSM      O14      O2L     -0.780000       15.9994           0
     22983 MEMB     13       PSM      O11      OSLP    -0.570000       15.9994           0
     22984 MEMB     13       PSM      O12      OSLP    -0.570000       15.9994           0
     22985 MEMB     13       PSM      C1S      CTL2    -0.800000E-01   12.0110           0
     22986 MEMB     13       PSM      H1S      HAL2     0.900000E-01   1.00800           0
     22987 MEMB     13       PSM      H1T      HAL2     0.900000E-01   1.00800           0
     22988 MEMB     13       PSM      NF       NHL     -0.700000       14.0070           0
     22989 MEMB     13       PSM      HNF      H        0.350000       1.00800           0
     22990 MEMB     13       PSM      C2S      CTL1     0.300000       12.0110           0
     22991 MEMB     13       PSM      H2S      HAL1     0.500000E-01   1.00800           0
     22992 MEMB     13       PSM      C3S      CTO1     0.500000       12.0110           0
     22993 MEMB     13       PSM      H3S      HAL1    -0.110000       1.00800           0
     22994 MEMB     13       PSM      O3       OHL     -0.690000       15.9994           0
     22995 MEMB     13       PSM      HO3      HOL      0.300000       1.00800           0
     22996 MEMB     13       PSM      C4S      CEL3    -0.150000       12.0110           0
     22997 MEMB     13       PSM      H4S      HEL1     0.150000       1.00800           0
     22998 MEMB     13       PSM      C5S      CEL3    -0.150000       12.0110           0
     22999 MEMB     13       PSM      H5S      HEL1     0.150000       1.00800           0
     23000 MEMB     13       PSM      C6S      CTL2    -0.180000       12.0110           0
     23001 MEMB     13       PSM      H6S      HAL2     0.900000E-01   1.00800           0
     23002 MEMB     13       PSM      H6T      HAL2     0.900000E-01   1.00800           0
     23003 MEMB     13       PSM      C7S      CTL2    -0.180000       12.0110           0
     23004 MEMB     13       PSM      H7S      HAL2     0.900000E-01   1.00800           0
     23005 MEMB     13       PSM      H7T      HAL2     0.900000E-01   1.00800           0
     23006 MEMB     13       PSM      C8S      CTL2    -0.180000       12.0110           0
     23007 MEMB     13       PSM      H8S      HAL2     0.900000E-01   1.00800           0
     23008 MEMB     13       PSM      H8T      HAL2     0.900000E-01   1.00800           0
     23009 MEMB     13       PSM      C9S      CTL2    -0.180000       12.0110           0
     23010 MEMB     13       PSM      H9S      HAL2     0.900000E-01   1.00800           0
     23011 MEMB     13       PSM      H9T      HAL2     0.900000E-01   1.00800           0
     23012 MEMB     13       PSM      C10S     CTL2    -0.180000       12.0110           0
     23013 MEMB     13       PSM      H10S     HAL2     0.900000E-01   1.00800           0
     23014 MEMB     13       PSM      H10T     HAL2     0.900000E-01   1.00800           0
     23015 MEMB     13       PSM      C11S     CTL2    -0.180000       12.0110           0
     23016 MEMB     13       PSM      H11S     HAL2     0.900000E-01   1.00800           0
     23017 MEMB     13       PSM      H11T     HAL2     0.900000E-01   1.00800           0
     23018 MEMB     13       PSM      C12S     CTL2    -0.180000       12.0110           0
     23019 MEMB     13       PSM      H12S     HAL2     0.900000E-01   1.00800           0
     23020 MEMB     13       PSM      H12T     HAL2     0.900000E-01   1.00800           0
     23021 MEMB     13       PSM      C13S     CTL2    -0.180000       12.0110           0
     23022 MEMB     13       PSM      H13S     HAL2     0.900000E-01   1.00800           0
     23023 MEMB     13       PSM      H13T     HAL2     0.900000E-01   1.00800           0
     23024 MEMB     13       PSM      C14S     CTL2    -0.180000       12.0110           0
     23025 MEMB     13       PSM      H14S     HAL2     0.900000E-01   1.00800           0
     23026 MEMB     13       PSM      H14T     HAL2     0.900000E-01   1.00800           0
     23027 MEMB     13       PSM      C15S     CTL2    -0.180000       12.0110           0
     23028 MEMB     13       PSM      H15S     HAL2     0.900000E-01   1.00800           0
     23029 MEMB     13       PSM      H15T     HAL2     0.900000E-01   1.00800           0
     23030 MEMB     13       PSM      C16S     CTL2    -0.180000       12.0110           0
     23031 MEMB     13       PSM      H16S     HAL2     0.900000E-01   1.00800           0
     23032 MEMB     13       PSM      H16T     HAL2     0.900000E-01   1.00800           0
     23033 MEMB     13       PSM      C17S     CTL2    -0.180000       12.0110           0
     23034 MEMB     13       PSM      H17S     HAL2     0.900000E-01   1.00800           0
     23035 MEMB     13       PSM      H17T     HAL2     0.900000E-01   1.00800           0
     23036 MEMB     13       PSM      C18S     CTL3    -0.270000       12.0110           0
     23037 MEMB     13       PSM      H18S     HAL3     0.900000E-01   1.00800           0
     23038 MEMB     13       PSM      H18T     HAL3     0.900000E-01   1.00800           0
     23039 MEMB     13       PSM      H18U     HAL3     0.900000E-01   1.00800           0
     23040 MEMB     13       PSM      C1F      C        0.550000       12.0110           0
     23041 MEMB     13       PSM      OF       O       -0.600000       15.9994           0
     23042 MEMB     13       PSM      C2F      CTL2    -0.700000E-01   12.0110           0
     23043 MEMB     13       PSM      H2F      HAL2     0.600000E-01   1.00800           0
     23044 MEMB     13       PSM      H2G      HAL2     0.600000E-01   1.00800           0
     23045 MEMB     13       PSM      C3F      CTL2    -0.180000       12.0110           0
     23046 MEMB     13       PSM      H3F      HAL2     0.900000E-01   1.00800           0
     23047 MEMB     13       PSM      H3G      HAL2     0.900000E-01   1.00800           0
     23048 MEMB     13       PSM      C4F      CTL2    -0.180000       12.0110           0
     23049 MEMB     13       PSM      H4F      HAL2     0.900000E-01   1.00800           0
     23050 MEMB     13       PSM      H4G      HAL2     0.900000E-01   1.00800           0
     23051 MEMB     13       PSM      C5F      CTL2    -0.180000       12.0110           0
     23052 MEMB     13       PSM      H5F      HAL2     0.900000E-01   1.00800           0
     23053 MEMB     13       PSM      H5G      HAL2     0.900000E-01   1.00800           0
     23054 MEMB     13       PSM      C6F      CTL2    -0.180000       12.0110           0
     23055 MEMB     13       PSM      H6F      HAL2     0.900000E-01   1.00800           0
     23056 MEMB     13       PSM      H6G      HAL2     0.900000E-01   1.00800           0
     23057 MEMB     13       PSM      C7F      CTL2    -0.180000       12.0110           0
     23058 MEMB     13       PSM      H7F      HAL2     0.900000E-01   1.00800           0
     23059 MEMB     13       PSM      H7G      HAL2     0.900000E-01   1.00800           0
     23060 MEMB     13       PSM      C8F      CTL2    -0.180000       12.0110           0
     23061 MEMB     13       PSM      H8F      HAL2     0.900000E-01   1.00800           0
     23062 MEMB     13       PSM      H8G      HAL2     0.900000E-01   1.00800           0
     23063 MEMB     13       PSM      C9F      CTL2    -0.180000       12.0110           0
     23064 MEMB     13       PSM      H9F      HAL2     0.900000E-01   1.00800           0
     23065 MEMB     13       PSM      H9G      HAL2     0.900000E-01   1.00800           0
     23066 MEMB     13       PSM      C10F     CTL2    -0.180000       12.0110           0
     23067 MEMB     13       PSM      H10F     HAL2     0.900000E-01   1.00800           0
     23068 MEMB     13       PSM      H10G     HAL2     0.900000E-01   1.00800           0
     23069 MEMB     13       PSM      C11F     CTL2    -0.180000       12.0110           0
     23070 MEMB     13       PSM      H11F     HAL2     0.900000E-01   1.00800           0
     23071 MEMB     13       PSM      H11G     HAL2     0.900000E-01   1.00800           0
     23072 MEMB     13       PSM      C12F     CTL2    -0.180000       12.0110           0
     23073 MEMB     13       PSM      H12F     HAL2     0.900000E-01   1.00800           0
     23074 MEMB     13       PSM      H12G     HAL2     0.900000E-01   1.00800           0
     23075 MEMB     13       PSM      C13F     CTL2    -0.180000       12.0110           0
     23076 MEMB     13       PSM      H13F     HAL2     0.900000E-01   1.00800           0
     23077 MEMB     13       PSM      H13G     HAL2     0.900000E-01   1.00800           0
     23078 MEMB     13       PSM      C14F     CTL2    -0.180000       12.0110           0
     23079 MEMB     13       PSM      H14F     HAL2     0.900000E-01   1.00800           0
     23080 MEMB     13       PSM      H14G     HAL2     0.900000E-01   1.00800           0
     23081 MEMB     13       PSM      C15F     CTL2    -0.180000       12.0110           0
     23082 MEMB     13       PSM      H15F     HAL2     0.900000E-01   1.00800           0
     23083 MEMB     13       PSM      H15G     HAL2     0.900000E-01   1.00800           0
     23084 MEMB     13       PSM      C16F     CTL3    -0.270000       12.0110           0
     23085 MEMB     13       PSM      H16F     HAL3     0.900000E-01   1.00800           0
     23086 MEMB     13       PSM      H16G     HAL3     0.900000E-01   1.00800           0
     23087 MEMB     13       PSM      H16H     HAL3     0.900000E-01   1.00800           0
     23088 MEMB     20       PSM      N        NTL     -0.600000       14.0070           0
     23089 MEMB     20       PSM      C15      CTL5    -0.350000       12.0110           0
     23090 MEMB     20       PSM      H15A     HL       0.250000       1.00800           0
     23091 MEMB     20       PSM      H15B     HL       0.250000       1.00800           0
     23092 MEMB     20       PSM      H15C     HL       0.250000       1.00800           0
     23093 MEMB     20       PSM      C14      CTL5    -0.350000       12.0110           0
     23094 MEMB     20       PSM      H14A     HL       0.250000       1.00800           0
     23095 MEMB     20       PSM      H14B     HL       0.250000       1.00800           0
     23096 MEMB     20       PSM      H14C     HL       0.250000       1.00800           0
     23097 MEMB     20       PSM      C13      CTL5    -0.350000       12.0110           0
     23098 MEMB     20       PSM      H13A     HL       0.250000       1.00800           0
     23099 MEMB     20       PSM      H13B     HL       0.250000       1.00800           0
     23100 MEMB     20       PSM      H13C     HL       0.250000       1.00800           0
     23101 MEMB     20       PSM      C12      CTL2    -0.100000       12.0110           0
     23102 MEMB     20       PSM      H12A     HL       0.250000       1.00800           0
     23103 MEMB     20       PSM      H12B     HL       0.250000       1.00800           0
     23104 MEMB     20       PSM      C11      CTL2    -0.800000E-01   12.0110           0
     23105 MEMB     20       PSM      H11A     HAL2     0.900000E-01   1.00800           0
     23106 MEMB     20       PSM      H11B     HAL2     0.900000E-01   1.00800           0
     23107 MEMB     20       PSM      P        PL       1.500000       30.9740           0
     23108 MEMB     20       PSM      O13      O2L     -0.780000       15.9994           0
     23109 MEMB     20       PSM      O14      O2L     -0.780000       15.9994           0
     23110 MEMB     20       PSM      O11      OSLP    -0.570000       15.9994           0
     23111 MEMB     20       PSM      O12      OSLP    -0.570000       15.9994           0
     23112 MEMB     20       PSM      C1S      CTL2    -0.800000E-01   12.0110           0
     23113 MEMB     20       PSM      H1S      HAL2     0.900000E-01   1.00800           0
     23114 MEMB     20       PSM      H1T      HAL2     0.900000E-01   1.00800           0
     23115 MEMB     20       PSM      NF       NHL     -0.700000       14.0070           0
     23116 MEMB     20       PSM      HNF      H        0.350000       1.00800           0
     23117 MEMB     20       PSM      C2S      CTL1     0.300000       12.0110           0
     23118 MEMB     20       PSM      H2S      HAL1     0.500000E-01   1.00800           0
     23119 MEMB     20       PSM      C3S      CTO1     0.500000       12.0110           0
     23120 MEMB     20       PSM      H3S      HAL1    -0.110000       1.00800           0
     23121 MEMB     20       PSM      O3       OHL     -0.690000       15.9994           0
     23122 MEMB     20       PSM      HO3      HOL      0.300000       1.00800           0
     23123 MEMB     20       PSM      C4S      CEL3    -0.150000       12.0110           0
     23124 MEMB     20       PSM      H4S      HEL1     0.150000       1.00800           0
     23125 MEMB     20       PSM      C5S      CEL3    -0.150000       12.0110           0
     23126 MEMB     20       PSM      H5S      HEL1     0.150000       1.00800           0
     23127 MEMB     20       PSM      C6S      CTL2    -0.180000       12.0110           0
     23128 MEMB     20       PSM      H6S      HAL2     0.900000E-01   1.00800           0
     23129 MEMB     20       PSM      H6T      HAL2     0.900000E-01   1.00800           0
     23130 MEMB     20       PSM      C7S      CTL2    -0.180000       12.0110           0
     23131 MEMB     20       PSM      H7S      HAL2     0.900000E-01   1.00800           0
     23132 MEMB     20       PSM      H7T      HAL2     0.900000E-01   1.00800           0
     23133 MEMB     20       PSM      C8S      CTL2    -0.180000       12.0110           0
     23134 MEMB     20       PSM      H8S      HAL2     0.900000E-01   1.00800           0
     23135 MEMB     20       PSM      H8T      HAL2     0.900000E-01   1.00800           0
     23136 MEMB     20       PSM      C9S      CTL2    -0.180000       12.0110           0
     23137 MEMB     20       PSM      H9S      HAL2     0.900000E-01   1.00800           0
     23138 MEMB     20       PSM      H9T      HAL2     0.900000E-01   1.00800           0
     23139 MEMB     20       PSM      C10S     CTL2    -0.180000       12.0110           0
     23140 MEMB     20       PSM      H10S     HAL2     0.900000E-01   1.00800           0
     23141 MEMB     20       PSM      H10T     HAL2     0.900000E-01   1.00800           0
     23142 MEMB     20       PSM      C11S     CTL2    -0.180000       12.0110           0
     23143 MEMB     20       PSM      H11S     HAL2     0.900000E-01   1.00800           0
     23144 MEMB     20       PSM      H11T     HAL2     0.900000E-01   1.00800           0
     23145 MEMB     20       PSM      C12S     CTL2    -0.180000       12.0110           0
     23146 MEMB     20       PSM      H12S     HAL2     0.900000E-01   1.00800           0
     23147 MEMB     20       PSM      H12T     HAL2     0.900000E-01   1.00800           0
     23148 MEMB     20       PSM      C13S     CTL2    -0.180000       12.0110           0
     23149 MEMB     20       PSM      H13S     HAL2     0.900000E-01   1.00800           0
     23150 MEMB     20       PSM      H13T     HAL2     0.900000E-01   1.00800           0
     23151 MEMB     20       PSM      C14S     CTL2    -0.180000       12.0110           0
     23152 MEMB     20       PSM      H14S     HAL2     0.900000E-01   1.00800           0
     23153 MEMB     20       PSM      H14T     HAL2     0.900000E-01   1.00800           0
     23154 MEMB     20       PSM      C15S     CTL2    -0.180000       12.0110           0
     23155 MEMB     20       PSM      H15S     HAL2     0.900000E-01   1.00800           0
     23156 MEMB     20       PSM      H15T     HAL2     0.900000E-01   1.00800           0
     23157 MEMB     20       PSM      C16S     CTL2    -0.180000       12.0110           0
     23158 MEMB     20       PSM      H16S     HAL2     0.900000E-01   1.00800           0
     23159 MEMB     20       PSM      H16T     HAL2     0.900000E-01   1.00800           0
     23160 MEMB     20       PSM      C17S     CTL2    -0.180000       12.0110           0
     23161 MEMB     20       PSM      H17S     HAL2     0.900000E-01   1.00800           0
     23162 MEMB     20       PSM      H17T     HAL2     0.900000E-01   1.00800           0
     23163 MEMB     20       PSM      C18S     CTL3    -0.270000       12.0110           0
     23164 MEMB     20       PSM      H18S     HAL3     0.900000E-01   1.00800           0
     23165 MEMB     20       PSM      H18T     HAL3     0.900000E-01   1.00800           0
     23166 MEMB     20       PSM      H18U     HAL3     0.900000E-01   1.00800           0
     23167 MEMB     20       PSM      C1F      C        0.550000       12.0110           0
     23168 MEMB     20       PSM      OF       O       -0.600000       15.9994           0
     23169 MEMB     20       PSM      C2F      CTL2    -0.700000E-01   12.0110           0
     23170 MEMB     20       PSM      H2F      HAL2     0.600000E-01   1.00800           0
     23171 MEMB     20       PSM      H2G      HAL2     0.600000E-01   1.00800           0
     23172 MEMB     20       PSM      C3F      CTL2    -0.180000       12.0110           0
     23173 MEMB     20       PSM      H3F      HAL2     0.900000E-01   1.00800           0
     23174 MEMB     20       PSM      H3G      HAL2     0.900000E-01   1.00800           0
     23175 MEMB     20       PSM      C4F      CTL2    -0.180000       12.0110           0
     23176 MEMB     20       PSM      H4F      HAL2     0.900000E-01   1.00800           0
     23177 MEMB     20       PSM      H4G      HAL2     0.900000E-01   1.00800           0
     23178 MEMB     20       PSM      C5F      CTL2    -0.180000       12.0110           0
     23179 MEMB     20       PSM      H5F      HAL2     0.900000E-01   1.00800           0
     23180 MEMB     20       PSM      H5G      HAL2     0.900000E-01   1.00800           0
     23181 MEMB     20       PSM      C6F      CTL2    -0.180000       12.0110           0
     23182 MEMB     20       PSM      H6F      HAL2     0.900000E-01   1.00800           0
     23183 MEMB     20       PSM      H6G      HAL2     0.900000E-01   1.00800           0
     23184 MEMB     20       PSM      C7F      CTL2    -0.180000       12.0110           0
     23185 MEMB     20       PSM      H7F      HAL2     0.900000E-01   1.00800           0
     23186 MEMB     20       PSM      H7G      HAL2     0.900000E-01   1.00800           0
     23187 MEMB     20       PSM      C8F      CTL2    -0.180000       12.0110           0
     23188 MEMB     20       PSM      H8F      HAL2     0.900000E-01   1.00800           0
     23189 MEMB     20       PSM      H8G      HAL2     0.900000E-01   1.00800           0
     23190 MEMB     20       PSM      C9F      CTL2    -0.180000       12.0110           0
     23191 MEMB     20       PSM      H9F      HAL2     0.900000E-01   1.00800           0
     23192 MEMB     20       PSM      H9G      HAL2     0.900000E-01   1.00800           0
     23193 MEMB     20       PSM      C10F     CTL2    -0.180000       12.0110           0
     23194 MEMB     20       PSM      H10F     HAL2     0.900000E-01   1.00800           0
     23195 MEMB     20       PSM      H10G     HAL2     0.900000E-01   1.00800           0
     23196 MEMB     20       PSM      C11F     CTL2    -0.180000       12.0110           0
     23197 MEMB     20       PSM      H11F     HAL2     0.900000E-01   1.00800           0
     23198 MEMB     20       PSM      H11G     HAL2     0.900000E-01   1.00800           0
     23199 MEMB     20       PSM      C12F     CTL2    -0.180000       12.0110           0
     23200 MEMB     20       PSM      H12F     HAL2     0.900000E-01   1.00800           0
     23201 MEMB     20       PSM      H12G     HAL2     0.900000E-01   1.00800           0
     23202 MEMB     20       PSM      C13F     CTL2    -0.180000       12.0110           0
     23203 MEMB     20       PSM      H13F     HAL2     0.900000E-01   1.00800           0
     23204 MEMB     20       PSM      H13G     HAL2     0.900000E-01   1.00800           0
     23205 MEMB     20       PSM      C14F     CTL2    -0.180000       12.0110           0
     23206 MEMB     20       PSM      H14F     HAL2     0.900000E-01   1.00800           0
     23207 MEMB     20       PSM      H14G     HAL2     0.900000E-01   1.00800           0
     23208 MEMB     20       PSM      C15F     CTL2    -0.180000       12.0110           0
     23209 MEMB     20       PSM      H15F     HAL2     0.900000E-01   1.00800           0
     23210 MEMB     20       PSM      H15G     HAL2     0.900000E-01   1.00800           0
     23211 MEMB     20       PSM      C16F     CTL3    -0.270000       12.0110           0
     23212 MEMB     20       PSM      H16F     HAL3     0.900000E-01   1.00800           0
     23213 MEMB     20       PSM      H16G     HAL3     0.900000E-01   1.00800           0
     23214 MEMB     20       PSM      H16H     HAL3     0.900000E-01   1.00800           0
     23215 MEMB     43       PSM      N        NTL     -0.600000       14.0070           0
     23216 MEMB     43       PSM      C15      CTL5    -0.350000       12.0110           0
     23217 MEMB     43       PSM      H15A     HL       0.250000       1.00800           0
     23218 MEMB     43       PSM      H15B     HL       0.250000       1.00800           0
     23219 MEMB     43       PSM      H15C     HL       0.250000       1.00800           0
     23220 MEMB     43       PSM      C14      CTL5    -0.350000       12.0110           0
     23221 MEMB     43       PSM      H14A     HL       0.250000       1.00800           0
     23222 MEMB     43       PSM      H14B     HL       0.250000       1.00800           0
     23223 MEMB     43       PSM      H14C     HL       0.250000       1.00800           0
     23224 MEMB     43       PSM      C13      CTL5    -0.350000       12.0110           0
     23225 MEMB     43       PSM      H13A     HL       0.250000       1.00800           0
     23226 MEMB     43       PSM      H13B     HL       0.250000       1.00800           0
     23227 MEMB     43       PSM      H13C     HL       0.250000       1.00800           0
     23228 MEMB     43       PSM      C12      CTL2    -0.100000       12.0110           0
     23229 MEMB     43       PSM      H12A     HL       0.250000       1.00800           0
     23230 MEMB     43       PSM      H12B     HL       0.250000       1.00800           0
     23231 MEMB     43       PSM      C11      CTL2    -0.800000E-01   12.0110           0
     23232 MEMB     43       PSM      H11A     HAL2     0.900000E-01   1.00800           0
     23233 MEMB     43       PSM      H11B     HAL2     0.900000E-01   1.00800           0
     23234 MEMB     43       PSM      P        PL       1.500000       30.9740           0
     23235 MEMB     43       PSM      O13      O2L     -0.780000       15.9994           0
     23236 MEMB     43       PSM      O14      O2L     -0.780000       15.9994           0
     23237 MEMB     43       PSM      O11      OSLP    -0.570000       15.9994           0
     23238 MEMB     43       PSM      O12      OSLP    -0.570000       15.9994           0
     23239 MEMB     43       PSM      C1S      CTL2    -0.800000E-01   12.0110           0
     23240 MEMB     43       PSM      H1S      HAL2     0.900000E-01   1.00800           0
     23241 MEMB     43       PSM      H1T      HAL2     0.900000E-01   1.00800           0
     23242 MEMB     43       PSM      NF       NHL     -0.700000       14.0070           0
     23243 MEMB     43       PSM      HNF      H        0.350000       1.00800           0
     23244 MEMB     43       PSM      C2S      CTL1     0.300000       12.0110           0
     23245 MEMB     43       PSM      H2S      HAL1     0.500000E-01   1.00800           0
     23246 MEMB     43       PSM      C3S      CTO1     0.500000       12.0110           0
     23247 MEMB     43       PSM      H3S      HAL1    -0.110000       1.00800           0
     23248 MEMB     43       PSM      O3       OHL     -0.690000       15.9994           0
     23249 MEMB     43       PSM      HO3      HOL      0.300000       1.00800           0
     23250 MEMB     43       PSM      C4S      CEL3    -0.150000       12.0110           0
     23251 MEMB     43       PSM      H4S      HEL1     0.150000       1.00800           0
     23252 MEMB     43       PSM      C5S      CEL3    -0.150000       12.0110           0
     23253 MEMB     43       PSM      H5S      HEL1     0.150000       1.00800           0
     23254 MEMB     43       PSM      C6S      CTL2    -0.180000       12.0110           0
     23255 MEMB     43       PSM      H6S      HAL2     0.900000E-01   1.00800           0
     23256 MEMB     43       PSM      H6T      HAL2     0.900000E-01   1.00800           0
     23257 MEMB     43       PSM      C7S      CTL2    -0.180000       12.0110           0
     23258 MEMB     43       PSM      H7S      HAL2     0.900000E-01   1.00800           0
     23259 MEMB     43       PSM      H7T      HAL2     0.900000E-01   1.00800           0
     23260 MEMB     43       PSM      C8S      CTL2    -0.180000       12.0110           0
     23261 MEMB     43       PSM      H8S      HAL2     0.900000E-01   1.00800           0
     23262 MEMB     43       PSM      H8T      HAL2     0.900000E-01   1.00800           0
     23263 MEMB     43       PSM      C9S      CTL2    -0.180000       12.0110           0
     23264 MEMB     43       PSM      H9S      HAL2     0.900000E-01   1.00800           0
     23265 MEMB     43       PSM      H9T      HAL2     0.900000E-01   1.00800           0
     23266 MEMB     43       PSM      C10S     CTL2    -0.180000       12.0110           0
     23267 MEMB     43       PSM      H10S     HAL2     0.900000E-01   1.00800           0
     23268 MEMB     43       PSM      H10T     HAL2     0.900000E-01   1.00800           0
     23269 MEMB     43       PSM      C11S     CTL2    -0.180000       12.0110           0
     23270 MEMB     43       PSM      H11S     HAL2     0.900000E-01   1.00800           0
     23271 MEMB     43       PSM      H11T     HAL2     0.900000E-01   1.00800           0
     23272 MEMB     43       PSM      C12S     CTL2    -0.180000       12.0110           0
     23273 MEMB     43       PSM      H12S     HAL2     0.900000E-01   1.00800           0
     23274 MEMB     43       PSM      H12T     HAL2     0.900000E-01   1.00800           0
     23275 MEMB     43       PSM      C13S     CTL2    -0.180000       12.0110           0
     23276 MEMB     43       PSM      H13S     HAL2     0.900000E-01   1.00800           0
     23277 MEMB     43       PSM      H13T     HAL2     0.900000E-01   1.00800           0
     23278 MEMB     43       PSM      C14S     CTL2    -0.180000       12.0110           0
     23279 MEMB     43       PSM      H14S     HAL2     0.900000E-01   1.00800           0
     23280 MEMB     43       PSM      H14T     HAL2     0.900000E-01   1.00800           0
     23281 MEMB     43       PSM      C15S     CTL2    -0.180000       12.0110           0
     23282 MEMB     43       PSM      H15S     HAL2     0.900000E-01   1.00800           0
     23283 MEMB     43       PSM      H15T     HAL2     0.900000E-01   1.00800           0
     23284 MEMB     43       PSM      C16S     CTL2    -0.180000       12.0110           0
     23285 MEMB     43       PSM      H16S     HAL2     0.900000E-01   1.00800           0
     23286 MEMB     43       PSM      H16T     HAL2     0.900000E-01   1.00800           0
     23287 MEMB     43       PSM      C17S     CTL2    -0.180000       12.0110           0
     23288 MEMB     43       PSM      H17S     HAL2     0.900000E-01   1.00800           0
     23289 MEMB     43       PSM      H17T     HAL2     0.900000E-01   1.00800           0
     23290 MEMB     43       PSM      C18S     CTL3    -0.270000       12.0110           0
     23291 MEMB     43       PSM      H18S     HAL3     0.900000E-01   1.00800           0
     23292 MEMB     43       PSM      H18T     HAL3     0.900000E-01   1.00800           0
     23293 MEMB     43       PSM      H18U     HAL3     0.900000E-01   1.00800           0
     23294 MEMB     43       PSM      C1F      C        0.550000       12.0110           0
     23295 MEMB     43       PSM      OF       O       -0.600000       15.9994           0
     23296 MEMB     43       PSM      C2F      CTL2    -0.700000E-01   12.0110           0
     23297 MEMB     43       PSM      H2F      HAL2     0.600000E-01   1.00800           0
     23298 MEMB     43       PSM      H2G      HAL2     0.600000E-01   1.00800           0
     23299 MEMB     43       PSM      C3F      CTL2    -0.180000       12.0110           0
     23300 MEMB     43       PSM      H3F      HAL2     0.900000E-01   1.00800           0
     23301 MEMB     43       PSM      H3G      HAL2     0.900000E-01   1.00800           0
     23302 MEMB     43       PSM      C4F      CTL2    -0.180000       12.0110           0
     23303 MEMB     43       PSM      H4F      HAL2     0.900000E-01   1.00800           0
     23304 MEMB     43       PSM      H4G      HAL2     0.900000E-01   1.00800           0
     23305 MEMB     43       PSM      C5F      CTL2    -0.180000       12.0110           0
     23306 MEMB     43       PSM      H5F      HAL2     0.900000E-01   1.00800           0
     23307 MEMB     43       PSM      H5G      HAL2     0.900000E-01   1.00800           0
     23308 MEMB     43       PSM      C6F      CTL2    -0.180000       12.0110           0
     23309 MEMB     43       PSM      H6F      HAL2     0.900000E-01   1.00800           0
     23310 MEMB     43       PSM      H6G      HAL2     0.900000E-01   1.00800           0
     23311 MEMB     43       PSM      C7F      CTL2    -0.180000       12.0110           0
     23312 MEMB     43       PSM      H7F      HAL2     0.900000E-01   1.00800           0
     23313 MEMB     43       PSM      H7G      HAL2     0.900000E-01   1.00800           0
     23314 MEMB     43       PSM      C8F      CTL2    -0.180000       12.0110           0
     23315 MEMB     43       PSM      H8F      HAL2     0.900000E-01   1.00800           0
     23316 MEMB     43       PSM      H8G      HAL2     0.900000E-01   1.00800           0
     23317 MEMB     43       PSM      C9F      CTL2    -0.180000       12.0110           0
     23318 MEMB     43       PSM      H9F      HAL2     0.900000E-01   1.00800           0
     23319 MEMB     43       PSM      H9G      HAL2     0.900000E-01   1.00800           0
     23320 MEMB     43       PSM      C10F     CTL2    -0.180000       12.0110           0
     23321 MEMB     43       PSM      H10F     HAL2     0.900000E-01   1.00800           0
     23322 MEMB     43       PSM      H10G     HAL2     0.900000E-01   1.00800           0
     23323 MEMB     43       PSM      C11F     CTL2    -0.180000       12.0110           0
     23324 MEMB     43       PSM      H11F     HAL2     0.900000E-01   1.00800           0
     23325 MEMB     43       PSM      H11G     HAL2     0.900000E-01   1.00800           0
     23326 MEMB     43       PSM      C12F     CTL2    -0.180000       12.0110           0
     23327 MEMB     43       PSM      H12F     HAL2     0.900000E-01   1.00800           0
     23328 MEMB     43       PSM      H12G     HAL2     0.900000E-01   1.00800           0
     23329 MEMB     43       PSM      C13F     CTL2    -0.180000       12.0110           0
     23330 MEMB     43       PSM      H13F     HAL2     0.900000E-01   1.00800           0
     23331 MEMB     43       PSM      H13G     HAL2     0.900000E-01   1.00800           0
     23332 MEMB     43       PSM      C14F     CTL2    -0.180000       12.0110           0
     23333 MEMB     43       PSM      H14F     HAL2     0.900000E-01   1.00800           0
     23334 MEMB     43       PSM      H14G     HAL2     0.900000E-01   1.00800           0
     23335 MEMB     43       PSM      C15F     CTL2    -0.180000       12.0110           0
     23336 MEMB     43       PSM      H15F     HAL2     0.900000E-01   1.00800           0
     23337 MEMB     43       PSM      H15G     HAL2     0.900000E-01   1.00800           0
     23338 MEMB     43       PSM      C16F     CTL3    -0.270000       12.0110           0
     23339 MEMB     43       PSM      H16F     HAL3     0.900000E-01   1.00800           0
     23340 MEMB     43       PSM      H16G     HAL3     0.900000E-01   1.00800           0
     23341 MEMB     43       PSM      H16H     HAL3     0.900000E-01   1.00800           0
     23342 MEMB     50       PSM      N        NTL     -0.600000       14.0070           0
     23343 MEMB     50       PSM      C15      CTL5    -0.350000       12.0110           0
     23344 MEMB     50       PSM      H15A     HL       0.250000       1.00800           0
     23345 MEMB     50       PSM      H15B     HL       0.250000       1.00800           0
     23346 MEMB     50       PSM      H15C     HL       0.250000       1.00800           0
     23347 MEMB     50       PSM      C14      CTL5    -0.350000       12.0110           0
     23348 MEMB     50       PSM      H14A     HL       0.250000       1.00800           0
     23349 MEMB     50       PSM      H14B     HL       0.250000       1.00800           0
     23350 MEMB     50       PSM      H14C     HL       0.250000       1.00800           0
     23351 MEMB     50       PSM      C13      CTL5    -0.350000       12.0110           0
     23352 MEMB     50       PSM      H13A     HL       0.250000       1.00800           0
     23353 MEMB     50       PSM      H13B     HL       0.250000       1.00800           0
     23354 MEMB     50       PSM      H13C     HL       0.250000       1.00800           0
     23355 MEMB     50       PSM      C12      CTL2    -0.100000       12.0110           0
     23356 MEMB     50       PSM      H12A     HL       0.250000       1.00800           0
     23357 MEMB     50       PSM      H12B     HL       0.250000       1.00800           0
     23358 MEMB     50       PSM      C11      CTL2    -0.800000E-01   12.0110           0
     23359 MEMB     50       PSM      H11A     HAL2     0.900000E-01   1.00800           0
     23360 MEMB     50       PSM      H11B     HAL2     0.900000E-01   1.00800           0
     23361 MEMB     50       PSM      P        PL       1.500000       30.9740           0
     23362 MEMB     50       PSM      O13      O2L     -0.780000       15.9994           0
     23363 MEMB     50       PSM      O14      O2L     -0.780000       15.9994           0
     23364 MEMB     50       PSM      O11      OSLP    -0.570000       15.9994           0
     23365 MEMB     50       PSM      O12      OSLP    -0.570000       15.9994           0
     23366 MEMB     50       PSM      C1S      CTL2    -0.800000E-01   12.0110           0
     23367 MEMB     50       PSM      H1S      HAL2     0.900000E-01   1.00800           0
     23368 MEMB     50       PSM      H1T      HAL2     0.900000E-01   1.00800           0
     23369 MEMB     50       PSM      NF       NHL     -0.700000       14.0070           0
     23370 MEMB     50       PSM      HNF      H        0.350000       1.00800           0
     23371 MEMB     50       PSM      C2S      CTL1     0.300000       12.0110           0
     23372 MEMB     50       PSM      H2S      HAL1     0.500000E-01   1.00800           0
     23373 MEMB     50       PSM      C3S      CTO1     0.500000       12.0110           0
     23374 MEMB     50       PSM      H3S      HAL1    -0.110000       1.00800           0
     23375 MEMB     50       PSM      O3       OHL     -0.690000       15.9994           0
     23376 MEMB     50       PSM      HO3      HOL      0.300000       1.00800           0
     23377 MEMB     50       PSM      C4S      CEL3    -0.150000       12.0110           0
     23378 MEMB     50       PSM      H4S      HEL1     0.150000       1.00800           0
     23379 MEMB     50       PSM      C5S      CEL3    -0.150000       12.0110           0
     23380 MEMB     50       PSM      H5S      HEL1     0.150000       1.00800           0
     23381 MEMB     50       PSM      C6S      CTL2    -0.180000       12.0110           0
     23382 MEMB     50       PSM      H6S      HAL2     0.900000E-01   1.00800           0
     23383 MEMB     50       PSM      H6T      HAL2     0.900000E-01   1.00800           0
     23384 MEMB     50       PSM      C7S      CTL2    -0.180000       12.0110           0
     23385 MEMB     50       PSM      H7S      HAL2     0.900000E-01   1.00800           0
     23386 MEMB     50       PSM      H7T      HAL2     0.900000E-01   1.00800           0
     23387 MEMB     50       PSM      C8S      CTL2    -0.180000       12.0110           0
     23388 MEMB     50       PSM      H8S      HAL2     0.900000E-01   1.00800           0
     23389 MEMB     50       PSM      H8T      HAL2     0.900000E-01   1.00800           0
     23390 MEMB     50       PSM      C9S      CTL2    -0.180000       12.0110           0
     23391 MEMB     50       PSM      H9S      HAL2     0.900000E-01   1.00800           0
     23392 MEMB     50       PSM      H9T      HAL2     0.900000E-01   1.00800           0
     23393 MEMB     50       PSM      C10S     CTL2    -0.180000       12.0110           0
     23394 MEMB     50       PSM      H10S     HAL2     0.900000E-01   1.00800           0
     23395 MEMB     50       PSM      H10T     HAL2     0.900000E-01   1.00800           0
     23396 MEMB     50       PSM      C11S     CTL2    -0.180000       12.0110           0
     23397 MEMB     50       PSM      H11S     HAL2     0.900000E-01   1.00800           0
     23398 MEMB     50       PSM      H11T     HAL2     0.900000E-01   1.00800           0
     23399 MEMB     50       PSM      C12S     CTL2    -0.180000       12.0110           0
     23400 MEMB     50       PSM      H12S     HAL2     0.900000E-01   1.00800           0
     23401 MEMB     50       PSM      H12T     HAL2     0.900000E-01   1.00800           0
     23402 MEMB     50       PSM      C13S     CTL2    -0.180000       12.0110           0
     23403 MEMB     50       PSM      H13S     HAL2     0.900000E-01   1.00800           0
     23404 MEMB     50       PSM      H13T     HAL2     0.900000E-01   1.00800           0
     23405 MEMB     50       PSM      C14S     CTL2    -0.180000       12.0110           0
     23406 MEMB     50       PSM      H14S     HAL2     0.900000E-01   1.00800           0
     23407 MEMB     50       PSM      H14T     HAL2     0.900000E-01   1.00800           0
     23408 MEMB     50       PSM      C15S     CTL2    -0.180000       12.0110           0
     23409 MEMB     50       PSM      H15S     HAL2     0.900000E-01   1.00800           0
     23410 MEMB     50       PSM      H15T     HAL2     0.900000E-01   1.00800           0
     23411 MEMB     50       PSM      C16S     CTL2    -0.180000       12.0110           0
     23412 MEMB     50       PSM      H16S     HAL2     0.900000E-01   1.00800           0
     23413 MEMB     50       PSM      H16T     HAL2     0.900000E-01   1.00800           0
     23414 MEMB     50       PSM      C17S     CTL2    -0.180000       12.0110           0
     23415 MEMB     50       PSM      H17S     HAL2     0.900000E-01   1.00800           0
     23416 MEMB     50       PSM      H17T     HAL2     0.900000E-01   1.00800           0
     23417 MEMB     50       PSM      C18S     CTL3    -0.270000       12.0110           0
     23418 MEMB     50       PSM      H18S     HAL3     0.900000E-01   1.00800           0
     23419 MEMB     50       PSM      H18T     HAL3     0.900000E-01   1.00800           0
     23420 MEMB     50       PSM      H18U     HAL3     0.900000E-01   1.00800           0
     23421 MEMB     50       PSM      C1F      C        0.550000       12.0110           0
     23422 MEMB     50       PSM      OF       O       -0.600000       15.9994           0
     23423 MEMB     50       PSM      C2F      CTL2    -0.700000E-01   12.0110           0
     23424 MEMB     50       PSM      H2F      HAL2     0.600000E-01   1.00800           0
     23425 MEMB     50       PSM      H2G      HAL2     0.600000E-01   1.00800           0
     23426 MEMB     50       PSM      C3F      CTL2    -0.180000       12.0110           0
     23427 MEMB     50       PSM      H3F      HAL2     0.900000E-01   1.00800           0
     23428 MEMB     50       PSM      H3G      HAL2     0.900000E-01   1.00800           0
     23429 MEMB     50       PSM      C4F      CTL2    -0.180000       12.0110           0
     23430 MEMB     50       PSM      H4F      HAL2     0.900000E-01   1.00800           0
     23431 MEMB     50       PSM      H4G      HAL2     0.900000E-01   1.00800           0
     23432 MEMB     50       PSM      C5F      CTL2    -0.180000       12.0110           0
     23433 MEMB     50       PSM      H5F      HAL2     0.900000E-01   1.00800           0
     23434 MEMB     50       PSM      H5G      HAL2     0.900000E-01   1.00800           0
     23435 MEMB     50       PSM      C6F      CTL2    -0.180000       12.0110           0
     23436 MEMB     50       PSM      H6F      HAL2     0.900000E-01   1.00800           0
     23437 MEMB     50       PSM      H6G      HAL2     0.900000E-01   1.00800           0
     23438 MEMB     50       PSM      C7F      CTL2    -0.180000       12.0110           0
     23439 MEMB     50       PSM      H7F      HAL2     0.900000E-01   1.00800           0
     23440 MEMB     50       PSM      H7G      HAL2     0.900000E-01   1.00800           0
     23441 MEMB     50       PSM      C8F      CTL2    -0.180000       12.0110           0
     23442 MEMB     50       PSM      H8F      HAL2     0.900000E-01   1.00800           0
     23443 MEMB     50       PSM      H8G      HAL2     0.900000E-01   1.00800           0
     23444 MEMB     50       PSM      C9F      CTL2    -0.180000       12.0110           0
     23445 MEMB     50       PSM      H9F      HAL2     0.900000E-01   1.00800           0
     23446 MEMB     50       PSM      H9G      HAL2     0.900000E-01   1.00800           0
     23447 MEMB     50       PSM      C10F     CTL2    -0.180000       12.0110           0
     23448 MEMB     50       PSM      H10F     HAL2     0.900000E-01   1.00800           0
     23449 MEMB     50       PSM      H10G     HAL2     0.900000E-01   1.00800           0
     23450 MEMB     50       PSM      C11F     CTL2    -0.180000       12.0110           0
     23451 MEMB     50       PSM      H11F     HAL2     0.900000E-01   1.00800           0
     23452 MEMB     50       PSM      H11G     HAL2     0.900000E-01   1.00800           0
     23453 MEMB     50       PSM      C12F     CTL2    -0.180000       12.0110           0
     23454 MEMB     50       PSM      H12F     HAL2     0.900000E-01   1.00800           0
     23455 MEMB     50       PSM      H12G     HAL2     0.900000E-01   1.00800           0
     23456 MEMB     50       PSM      C13F     CTL2    -0.180000       12.0110           0
     23457 MEMB     50       PSM      H13F     HAL2     0.900000E-01   1.00800           0
     23458 MEMB     50       PSM      H13G     HAL2     0.900000E-01   1.00800           0
     23459 MEMB     50       PSM      C14F     CTL2    -0.180000       12.0110           0
     23460 MEMB     50       PSM      H14F     HAL2     0.900000E-01   1.00800           0
     23461 MEMB     50       PSM      H14G     HAL2     0.900000E-01   1.00800           0
     23462 MEMB     50       PSM      C15F     CTL2    -0.180000       12.0110           0
     23463 MEMB     50       PSM      H15F     HAL2     0.900000E-01   1.00800           0
     23464 MEMB     50       PSM      H15G     HAL2     0.900000E-01   1.00800           0
     23465 MEMB     50       PSM      C16F     CTL3    -0.270000       12.0110           0
     23466 MEMB     50       PSM      H16F     HAL3     0.900000E-01   1.00800           0
     23467 MEMB     50       PSM      H16G     HAL3     0.900000E-01   1.00800           0
     23468 MEMB     50       PSM      H16H     HAL3     0.900000E-01   1.00800           0
     23469 MEMB     53       PSM      N        NTL     -0.600000       14.0070           0
     23470 MEMB     53       PSM      C15      CTL5    -0.350000       12.0110           0
     23471 MEMB     53       PSM      H15A     HL       0.250000       1.00800           0
     23472 MEMB     53       PSM      H15B     HL       0.250000       1.00800           0
     23473 MEMB     53       PSM      H15C     HL       0.250000       1.00800           0
     23474 MEMB     53       PSM      C14      CTL5    -0.350000       12.0110           0
     23475 MEMB     53       PSM      H14A     HL       0.250000       1.00800           0
     23476 MEMB     53       PSM      H14B     HL       0.250000       1.00800           0
     23477 MEMB     53       PSM      H14C     HL       0.250000       1.00800           0
     23478 MEMB     53       PSM      C13      CTL5    -0.350000       12.0110           0
     23479 MEMB     53       PSM      H13A     HL       0.250000       1.00800           0
     23480 MEMB     53       PSM      H13B     HL       0.250000       1.00800           0
     23481 MEMB     53       PSM      H13C     HL       0.250000       1.00800           0
     23482 MEMB     53       PSM      C12      CTL2    -0.100000       12.0110           0
     23483 MEMB     53       PSM      H12A     HL       0.250000       1.00800           0
     23484 MEMB     53       PSM      H12B     HL       0.250000       1.00800           0
     23485 MEMB     53       PSM      C11      CTL2    -0.800000E-01   12.0110           0
     23486 MEMB     53       PSM      H11A     HAL2     0.900000E-01   1.00800           0
     23487 MEMB     53       PSM      H11B     HAL2     0.900000E-01   1.00800           0
     23488 MEMB     53       PSM      P        PL       1.500000       30.9740           0
     23489 MEMB     53       PSM      O13      O2L     -0.780000       15.9994           0
     23490 MEMB     53       PSM      O14      O2L     -0.780000       15.9994           0
     23491 MEMB     53       PSM      O11      OSLP    -0.570000       15.9994           0
     23492 MEMB     53       PSM      O12      OSLP    -0.570000       15.9994           0
     23493 MEMB     53       PSM      C1S      CTL2    -0.800000E-01   12.0110           0
     23494 MEMB     53       PSM      H1S      HAL2     0.900000E-01   1.00800           0
     23495 MEMB     53       PSM      H1T      HAL2     0.900000E-01   1.00800           0
     23496 MEMB     53       PSM      NF       NHL     -0.700000       14.0070           0
     23497 MEMB     53       PSM      HNF      H        0.350000       1.00800           0
     23498 MEMB     53       PSM      C2S      CTL1     0.300000       12.0110           0
     23499 MEMB     53       PSM      H2S      HAL1     0.500000E-01   1.00800           0
     23500 MEMB     53       PSM      C3S      CTO1     0.500000       12.0110           0
     23501 MEMB     53       PSM      H3S      HAL1    -0.110000       1.00800           0
     23502 MEMB     53       PSM      O3       OHL     -0.690000       15.9994           0
     23503 MEMB     53       PSM      HO3      HOL      0.300000       1.00800           0
     23504 MEMB     53       PSM      C4S      CEL3    -0.150000       12.0110           0
     23505 MEMB     53       PSM      H4S      HEL1     0.150000       1.00800           0
     23506 MEMB     53       PSM      C5S      CEL3    -0.150000       12.0110           0
     23507 MEMB     53       PSM      H5S      HEL1     0.150000       1.00800           0
     23508 MEMB     53       PSM      C6S      CTL2    -0.180000       12.0110           0
     23509 MEMB     53       PSM      H6S      HAL2     0.900000E-01   1.00800           0
     23510 MEMB     53       PSM      H6T      HAL2     0.900000E-01   1.00800           0
     23511 MEMB     53       PSM      C7S      CTL2    -0.180000       12.0110           0
     23512 MEMB     53       PSM      H7S      HAL2     0.900000E-01   1.00800           0
     23513 MEMB     53       PSM      H7T      HAL2     0.900000E-01   1.00800           0
     23514 MEMB     53       PSM      C8S      CTL2    -0.180000       12.0110           0
     23515 MEMB     53       PSM      H8S      HAL2     0.900000E-01   1.00800           0
     23516 MEMB     53       PSM      H8T      HAL2     0.900000E-01   1.00800           0
     23517 MEMB     53       PSM      C9S      CTL2    -0.180000       12.0110           0
     23518 MEMB     53       PSM      H9S      HAL2     0.900000E-01   1.00800           0
     23519 MEMB     53       PSM      H9T      HAL2     0.900000E-01   1.00800           0
     23520 MEMB     53       PSM      C10S     CTL2    -0.180000       12.0110           0
     23521 MEMB     53       PSM      H10S     HAL2     0.900000E-01   1.00800           0
     23522 MEMB     53       PSM      H10T     HAL2     0.900000E-01   1.00800           0
     23523 MEMB     53       PSM      C11S     CTL2    -0.180000       12.0110           0
     23524 MEMB     53       PSM      H11S     HAL2     0.900000E-01   1.00800           0
     23525 MEMB     53       PSM      H11T     HAL2     0.900000E-01   1.00800           0
     23526 MEMB     53       PSM      C12S     CTL2    -0.180000       12.0110           0
     23527 MEMB     53       PSM      H12S     HAL2     0.900000E-01   1.00800           0
     23528 MEMB     53       PSM      H12T     HAL2     0.900000E-01   1.00800           0
     23529 MEMB     53       PSM      C13S     CTL2    -0.180000       12.0110           0
     23530 MEMB     53       PSM      H13S     HAL2     0.900000E-01   1.00800           0
     23531 MEMB     53       PSM      H13T     HAL2     0.900000E-01   1.00800           0
     23532 MEMB     53       PSM      C14S     CTL2    -0.180000       12.0110           0
     23533 MEMB     53       PSM      H14S     HAL2     0.900000E-01   1.00800           0
     23534 MEMB     53       PSM      H14T     HAL2     0.900000E-01   1.00800           0
     23535 MEMB     53       PSM      C15S     CTL2    -0.180000       12.0110           0
     23536 MEMB     53       PSM      H15S     HAL2     0.900000E-01   1.00800           0
     23537 MEMB     53       PSM      H15T     HAL2     0.900000E-01   1.00800           0
     23538 MEMB     53       PSM      C16S     CTL2    -0.180000       12.0110           0
     23539 MEMB     53       PSM      H16S     HAL2     0.900000E-01   1.00800           0
     23540 MEMB     53       PSM      H16T     HAL2     0.900000E-01   1.00800           0
     23541 MEMB     53       PSM      C17S     CTL2    -0.180000       12.0110           0
     23542 MEMB     53       PSM      H17S     HAL2     0.900000E-01   1.00800           0
     23543 MEMB     53       PSM      H17T     HAL2     0.900000E-01   1.00800           0
     23544 MEMB     53       PSM      C18S     CTL3    -0.270000       12.0110           0
     23545 MEMB     53       PSM      H18S     HAL3     0.900000E-01   1.00800           0
     23546 MEMB     53       PSM      H18T     HAL3     0.900000E-01   1.00800           0
     23547 MEMB     53       PSM      H18U     HAL3     0.900000E-01   1.00800           0
     23548 MEMB     53       PSM      C1F      C        0.550000       12.0110           0
     23549 MEMB     53       PSM      OF       O       -0.600000       15.9994           0
     23550 MEMB     53       PSM      C2F      CTL2    -0.700000E-01   12.0110           0
     23551 MEMB     53       PSM      H2F      HAL2     0.600000E-01   1.00800           0
     23552 MEMB     53       PSM      H2G      HAL2     0.600000E-01   1.00800           0
     23553 MEMB     53       PSM      C3F      CTL2    -0.180000       12.0110           0
     23554 MEMB     53       PSM      H3F      HAL2     0.900000E-01   1.00800           0
     23555 MEMB     53       PSM      H3G      HAL2     0.900000E-01   1.00800           0
     23556 MEMB     53       PSM      C4F      CTL2    -0.180000       12.0110           0
     23557 MEMB     53       PSM      H4F      HAL2     0.900000E-01   1.00800           0
     23558 MEMB     53       PSM      H4G      HAL2     0.900000E-01   1.00800           0
     23559 MEMB     53       PSM      C5F      CTL2    -0.180000       12.0110           0
     23560 MEMB     53       PSM      H5F      HAL2     0.900000E-01   1.00800           0
     23561 MEMB     53       PSM      H5G      HAL2     0.900000E-01   1.00800           0
     23562 MEMB     53       PSM      C6F      CTL2    -0.180000       12.0110           0
     23563 MEMB     53       PSM      H6F      HAL2     0.900000E-01   1.00800           0
     23564 MEMB     53       PSM      H6G      HAL2     0.900000E-01   1.00800           0
     23565 MEMB     53       PSM      C7F      CTL2    -0.180000       12.0110           0
     23566 MEMB     53       PSM      H7F      HAL2     0.900000E-01   1.00800           0
     23567 MEMB     53       PSM      H7G      HAL2     0.900000E-01   1.00800           0
     23568 MEMB     53       PSM      C8F      CTL2    -0.180000       12.0110           0
     23569 MEMB     53       PSM      H8F      HAL2     0.900000E-01   1.00800           0
     23570 MEMB     53       PSM      H8G      HAL2     0.900000E-01   1.00800           0
     23571 MEMB     53       PSM      C9F      CTL2    -0.180000       12.0110           0
     23572 MEMB     53       PSM      H9F      HAL2     0.900000E-01   1.00800           0
     23573 MEMB     53       PSM      H9G      HAL2     0.900000E-01   1.00800           0
     23574 MEMB     53       PSM      C10F     CTL2    -0.180000       12.0110           0
     23575 MEMB     53       PSM      H10F     HAL2     0.900000E-01   1.00800           0
     23576 MEMB     53       PSM      H10G     HAL2     0.900000E-01   1.00800           0
     23577 MEMB     53       PSM      C11F     CTL2    -0.180000       12.0110           0
     23578 MEMB     53       PSM      H11F     HAL2     0.900000E-01   1.00800           0
     23579 MEMB     53       PSM      H11G     HAL2     0.900000E-01   1.00800           0
     23580 MEMB     53       PSM      C12F     CTL2    -0.180000       12.0110           0
     23581 MEMB     53       PSM      H12F     HAL2     0.900000E-01   1.00800           0
     23582 MEMB     53       PSM      H12G     HAL2     0.900000E-01   1.00800           0
     23583 MEMB     53       PSM      C13F     CTL2    -0.180000       12.0110           0
     23584 MEMB     53       PSM      H13F     HAL2     0.900000E-01   1.00800           0
     23585 MEMB     53       PSM      H13G     HAL2     0.900000E-01   1.00800           0
     23586 MEMB     53       PSM      C14F     CTL2    -0.180000       12.0110           0
     23587 MEMB     53       PSM      H14F     HAL2     0.900000E-01   1.00800           0
     23588 MEMB     53       PSM      H14G     HAL2     0.900000E-01   1.00800           0
     23589 MEMB     53       PSM      C15F     CTL2    -0.180000       12.0110           0
     23590 MEMB     53       PSM      H15F     HAL2     0.900000E-01   1.00800           0
     23591 MEMB     53       PSM      H15G     HAL2     0.900000E-01   1.00800           0
     23592 MEMB     53       PSM      C16F     CTL3    -0.270000       12.0110           0
     23593 MEMB     53       PSM      H16F     HAL3     0.900000E-01   1.00800           0
     23594 MEMB     53       PSM      H16G     HAL3     0.900000E-01   1.00800           0
     23595 MEMB     53       PSM      H16H     HAL3     0.900000E-01   1.00800           0
     23596 MEMB     120      PSM      N        NTL     -0.600000       14.0070           0
     23597 MEMB     120      PSM      C15      CTL5    -0.350000       12.0110           0
     23598 MEMB     120      PSM      H15A     HL       0.250000       1.00800           0
     23599 MEMB     120      PSM      H15B     HL       0.250000       1.00800           0
     23600 MEMB     120      PSM      H15C     HL       0.250000       1.00800           0
     23601 MEMB     120      PSM      C14      CTL5    -0.350000       12.0110           0
     23602 MEMB     120      PSM      H14A     HL       0.250000       1.00800           0
     23603 MEMB     120      PSM      H14B     HL       0.250000       1.00800           0
     23604 MEMB     120      PSM      H14C     HL       0.250000       1.00800           0
     23605 MEMB     120      PSM      C13      CTL5    -0.350000       12.0110           0
     23606 MEMB     120      PSM      H13A     HL       0.250000       1.00800           0
     23607 MEMB     120      PSM      H13B     HL       0.250000       1.00800           0
     23608 MEMB     120      PSM      H13C     HL       0.250000       1.00800           0
     23609 MEMB     120      PSM      C12      CTL2    -0.100000       12.0110           0
     23610 MEMB     120      PSM      H12A     HL       0.250000       1.00800           0
     23611 MEMB     120      PSM      H12B     HL       0.250000       1.00800           0
     23612 MEMB     120      PSM      C11      CTL2    -0.800000E-01   12.0110           0
     23613 MEMB     120      PSM      H11A     HAL2     0.900000E-01   1.00800           0
     23614 MEMB     120      PSM      H11B     HAL2     0.900000E-01   1.00800           0
     23615 MEMB     120      PSM      P        PL       1.500000       30.9740           0
     23616 MEMB     120      PSM      O13      O2L     -0.780000       15.9994           0
     23617 MEMB     120      PSM      O14      O2L     -0.780000       15.9994           0
     23618 MEMB     120      PSM      O11      OSLP    -0.570000       15.9994           0
     23619 MEMB     120      PSM      O12      OSLP    -0.570000       15.9994           0
     23620 MEMB     120      PSM      C1S      CTL2    -0.800000E-01   12.0110           0
     23621 MEMB     120      PSM      H1S      HAL2     0.900000E-01   1.00800           0
     23622 MEMB     120      PSM      H1T      HAL2     0.900000E-01   1.00800           0
     23623 MEMB     120      PSM      NF       NHL     -0.700000       14.0070           0
     23624 MEMB     120      PSM      HNF      H        0.350000       1.00800           0
     23625 MEMB     120      PSM      C2S      CTL1     0.300000       12.0110           0
     23626 MEMB     120      PSM      H2S      HAL1     0.500000E-01   1.00800           0
     23627 MEMB     120      PSM      C3S      CTO1     0.500000       12.0110           0
     23628 MEMB     120      PSM      H3S      HAL1    -0.110000       1.00800           0
     23629 MEMB     120      PSM      O3       OHL     -0.690000       15.9994           0
     23630 MEMB     120      PSM      HO3      HOL      0.300000       1.00800           0
     23631 MEMB     120      PSM      C4S      CEL3    -0.150000       12.0110           0
     23632 MEMB     120      PSM      H4S      HEL1     0.150000       1.00800           0
     23633 MEMB     120      PSM      C5S      CEL3    -0.150000       12.0110           0
     23634 MEMB     120      PSM      H5S      HEL1     0.150000       1.00800           0
     23635 MEMB     120      PSM      C6S      CTL2    -0.180000       12.0110           0
     23636 MEMB     120      PSM      H6S      HAL2     0.900000E-01   1.00800           0
     23637 MEMB     120      PSM      H6T      HAL2     0.900000E-01   1.00800           0
     23638 MEMB     120      PSM      C7S      CTL2    -0.180000       12.0110           0
     23639 MEMB     120      PSM      H7S      HAL2     0.900000E-01   1.00800           0
     23640 MEMB     120      PSM      H7T      HAL2     0.900000E-01   1.00800           0
     23641 MEMB     120      PSM      C8S      CTL2    -0.180000       12.0110           0
     23642 MEMB     120      PSM      H8S      HAL2     0.900000E-01   1.00800           0
     23643 MEMB     120      PSM      H8T      HAL2     0.900000E-01   1.00800           0
     23644 MEMB     120      PSM      C9S      CTL2    -0.180000       12.0110           0
     23645 MEMB     120      PSM      H9S      HAL2     0.900000E-01   1.00800           0
     23646 MEMB     120      PSM      H9T      HAL2     0.900000E-01   1.00800           0
     23647 MEMB     120      PSM      C10S     CTL2    -0.180000       12.0110           0
     23648 MEMB     120      PSM      H10S     HAL2     0.900000E-01   1.00800           0
     23649 MEMB     120      PSM      H10T     HAL2     0.900000E-01   1.00800           0
     23650 MEMB     120      PSM      C11S     CTL2    -0.180000       12.0110           0
     23651 MEMB     120      PSM      H11S     HAL2     0.900000E-01   1.00800           0
     23652 MEMB     120      PSM      H11T     HAL2     0.900000E-01   1.00800           0
     23653 MEMB     120      PSM      C12S     CTL2    -0.180000       12.0110           0
     23654 MEMB     120      PSM      H12S     HAL2     0.900000E-01   1.00800           0
     23655 MEMB     120      PSM      H12T     HAL2     0.900000E-01   1.00800           0
     23656 MEMB     120      PSM      C13S     CTL2    -0.180000       12.0110           0
     23657 MEMB     120      PSM      H13S     HAL2     0.900000E-01   1.00800           0
     23658 MEMB     120      PSM      H13T     HAL2     0.900000E-01   1.00800           0
     23659 MEMB     120      PSM      C14S     CTL2    -0.180000       12.0110           0
     23660 MEMB     120      PSM      H14S     HAL2     0.900000E-01   1.00800           0
     23661 MEMB     120      PSM      H14T     HAL2     0.900000E-01   1.00800           0
     23662 MEMB     120      PSM      C15S     CTL2    -0.180000       12.0110           0
     23663 MEMB     120      PSM      H15S     HAL2     0.900000E-01   1.00800           0
     23664 MEMB     120      PSM      H15T     HAL2     0.900000E-01   1.00800           0
     23665 MEMB     120      PSM      C16S     CTL2    -0.180000       12.0110           0
     23666 MEMB     120      PSM      H16S     HAL2     0.900000E-01   1.00800           0
     23667 MEMB     120      PSM      H16T     HAL2     0.900000E-01   1.00800           0
     23668 MEMB     120      PSM      C17S     CTL2    -0.180000       12.0110           0
     23669 MEMB     120      PSM      H17S     HAL2     0.900000E-01   1.00800           0
     23670 MEMB     120      PSM      H17T     HAL2     0.900000E-01   1.00800           0
     23671 MEMB     120      PSM      C18S     CTL3    -0.270000       12.0110           0
     23672 MEMB     120      PSM      H18S     HAL3     0.900000E-01   1.00800           0
     23673 MEMB     120      PSM      H18T     HAL3     0.900000E-01   1.00800           0
     23674 MEMB     120      PSM      H18U     HAL3     0.900000E-01   1.00800           0
     23675 MEMB     120      PSM      C1F      C        0.550000       12.0110           0
     23676 MEMB     120      PSM      OF       O       -0.600000       15.9994           0
     23677 MEMB     120      PSM      C2F      CTL2    -0.700000E-01   12.0110           0
     23678 MEMB     120      PSM      H2F      HAL2     0.600000E-01   1.00800           0
     23679 MEMB     120      PSM      H2G      HAL2     0.600000E-01   1.00800           0
     23680 MEMB     120      PSM      C3F      CTL2    -0.180000       12.0110           0
     23681 MEMB     120      PSM      H3F      HAL2     0.900000E-01   1.00800           0
     23682 MEMB     120      PSM      H3G      HAL2     0.900000E-01   1.00800           0
     23683 MEMB     120      PSM      C4F      CTL2    -0.180000       12.0110           0
     23684 MEMB     120      PSM      H4F      HAL2     0.900000E-01   1.00800           0
     23685 MEMB     120      PSM      H4G      HAL2     0.900000E-01   1.00800           0
     23686 MEMB     120      PSM      C5F      CTL2    -0.180000       12.0110           0
     23687 MEMB     120      PSM      H5F      HAL2     0.900000E-01   1.00800           0
     23688 MEMB     120      PSM      H5G      HAL2     0.900000E-01   1.00800           0
     23689 MEMB     120      PSM      C6F      CTL2    -0.180000       12.0110           0
     23690 MEMB     120      PSM      H6F      HAL2     0.900000E-01   1.00800           0
     23691 MEMB     120      PSM      H6G      HAL2     0.900000E-01   1.00800           0
     23692 MEMB     120      PSM      C7F      CTL2    -0.180000       12.0110           0
     23693 MEMB     120      PSM      H7F      HAL2     0.900000E-01   1.00800           0
     23694 MEMB     120      PSM      H7G      HAL2     0.900000E-01   1.00800           0
     23695 MEMB     120      PSM      C8F      CTL2    -0.180000       12.0110           0
     23696 MEMB     120      PSM      H8F      HAL2     0.900000E-01   1.00800           0
     23697 MEMB     120      PSM      H8G      HAL2     0.900000E-01   1.00800           0
     23698 MEMB     120      PSM      C9F      CTL2    -0.180000       12.0110           0
     23699 MEMB     120      PSM      H9F      HAL2     0.900000E-01   1.00800           0
     23700 MEMB     120      PSM      H9G      HAL2     0.900000E-01   1.00800           0
     23701 MEMB     120      PSM      C10F     CTL2    -0.180000       12.0110           0
     23702 MEMB     120      PSM      H10F     HAL2     0.900000E-01   1.00800           0
     23703 MEMB     120      PSM      H10G     HAL2     0.900000E-01   1.00800           0
     23704 MEMB     120      PSM      C11F     CTL2    -0.180000       12.0110           0
     23705 MEMB     120      PSM      H11F     HAL2     0.900000E-01   1.00800           0
     23706 MEMB     120      PSM      H11G     HAL2     0.900000E-01   1.00800           0
     23707 MEMB     120      PSM      C12F     CTL2    -0.180000       12.0110           0
     23708 MEMB     120      PSM      H12F     HAL2     0.900000E-01   1.00800           0
     23709 MEMB     120      PSM      H12G     HAL2     0.900000E-01   1.00800           0
     23710 MEMB     120      PSM      C13F     CTL2    -0.180000       12.0110           0
     23711 MEMB     120      PSM      H13F     HAL2     0.900000E-01   1.00800           0
     23712 MEMB     120      PSM      H13G     HAL2     0.900000E-01   1.00800           0
     23713 MEMB     120      PSM      C14F     CTL2    -0.180000       12.0110           0
     23714 MEMB     120      PSM      H14F     HAL2     0.900000E-01   1.00800           0
     23715 MEMB     120      PSM      H14G     HAL2     0.900000E-01   1.00800           0
     23716 MEMB     120      PSM      C15F     CTL2    -0.180000       12.0110           0
     23717 MEMB     120      PSM      H15F     HAL2     0.900000E-01   1.00800           0
     23718 MEMB     120      PSM      H15G     HAL2     0.900000E-01   1.00800           0
     23719 MEMB     120      PSM      C16F     CTL3    -0.270000       12.0110           0
     23720 MEMB     120      PSM      H16F     HAL3     0.900000E-01   1.00800           0
     23721 MEMB     120      PSM      H16G     HAL3     0.900000E-01   1.00800           0
     23722 MEMB     120      PSM      H16H     HAL3     0.900000E-01   1.00800           0
     23723 MEMB     122      PSM      N        NTL     -0.600000       14.0070           0
     23724 MEMB     122      PSM      C15      CTL5    -0.350000       12.0110           0
     23725 MEMB     122      PSM      H15A     HL       0.250000       1.00800           0
     23726 MEMB     122      PSM      H15B     HL       0.250000       1.00800           0
     23727 MEMB     122      PSM      H15C     HL       0.250000       1.00800           0
     23728 MEMB     122      PSM      C14      CTL5    -0.350000       12.0110           0
     23729 MEMB     122      PSM      H14A     HL       0.250000       1.00800           0
     23730 MEMB     122      PSM      H14B     HL       0.250000       1.00800           0
     23731 MEMB     122      PSM      H14C     HL       0.250000       1.00800           0
     23732 MEMB     122      PSM      C13      CTL5    -0.350000       12.0110           0
     23733 MEMB     122      PSM      H13A     HL       0.250000       1.00800           0
     23734 MEMB     122      PSM      H13B     HL       0.250000       1.00800           0
     23735 MEMB     122      PSM      H13C     HL       0.250000       1.00800           0
     23736 MEMB     122      PSM      C12      CTL2    -0.100000       12.0110           0
     23737 MEMB     122      PSM      H12A     HL       0.250000       1.00800           0
     23738 MEMB     122      PSM      H12B     HL       0.250000       1.00800           0
     23739 MEMB     122      PSM      C11      CTL2    -0.800000E-01   12.0110           0
     23740 MEMB     122      PSM      H11A     HAL2     0.900000E-01   1.00800           0
     23741 MEMB     122      PSM      H11B     HAL2     0.900000E-01   1.00800           0
     23742 MEMB     122      PSM      P        PL       1.500000       30.9740           0
     23743 MEMB     122      PSM      O13      O2L     -0.780000       15.9994           0
     23744 MEMB     122      PSM      O14      O2L     -0.780000       15.9994           0
     23745 MEMB     122      PSM      O11      OSLP    -0.570000       15.9994           0
     23746 MEMB     122      PSM      O12      OSLP    -0.570000       15.9994           0
     23747 MEMB     122      PSM      C1S      CTL2    -0.800000E-01   12.0110           0
     23748 MEMB     122      PSM      H1S      HAL2     0.900000E-01   1.00800           0
     23749 MEMB     122      PSM      H1T      HAL2     0.900000E-01   1.00800           0
     23750 MEMB     122      PSM      NF       NHL     -0.700000       14.0070           0
     23751 MEMB     122      PSM      HNF      H        0.350000       1.00800           0
     23752 MEMB     122      PSM      C2S      CTL1     0.300000       12.0110           0
     23753 MEMB     122      PSM      H2S      HAL1     0.500000E-01   1.00800           0
     23754 MEMB     122      PSM      C3S      CTO1     0.500000       12.0110           0
     23755 MEMB     122      PSM      H3S      HAL1    -0.110000       1.00800           0
     23756 MEMB     122      PSM      O3       OHL     -0.690000       15.9994           0
     23757 MEMB     122      PSM      HO3      HOL      0.300000       1.00800           0
     23758 MEMB     122      PSM      C4S      CEL3    -0.150000       12.0110           0
     23759 MEMB     122      PSM      H4S      HEL1     0.150000       1.00800           0
     23760 MEMB     122      PSM      C5S      CEL3    -0.150000       12.0110           0
     23761 MEMB     122      PSM      H5S      HEL1     0.150000       1.00800           0
     23762 MEMB     122      PSM      C6S      CTL2    -0.180000       12.0110           0
     23763 MEMB     122      PSM      H6S      HAL2     0.900000E-01   1.00800           0
     23764 MEMB     122      PSM      H6T      HAL2     0.900000E-01   1.00800           0
     23765 MEMB     122      PSM      C7S      CTL2    -0.180000       12.0110           0
     23766 MEMB     122      PSM      H7S      HAL2     0.900000E-01   1.00800           0
     23767 MEMB     122      PSM      H7T      HAL2     0.900000E-01   1.00800           0
     23768 MEMB     122      PSM      C8S      CTL2    -0.180000       12.0110           0
     23769 MEMB     122      PSM      H8S      HAL2     0.900000E-01   1.00800           0
     23770 MEMB     122      PSM      H8T      HAL2     0.900000E-01   1.00800           0
     23771 MEMB     122      PSM      C9S      CTL2    -0.180000       12.0110           0
     23772 MEMB     122      PSM      H9S      HAL2     0.900000E-01   1.00800           0
     23773 MEMB     122      PSM      H9T      HAL2     0.900000E-01   1.00800           0
     23774 MEMB     122      PSM      C10S     CTL2    -0.180000       12.0110           0
     23775 MEMB     122      PSM      H10S     HAL2     0.900000E-01   1.00800           0
     23776 MEMB     122      PSM      H10T     HAL2     0.900000E-01   1.00800           0
     23777 MEMB     122      PSM      C11S     CTL2    -0.180000       12.0110           0
     23778 MEMB     122      PSM      H11S     HAL2     0.900000E-01   1.00800           0
     23779 MEMB     122      PSM      H11T     HAL2     0.900000E-01   1.00800           0
     23780 MEMB     122      PSM      C12S     CTL2    -0.180000       12.0110           0
     23781 MEMB     122      PSM      H12S     HAL2     0.900000E-01   1.00800           0
     23782 MEMB     122      PSM      H12T     HAL2     0.900000E-01   1.00800           0
     23783 MEMB     122      PSM      C13S     CTL2    -0.180000       12.0110           0
     23784 MEMB     122      PSM      H13S     HAL2     0.900000E-01   1.00800           0
     23785 MEMB     122      PSM      H13T     HAL2     0.900000E-01   1.00800           0
     23786 MEMB     122      PSM      C14S     CTL2    -0.180000       12.0110           0
     23787 MEMB     122      PSM      H14S     HAL2     0.900000E-01   1.00800           0
     23788 MEMB     122      PSM      H14T     HAL2     0.900000E-01   1.00800           0
     23789 MEMB     122      PSM      C15S     CTL2    -0.180000       12.0110           0
     23790 MEMB     122      PSM      H15S     HAL2     0.900000E-01   1.00800           0
     23791 MEMB     122      PSM      H15T     HAL2     0.900000E-01   1.00800           0
     23792 MEMB     122      PSM      C16S     CTL2    -0.180000       12.0110           0
     23793 MEMB     122      PSM      H16S     HAL2     0.900000E-01   1.00800           0
     23794 MEMB     122      PSM      H16T     HAL2     0.900000E-01   1.00800           0
     23795 MEMB     122      PSM      C17S     CTL2    -0.180000       12.0110           0
     23796 MEMB     122      PSM      H17S     HAL2     0.900000E-01   1.00800           0
     23797 MEMB     122      PSM      H17T     HAL2     0.900000E-01   1.00800           0
     23798 MEMB     122      PSM      C18S     CTL3    -0.270000       12.0110           0
     23799 MEMB     122      PSM      H18S     HAL3     0.900000E-01   1.00800           0
     23800 MEMB     122      PSM      H18T     HAL3     0.900000E-01   1.00800           0
     23801 MEMB     122      PSM      H18U     HAL3     0.900000E-01   1.00800           0
     23802 MEMB     122      PSM      C1F      C        0.550000       12.0110           0
     23803 MEMB     122      PSM      OF       O       -0.600000       15.9994           0
     23804 MEMB     122      PSM      C2F      CTL2    -0.700000E-01   12.0110           0
     23805 MEMB     122      PSM      H2F      HAL2     0.600000E-01   1.00800           0
     23806 MEMB     122      PSM      H2G      HAL2     0.600000E-01   1.00800           0
     23807 MEMB     122      PSM      C3F      CTL2    -0.180000       12.0110           0
     23808 MEMB     122      PSM      H3F      HAL2     0.900000E-01   1.00800           0
     23809 MEMB     122      PSM      H3G      HAL2     0.900000E-01   1.00800           0
     23810 MEMB     122      PSM      C4F      CTL2    -0.180000       12.0110           0
     23811 MEMB     122      PSM      H4F      HAL2     0.900000E-01   1.00800           0
     23812 MEMB     122      PSM      H4G      HAL2     0.900000E-01   1.00800           0
     23813 MEMB     122      PSM      C5F      CTL2    -0.180000       12.0110           0
     23814 MEMB     122      PSM      H5F      HAL2     0.900000E-01   1.00800           0
     23815 MEMB     122      PSM      H5G      HAL2     0.900000E-01   1.00800           0
     23816 MEMB     122      PSM      C6F      CTL2    -0.180000       12.0110           0
     23817 MEMB     122      PSM      H6F      HAL2     0.900000E-01   1.00800           0
     23818 MEMB     122      PSM      H6G      HAL2     0.900000E-01   1.00800           0
     23819 MEMB     122      PSM      C7F      CTL2    -0.180000       12.0110           0
     23820 MEMB     122      PSM      H7F      HAL2     0.900000E-01   1.00800           0
     23821 MEMB     122      PSM      H7G      HAL2     0.900000E-01   1.00800           0
     23822 MEMB     122      PSM      C8F      CTL2    -0.180000       12.0110           0
     23823 MEMB     122      PSM      H8F      HAL2     0.900000E-01   1.00800           0
     23824 MEMB     122      PSM      H8G      HAL2     0.900000E-01   1.00800           0
     23825 MEMB     122      PSM      C9F      CTL2    -0.180000       12.0110           0
     23826 MEMB     122      PSM      H9F      HAL2     0.900000E-01   1.00800           0
     23827 MEMB     122      PSM      H9G      HAL2     0.900000E-01   1.00800           0
     23828 MEMB     122      PSM      C10F     CTL2    -0.180000       12.0110           0
     23829 MEMB     122      PSM      H10F     HAL2     0.900000E-01   1.00800           0
     23830 MEMB     122      PSM      H10G     HAL2     0.900000E-01   1.00800           0
     23831 MEMB     122      PSM      C11F     CTL2    -0.180000       12.0110           0
     23832 MEMB     122      PSM      H11F     HAL2     0.900000E-01   1.00800           0
     23833 MEMB     122      PSM      H11G     HAL2     0.900000E-01   1.00800           0
     23834 MEMB     122      PSM      C12F     CTL2    -0.180000       12.0110           0
     23835 MEMB     122      PSM      H12F     HAL2     0.900000E-01   1.00800           0
     23836 MEMB     122      PSM      H12G     HAL2     0.900000E-01   1.00800           0
     23837 MEMB     122      PSM      C13F     CTL2    -0.180000       12.0110           0
     23838 MEMB     122      PSM      H13F     HAL2     0.900000E-01   1.00800           0
     23839 MEMB     122      PSM      H13G     HAL2     0.900000E-01   1.00800           0
     23840 MEMB     122      PSM      C14F     CTL2    -0.180000       12.0110           0
     23841 MEMB     122      PSM      H14F     HAL2     0.900000E-01   1.00800           0
     23842 MEMB     122      PSM      H14G     HAL2     0.900000E-01   1.00800           0
     23843 MEMB     122      PSM      C15F     CTL2    -0.180000       12.0110           0
     23844 MEMB     122      PSM      H15F     HAL2     0.900000E-01   1.00800           0
     23845 MEMB     122      PSM      H15G     HAL2     0.900000E-01   1.00800           0
     23846 MEMB     122      PSM      C16F     CTL3    -0.270000       12.0110           0
     23847 MEMB     122      PSM      H16F     HAL3     0.900000E-01   1.00800           0
     23848 MEMB     122      PSM      H16G     HAL3     0.900000E-01   1.00800           0
     23849 MEMB     122      PSM      H16H     HAL3     0.900000E-01   1.00800           0
     23850 MEMB     123      PSM      N        NTL     -0.600000       14.0070           0
     23851 MEMB     123      PSM      C15      CTL5    -0.350000       12.0110           0
     23852 MEMB     123      PSM      H15A     HL       0.250000       1.00800           0
     23853 MEMB     123      PSM      H15B     HL       0.250000       1.00800           0
     23854 MEMB     123      PSM      H15C     HL       0.250000       1.00800           0
     23855 MEMB     123      PSM      C14      CTL5    -0.350000       12.0110           0
     23856 MEMB     123      PSM      H14A     HL       0.250000       1.00800           0
     23857 MEMB     123      PSM      H14B     HL       0.250000       1.00800           0
     23858 MEMB     123      PSM      H14C     HL       0.250000       1.00800           0
     23859 MEMB     123      PSM      C13      CTL5    -0.350000       12.0110           0
     23860 MEMB     123      PSM      H13A     HL       0.250000       1.00800           0
     23861 MEMB     123      PSM      H13B     HL       0.250000       1.00800           0
     23862 MEMB     123      PSM      H13C     HL       0.250000       1.00800           0
     23863 MEMB     123      PSM      C12      CTL2    -0.100000       12.0110           0
     23864 MEMB     123      PSM      H12A     HL       0.250000       1.00800           0
     23865 MEMB     123      PSM      H12B     HL       0.250000       1.00800           0
     23866 MEMB     123      PSM      C11      CTL2    -0.800000E-01   12.0110           0
     23867 MEMB     123      PSM      H11A     HAL2     0.900000E-01   1.00800           0
     23868 MEMB     123      PSM      H11B     HAL2     0.900000E-01   1.00800           0
     23869 MEMB     123      PSM      P        PL       1.500000       30.9740           0
     23870 MEMB     123      PSM      O13      O2L     -0.780000       15.9994           0
     23871 MEMB     123      PSM      O14      O2L     -0.780000       15.9994           0
     23872 MEMB     123      PSM      O11      OSLP    -0.570000       15.9994           0
     23873 MEMB     123      PSM      O12      OSLP    -0.570000       15.9994           0
     23874 MEMB     123      PSM      C1S      CTL2    -0.800000E-01   12.0110           0
     23875 MEMB     123      PSM      H1S      HAL2     0.900000E-01   1.00800           0
     23876 MEMB     123      PSM      H1T      HAL2     0.900000E-01   1.00800           0
     23877 MEMB     123      PSM      NF       NHL     -0.700000       14.0070           0
     23878 MEMB     123      PSM      HNF      H        0.350000       1.00800           0
     23879 MEMB     123      PSM      C2S      CTL1     0.300000       12.0110           0
     23880 MEMB     123      PSM      H2S      HAL1     0.500000E-01   1.00800           0
     23881 MEMB     123      PSM      C3S      CTO1     0.500000       12.0110           0
     23882 MEMB     123      PSM      H3S      HAL1    -0.110000       1.00800           0
     23883 MEMB     123      PSM      O3       OHL     -0.690000       15.9994           0
     23884 MEMB     123      PSM      HO3      HOL      0.300000       1.00800           0
     23885 MEMB     123      PSM      C4S      CEL3    -0.150000       12.0110           0
     23886 MEMB     123      PSM      H4S      HEL1     0.150000       1.00800           0
     23887 MEMB     123      PSM      C5S      CEL3    -0.150000       12.0110           0
     23888 MEMB     123      PSM      H5S      HEL1     0.150000       1.00800           0
     23889 MEMB     123      PSM      C6S      CTL2    -0.180000       12.0110           0
     23890 MEMB     123      PSM      H6S      HAL2     0.900000E-01   1.00800           0
     23891 MEMB     123      PSM      H6T      HAL2     0.900000E-01   1.00800           0
     23892 MEMB     123      PSM      C7S      CTL2    -0.180000       12.0110           0
     23893 MEMB     123      PSM      H7S      HAL2     0.900000E-01   1.00800           0
     23894 MEMB     123      PSM      H7T      HAL2     0.900000E-01   1.00800           0
     23895 MEMB     123      PSM      C8S      CTL2    -0.180000       12.0110           0
     23896 MEMB     123      PSM      H8S      HAL2     0.900000E-01   1.00800           0
     23897 MEMB     123      PSM      H8T      HAL2     0.900000E-01   1.00800           0
     23898 MEMB     123      PSM      C9S      CTL2    -0.180000       12.0110           0
     23899 MEMB     123      PSM      H9S      HAL2     0.900000E-01   1.00800           0
     23900 MEMB     123      PSM      H9T      HAL2     0.900000E-01   1.00800           0
     23901 MEMB     123      PSM      C10S     CTL2    -0.180000       12.0110           0
     23902 MEMB     123      PSM      H10S     HAL2     0.900000E-01   1.00800           0
     23903 MEMB     123      PSM      H10T     HAL2     0.900000E-01   1.00800           0
     23904 MEMB     123      PSM      C11S     CTL2    -0.180000       12.0110           0
     23905 MEMB     123      PSM      H11S     HAL2     0.900000E-01   1.00800           0
     23906 MEMB     123      PSM      H11T     HAL2     0.900000E-01   1.00800           0
     23907 MEMB     123      PSM      C12S     CTL2    -0.180000       12.0110           0
     23908 MEMB     123      PSM      H12S     HAL2     0.900000E-01   1.00800           0
     23909 MEMB     123      PSM      H12T     HAL2     0.900000E-01   1.00800           0
     23910 MEMB     123      PSM      C13S     CTL2    -0.180000       12.0110           0
     23911 MEMB     123      PSM      H13S     HAL2     0.900000E-01   1.00800           0
     23912 MEMB     123      PSM      H13T     HAL2     0.900000E-01   1.00800           0
     23913 MEMB     123      PSM      C14S     CTL2    -0.180000       12.0110           0
     23914 MEMB     123      PSM      H14S     HAL2     0.900000E-01   1.00800           0
     23915 MEMB     123      PSM      H14T     HAL2     0.900000E-01   1.00800           0
     23916 MEMB     123      PSM      C15S     CTL2    -0.180000       12.0110           0
     23917 MEMB     123      PSM      H15S     HAL2     0.900000E-01   1.00800           0
     23918 MEMB     123      PSM      H15T     HAL2     0.900000E-01   1.00800           0
     23919 MEMB     123      PSM      C16S     CTL2    -0.180000       12.0110           0
     23920 MEMB     123      PSM      H16S     HAL2     0.900000E-01   1.00800           0
     23921 MEMB     123      PSM      H16T     HAL2     0.900000E-01   1.00800           0
     23922 MEMB     123      PSM      C17S     CTL2    -0.180000       12.0110           0
     23923 MEMB     123      PSM      H17S     HAL2     0.900000E-01   1.00800           0
     23924 MEMB     123      PSM      H17T     HAL2     0.900000E-01   1.00800           0
     23925 MEMB     123      PSM      C18S     CTL3    -0.270000       12.0110           0
     23926 MEMB     123      PSM      H18S     HAL3     0.900000E-01   1.00800           0
     23927 MEMB     123      PSM      H18T     HAL3     0.900000E-01   1.00800           0
     23928 MEMB     123      PSM      H18U     HAL3     0.900000E-01   1.00800           0
     23929 MEMB     123      PSM      C1F      C        0.550000       12.0110           0
     23930 MEMB     123      PSM      OF       O       -0.600000       15.9994           0
     23931 MEMB     123      PSM      C2F      CTL2    -0.700000E-01   12.0110           0
     23932 MEMB     123      PSM      H2F      HAL2     0.600000E-01   1.00800           0
     23933 MEMB     123      PSM      H2G      HAL2     0.600000E-01   1.00800           0
     23934 MEMB     123      PSM      C3F      CTL2    -0.180000       12.0110           0
     23935 MEMB     123      PSM      H3F      HAL2     0.900000E-01   1.00800           0
     23936 MEMB     123      PSM      H3G      HAL2     0.900000E-01   1.00800           0
     23937 MEMB     123      PSM      C4F      CTL2    -0.180000       12.0110           0
     23938 MEMB     123      PSM      H4F      HAL2     0.900000E-01   1.00800           0
     23939 MEMB     123      PSM      H4G      HAL2     0.900000E-01   1.00800           0
     23940 MEMB     123      PSM      C5F      CTL2    -0.180000       12.0110           0
     23941 MEMB     123      PSM      H5F      HAL2     0.900000E-01   1.00800           0
     23942 MEMB     123      PSM      H5G      HAL2     0.900000E-01   1.00800           0
     23943 MEMB     123      PSM      C6F      CTL2    -0.180000       12.0110           0
     23944 MEMB     123      PSM      H6F      HAL2     0.900000E-01   1.00800           0
     23945 MEMB     123      PSM      H6G      HAL2     0.900000E-01   1.00800           0
     23946 MEMB     123      PSM      C7F      CTL2    -0.180000       12.0110           0
     23947 MEMB     123      PSM      H7F      HAL2     0.900000E-01   1.00800           0
     23948 MEMB     123      PSM      H7G      HAL2     0.900000E-01   1.00800           0
     23949 MEMB     123      PSM      C8F      CTL2    -0.180000       12.0110           0
     23950 MEMB     123      PSM      H8F      HAL2     0.900000E-01   1.00800           0
     23951 MEMB     123      PSM      H8G      HAL2     0.900000E-01   1.00800           0
     23952 MEMB     123      PSM      C9F      CTL2    -0.180000       12.0110           0
     23953 MEMB     123      PSM      H9F      HAL2     0.900000E-01   1.00800           0
     23954 MEMB     123      PSM      H9G      HAL2     0.900000E-01   1.00800           0
     23955 MEMB     123      PSM      C10F     CTL2    -0.180000       12.0110           0
     23956 MEMB     123      PSM      H10F     HAL2     0.900000E-01   1.00800           0
     23957 MEMB     123      PSM      H10G     HAL2     0.900000E-01   1.00800           0
     23958 MEMB     123      PSM      C11F     CTL2    -0.180000       12.0110           0
     23959 MEMB     123      PSM      H11F     HAL2     0.900000E-01   1.00800           0
     23960 MEMB     123      PSM      H11G     HAL2     0.900000E-01   1.00800           0
     23961 MEMB     123      PSM      C12F     CTL2    -0.180000       12.0110           0
     23962 MEMB     123      PSM      H12F     HAL2     0.900000E-01   1.00800           0
     23963 MEMB     123      PSM      H12G     HAL2     0.900000E-01   1.00800           0
     23964 MEMB     123      PSM      C13F     CTL2    -0.180000       12.0110           0
     23965 MEMB     123      PSM      H13F     HAL2     0.900000E-01   1.00800           0
     23966 MEMB     123      PSM      H13G     HAL2     0.900000E-01   1.00800           0
     23967 MEMB     123      PSM      C14F     CTL2    -0.180000       12.0110           0
     23968 MEMB     123      PSM      H14F     HAL2     0.900000E-01   1.00800           0
     23969 MEMB     123      PSM      H14G     HAL2     0.900000E-01   1.00800           0
     23970 MEMB     123      PSM      C15F     CTL2    -0.180000       12.0110           0
     23971 MEMB     123      PSM      H15F     HAL2     0.900000E-01   1.00800           0
     23972 MEMB     123      PSM      H15G     HAL2     0.900000E-01   1.00800           0
     23973 MEMB     123      PSM      C16F     CTL3    -0.270000       12.0110           0
     23974 MEMB     123      PSM      H16F     HAL3     0.900000E-01   1.00800           0
     23975 MEMB     123      PSM      H16G     HAL3     0.900000E-01   1.00800           0
     23976 MEMB     123      PSM      H16H     HAL3     0.900000E-01   1.00800           0
     23977 MEMB     124      PSM      N        NTL     -0.600000       14.0070           0
     23978 MEMB     124      PSM      C15      CTL5    -0.350000       12.0110           0
     23979 MEMB     124      PSM      H15A     HL       0.250000       1.00800           0
     23980 MEMB     124      PSM      H15B     HL       0.250000       1.00800           0
     23981 MEMB     124      PSM      H15C     HL       0.250000       1.00800           0
     23982 MEMB     124      PSM      C14      CTL5    -0.350000       12.0110           0
     23983 MEMB     124      PSM      H14A     HL       0.250000       1.00800           0
     23984 MEMB     124      PSM      H14B     HL       0.250000       1.00800           0
     23985 MEMB     124      PSM      H14C     HL       0.250000       1.00800           0
     23986 MEMB     124      PSM      C13      CTL5    -0.350000       12.0110           0
     23987 MEMB     124      PSM      H13A     HL       0.250000       1.00800           0
     23988 MEMB     124      PSM      H13B     HL       0.250000       1.00800           0
     23989 MEMB     124      PSM      H13C     HL       0.250000       1.00800           0
     23990 MEMB     124      PSM      C12      CTL2    -0.100000       12.0110           0
     23991 MEMB     124      PSM      H12A     HL       0.250000       1.00800           0
     23992 MEMB     124      PSM      H12B     HL       0.250000       1.00800           0
     23993 MEMB     124      PSM      C11      CTL2    -0.800000E-01   12.0110           0
     23994 MEMB     124      PSM      H11A     HAL2     0.900000E-01   1.00800           0
     23995 MEMB     124      PSM      H11B     HAL2     0.900000E-01   1.00800           0
     23996 MEMB     124      PSM      P        PL       1.500000       30.9740           0
     23997 MEMB     124      PSM      O13      O2L     -0.780000       15.9994           0
     23998 MEMB     124      PSM      O14      O2L     -0.780000       15.9994           0
     23999 MEMB     124      PSM      O11      OSLP    -0.570000       15.9994           0
     24000 MEMB     124      PSM      O12      OSLP    -0.570000       15.9994           0
     24001 MEMB     124      PSM      C1S      CTL2    -0.800000E-01   12.0110           0
     24002 MEMB     124      PSM      H1S      HAL2     0.900000E-01   1.00800           0
     24003 MEMB     124      PSM      H1T      HAL2     0.900000E-01   1.00800           0
     24004 MEMB     124      PSM      NF       NHL     -0.700000       14.0070           0
     24005 MEMB     124      PSM      HNF      H        0.350000       1.00800           0
     24006 MEMB     124      PSM      C2S      CTL1     0.300000       12.0110           0
     24007 MEMB     124      PSM      H2S      HAL1     0.500000E-01   1.00800           0
     24008 MEMB     124      PSM      C3S      CTO1     0.500000       12.0110           0
     24009 MEMB     124      PSM      H3S      HAL1    -0.110000       1.00800           0
     24010 MEMB     124      PSM      O3       OHL     -0.690000       15.9994           0
     24011 MEMB     124      PSM      HO3      HOL      0.300000       1.00800           0
     24012 MEMB     124      PSM      C4S      CEL3    -0.150000       12.0110           0
     24013 MEMB     124      PSM      H4S      HEL1     0.150000       1.00800           0
     24014 MEMB     124      PSM      C5S      CEL3    -0.150000       12.0110           0
     24015 MEMB     124      PSM      H5S      HEL1     0.150000       1.00800           0
     24016 MEMB     124      PSM      C6S      CTL2    -0.180000       12.0110           0
     24017 MEMB     124      PSM      H6S      HAL2     0.900000E-01   1.00800           0
     24018 MEMB     124      PSM      H6T      HAL2     0.900000E-01   1.00800           0
     24019 MEMB     124      PSM      C7S      CTL2    -0.180000       12.0110           0
     24020 MEMB     124      PSM      H7S      HAL2     0.900000E-01   1.00800           0
     24021 MEMB     124      PSM      H7T      HAL2     0.900000E-01   1.00800           0
     24022 MEMB     124      PSM      C8S      CTL2    -0.180000       12.0110           0
     24023 MEMB     124      PSM      H8S      HAL2     0.900000E-01   1.00800           0
     24024 MEMB     124      PSM      H8T      HAL2     0.900000E-01   1.00800           0
     24025 MEMB     124      PSM      C9S      CTL2    -0.180000       12.0110           0
     24026 MEMB     124      PSM      H9S      HAL2     0.900000E-01   1.00800           0
     24027 MEMB     124      PSM      H9T      HAL2     0.900000E-01   1.00800           0
     24028 MEMB     124      PSM      C10S     CTL2    -0.180000       12.0110           0
     24029 MEMB     124      PSM      H10S     HAL2     0.900000E-01   1.00800           0
     24030 MEMB     124      PSM      H10T     HAL2     0.900000E-01   1.00800           0
     24031 MEMB     124      PSM      C11S     CTL2    -0.180000       12.0110           0
     24032 MEMB     124      PSM      H11S     HAL2     0.900000E-01   1.00800           0
     24033 MEMB     124      PSM      H11T     HAL2     0.900000E-01   1.00800           0
     24034 MEMB     124      PSM      C12S     CTL2    -0.180000       12.0110           0
     24035 MEMB     124      PSM      H12S     HAL2     0.900000E-01   1.00800           0
     24036 MEMB     124      PSM      H12T     HAL2     0.900000E-01   1.00800           0
     24037 MEMB     124      PSM      C13S     CTL2    -0.180000       12.0110           0
     24038 MEMB     124      PSM      H13S     HAL2     0.900000E-01   1.00800           0
     24039 MEMB     124      PSM      H13T     HAL2     0.900000E-01   1.00800           0
     24040 MEMB     124      PSM      C14S     CTL2    -0.180000       12.0110           0
     24041 MEMB     124      PSM      H14S     HAL2     0.900000E-01   1.00800           0
     24042 MEMB     124      PSM      H14T     HAL2     0.900000E-01   1.00800           0
     24043 MEMB     124      PSM      C15S     CTL2    -0.180000       12.0110           0
     24044 MEMB     124      PSM      H15S     HAL2     0.900000E-01   1.00800           0
     24045 MEMB     124      PSM      H15T     HAL2     0.900000E-01   1.00800           0
     24046 MEMB     124      PSM      C16S     CTL2    -0.180000       12.0110           0
     24047 MEMB     124      PSM      H16S     HAL2     0.900000E-01   1.00800           0
     24048 MEMB     124      PSM      H16T     HAL2     0.900000E-01   1.00800           0
     24049 MEMB     124      PSM      C17S     CTL2    -0.180000       12.0110           0
     24050 MEMB     124      PSM      H17S     HAL2     0.900000E-01   1.00800           0
     24051 MEMB     124      PSM      H17T     HAL2     0.900000E-01   1.00800           0
     24052 MEMB     124      PSM      C18S     CTL3    -0.270000       12.0110           0
     24053 MEMB     124      PSM      H18S     HAL3     0.900000E-01   1.00800           0
     24054 MEMB     124      PSM      H18T     HAL3     0.900000E-01   1.00800           0
     24055 MEMB     124      PSM      H18U     HAL3     0.900000E-01   1.00800           0
     24056 MEMB     124      PSM      C1F      C        0.550000       12.0110           0
     24057 MEMB     124      PSM      OF       O       -0.600000       15.9994           0
     24058 MEMB     124      PSM      C2F      CTL2    -0.700000E-01   12.0110           0
     24059 MEMB     124      PSM      H2F      HAL2     0.600000E-01   1.00800           0
     24060 MEMB     124      PSM      H2G      HAL2     0.600000E-01   1.00800           0
     24061 MEMB     124      PSM      C3F      CTL2    -0.180000       12.0110           0
     24062 MEMB     124      PSM      H3F      HAL2     0.900000E-01   1.00800           0
     24063 MEMB     124      PSM      H3G      HAL2     0.900000E-01   1.00800           0
     24064 MEMB     124      PSM      C4F      CTL2    -0.180000       12.0110           0
     24065 MEMB     124      PSM      H4F      HAL2     0.900000E-01   1.00800           0
     24066 MEMB     124      PSM      H4G      HAL2     0.900000E-01   1.00800           0
     24067 MEMB     124      PSM      C5F      CTL2    -0.180000       12.0110           0
     24068 MEMB     124      PSM      H5F      HAL2     0.900000E-01   1.00800           0
     24069 MEMB     124      PSM      H5G      HAL2     0.900000E-01   1.00800           0
     24070 MEMB     124      PSM      C6F      CTL2    -0.180000       12.0110           0
     24071 MEMB     124      PSM      H6F      HAL2     0.900000E-01   1.00800           0
     24072 MEMB     124      PSM      H6G      HAL2     0.900000E-01   1.00800           0
     24073 MEMB     124      PSM      C7F      CTL2    -0.180000       12.0110           0
     24074 MEMB     124      PSM      H7F      HAL2     0.900000E-01   1.00800           0
     24075 MEMB     124      PSM      H7G      HAL2     0.900000E-01   1.00800           0
     24076 MEMB     124      PSM      C8F      CTL2    -0.180000       12.0110           0
     24077 MEMB     124      PSM      H8F      HAL2     0.900000E-01   1.00800           0
     24078 MEMB     124      PSM      H8G      HAL2     0.900000E-01   1.00800           0
     24079 MEMB     124      PSM      C9F      CTL2    -0.180000       12.0110           0
     24080 MEMB     124      PSM      H9F      HAL2     0.900000E-01   1.00800           0
     24081 MEMB     124      PSM      H9G      HAL2     0.900000E-01   1.00800           0
     24082 MEMB     124      PSM      C10F     CTL2    -0.180000       12.0110           0
     24083 MEMB     124      PSM      H10F     HAL2     0.900000E-01   1.00800           0
     24084 MEMB     124      PSM      H10G     HAL2     0.900000E-01   1.00800           0
     24085 MEMB     124      PSM      C11F     CTL2    -0.180000       12.0110           0
     24086 MEMB     124      PSM      H11F     HAL2     0.900000E-01   1.00800           0
     24087 MEMB     124      PSM      H11G     HAL2     0.900000E-01   1.00800           0
     24088 MEMB     124      PSM      C12F     CTL2    -0.180000       12.0110           0
     24089 MEMB     124      PSM      H12F     HAL2     0.900000E-01   1.00800           0
     24090 MEMB     124      PSM      H12G     HAL2     0.900000E-01   1.00800           0
     24091 MEMB     124      PSM      C13F     CTL2    -0.180000       12.0110           0
     24092 MEMB     124      PSM      H13F     HAL2     0.900000E-01   1.00800           0
     24093 MEMB     124      PSM      H13G     HAL2     0.900000E-01   1.00800           0
     24094 MEMB     124      PSM      C14F     CTL2    -0.180000       12.0110           0
     24095 MEMB     124      PSM      H14F     HAL2     0.900000E-01   1.00800           0
     24096 MEMB     124      PSM      H14G     HAL2     0.900000E-01   1.00800           0
     24097 MEMB     124      PSM      C15F     CTL2    -0.180000       12.0110           0
     24098 MEMB     124      PSM      H15F     HAL2     0.900000E-01   1.00800           0
     24099 MEMB     124      PSM      H15G     HAL2     0.900000E-01   1.00800           0
     24100 MEMB     124      PSM      C16F     CTL3    -0.270000       12.0110           0
     24101 MEMB     124      PSM      H16F     HAL3     0.900000E-01   1.00800           0
     24102 MEMB     124      PSM      H16G     HAL3     0.900000E-01   1.00800           0
     24103 MEMB     124      PSM      H16H     HAL3     0.900000E-01   1.00800           0
     24104 MEMB     125      PSM      N        NTL     -0.600000       14.0070           0
     24105 MEMB     125      PSM      C15      CTL5    -0.350000       12.0110           0
     24106 MEMB     125      PSM      H15A     HL       0.250000       1.00800           0
     24107 MEMB     125      PSM      H15B     HL       0.250000       1.00800           0
     24108 MEMB     125      PSM      H15C     HL       0.250000       1.00800           0
     24109 MEMB     125      PSM      C14      CTL5    -0.350000       12.0110           0
     24110 MEMB     125      PSM      H14A     HL       0.250000       1.00800           0
     24111 MEMB     125      PSM      H14B     HL       0.250000       1.00800           0
     24112 MEMB     125      PSM      H14C     HL       0.250000       1.00800           0
     24113 MEMB     125      PSM      C13      CTL5    -0.350000       12.0110           0
     24114 MEMB     125      PSM      H13A     HL       0.250000       1.00800           0
     24115 MEMB     125      PSM      H13B     HL       0.250000       1.00800           0
     24116 MEMB     125      PSM      H13C     HL       0.250000       1.00800           0
     24117 MEMB     125      PSM      C12      CTL2    -0.100000       12.0110           0
     24118 MEMB     125      PSM      H12A     HL       0.250000       1.00800           0
     24119 MEMB     125      PSM      H12B     HL       0.250000       1.00800           0
     24120 MEMB     125      PSM      C11      CTL2    -0.800000E-01   12.0110           0
     24121 MEMB     125      PSM      H11A     HAL2     0.900000E-01   1.00800           0
     24122 MEMB     125      PSM      H11B     HAL2     0.900000E-01   1.00800           0
     24123 MEMB     125      PSM      P        PL       1.500000       30.9740           0
     24124 MEMB     125      PSM      O13      O2L     -0.780000       15.9994           0
     24125 MEMB     125      PSM      O14      O2L     -0.780000       15.9994           0
     24126 MEMB     125      PSM      O11      OSLP    -0.570000       15.9994           0
     24127 MEMB     125      PSM      O12      OSLP    -0.570000       15.9994           0
     24128 MEMB     125      PSM      C1S      CTL2    -0.800000E-01   12.0110           0
     24129 MEMB     125      PSM      H1S      HAL2     0.900000E-01   1.00800           0
     24130 MEMB     125      PSM      H1T      HAL2     0.900000E-01   1.00800           0
     24131 MEMB     125      PSM      NF       NHL     -0.700000       14.0070           0
     24132 MEMB     125      PSM      HNF      H        0.350000       1.00800           0
     24133 MEMB     125      PSM      C2S      CTL1     0.300000       12.0110           0
     24134 MEMB     125      PSM      H2S      HAL1     0.500000E-01   1.00800           0
     24135 MEMB     125      PSM      C3S      CTO1     0.500000       12.0110           0
     24136 MEMB     125      PSM      H3S      HAL1    -0.110000       1.00800           0
     24137 MEMB     125      PSM      O3       OHL     -0.690000       15.9994           0
     24138 MEMB     125      PSM      HO3      HOL      0.300000       1.00800           0
     24139 MEMB     125      PSM      C4S      CEL3    -0.150000       12.0110           0
     24140 MEMB     125      PSM      H4S      HEL1     0.150000       1.00800           0
     24141 MEMB     125      PSM      C5S      CEL3    -0.150000       12.0110           0
     24142 MEMB     125      PSM      H5S      HEL1     0.150000       1.00800           0
     24143 MEMB     125      PSM      C6S      CTL2    -0.180000       12.0110           0
     24144 MEMB     125      PSM      H6S      HAL2     0.900000E-01   1.00800           0
     24145 MEMB     125      PSM      H6T      HAL2     0.900000E-01   1.00800           0
     24146 MEMB     125      PSM      C7S      CTL2    -0.180000       12.0110           0
     24147 MEMB     125      PSM      H7S      HAL2     0.900000E-01   1.00800           0
     24148 MEMB     125      PSM      H7T      HAL2     0.900000E-01   1.00800           0
     24149 MEMB     125      PSM      C8S      CTL2    -0.180000       12.0110           0
     24150 MEMB     125      PSM      H8S      HAL2     0.900000E-01   1.00800           0
     24151 MEMB     125      PSM      H8T      HAL2     0.900000E-01   1.00800           0
     24152 MEMB     125      PSM      C9S      CTL2    -0.180000       12.0110           0
     24153 MEMB     125      PSM      H9S      HAL2     0.900000E-01   1.00800           0
     24154 MEMB     125      PSM      H9T      HAL2     0.900000E-01   1.00800           0
     24155 MEMB     125      PSM      C10S     CTL2    -0.180000       12.0110           0
     24156 MEMB     125      PSM      H10S     HAL2     0.900000E-01   1.00800           0
     24157 MEMB     125      PSM      H10T     HAL2     0.900000E-01   1.00800           0
     24158 MEMB     125      PSM      C11S     CTL2    -0.180000       12.0110           0
     24159 MEMB     125      PSM      H11S     HAL2     0.900000E-01   1.00800           0
     24160 MEMB     125      PSM      H11T     HAL2     0.900000E-01   1.00800           0
     24161 MEMB     125      PSM      C12S     CTL2    -0.180000       12.0110           0
     24162 MEMB     125      PSM      H12S     HAL2     0.900000E-01   1.00800           0
     24163 MEMB     125      PSM      H12T     HAL2     0.900000E-01   1.00800           0
     24164 MEMB     125      PSM      C13S     CTL2    -0.180000       12.0110           0
     24165 MEMB     125      PSM      H13S     HAL2     0.900000E-01   1.00800           0
     24166 MEMB     125      PSM      H13T     HAL2     0.900000E-01   1.00800           0
     24167 MEMB     125      PSM      C14S     CTL2    -0.180000       12.0110           0
     24168 MEMB     125      PSM      H14S     HAL2     0.900000E-01   1.00800           0
     24169 MEMB     125      PSM      H14T     HAL2     0.900000E-01   1.00800           0
     24170 MEMB     125      PSM      C15S     CTL2    -0.180000       12.0110           0
     24171 MEMB     125      PSM      H15S     HAL2     0.900000E-01   1.00800           0
     24172 MEMB     125      PSM      H15T     HAL2     0.900000E-01   1.00800           0
     24173 MEMB     125      PSM      C16S     CTL2    -0.180000       12.0110           0
     24174 MEMB     125      PSM      H16S     HAL2     0.900000E-01   1.00800           0
     24175 MEMB     125      PSM      H16T     HAL2     0.900000E-01   1.00800           0
     24176 MEMB     125      PSM      C17S     CTL2    -0.180000       12.0110           0
     24177 MEMB     125      PSM      H17S     HAL2     0.900000E-01   1.00800           0
     24178 MEMB     125      PSM      H17T     HAL2     0.900000E-01   1.00800           0
     24179 MEMB     125      PSM      C18S     CTL3    -0.270000       12.0110           0
     24180 MEMB     125      PSM      H18S     HAL3     0.900000E-01   1.00800           0
     24181 MEMB     125      PSM      H18T     HAL3     0.900000E-01   1.00800           0
     24182 MEMB     125      PSM      H18U     HAL3     0.900000E-01   1.00800           0
     24183 MEMB     125      PSM      C1F      C        0.550000       12.0110           0
     24184 MEMB     125      PSM      OF       O       -0.600000       15.9994           0
     24185 MEMB     125      PSM      C2F      CTL2    -0.700000E-01   12.0110           0
     24186 MEMB     125      PSM      H2F      HAL2     0.600000E-01   1.00800           0
     24187 MEMB     125      PSM      H2G      HAL2     0.600000E-01   1.00800           0
     24188 MEMB     125      PSM      C3F      CTL2    -0.180000       12.0110           0
     24189 MEMB     125      PSM      H3F      HAL2     0.900000E-01   1.00800           0
     24190 MEMB     125      PSM      H3G      HAL2     0.900000E-01   1.00800           0
     24191 MEMB     125      PSM      C4F      CTL2    -0.180000       12.0110           0
     24192 MEMB     125      PSM      H4F      HAL2     0.900000E-01   1.00800           0
     24193 MEMB     125      PSM      H4G      HAL2     0.900000E-01   1.00800           0
     24194 MEMB     125      PSM      C5F      CTL2    -0.180000       12.0110           0
     24195 MEMB     125      PSM      H5F      HAL2     0.900000E-01   1.00800           0
     24196 MEMB     125      PSM      H5G      HAL2     0.900000E-01   1.00800           0
     24197 MEMB     125      PSM      C6F      CTL2    -0.180000       12.0110           0
     24198 MEMB     125      PSM      H6F      HAL2     0.900000E-01   1.00800           0
     24199 MEMB     125      PSM      H6G      HAL2     0.900000E-01   1.00800           0
     24200 MEMB     125      PSM      C7F      CTL2    -0.180000       12.0110           0
     24201 MEMB     125      PSM      H7F      HAL2     0.900000E-01   1.00800           0
     24202 MEMB     125      PSM      H7G      HAL2     0.900000E-01   1.00800           0
     24203 MEMB     125      PSM      C8F      CTL2    -0.180000       12.0110           0
     24204 MEMB     125      PSM      H8F      HAL2     0.900000E-01   1.00800           0
     24205 MEMB     125      PSM      H8G      HAL2     0.900000E-01   1.00800           0
     24206 MEMB     125      PSM      C9F      CTL2    -0.180000       12.0110           0
     24207 MEMB     125      PSM      H9F      HAL2     0.900000E-01   1.00800           0
     24208 MEMB     125      PSM      H9G      HAL2     0.900000E-01   1.00800           0
     24209 MEMB     125      PSM      C10F     CTL2    -0.180000       12.0110           0
     24210 MEMB     125      PSM      H10F     HAL2     0.900000E-01   1.00800           0
     24211 MEMB     125      PSM      H10G     HAL2     0.900000E-01   1.00800           0
     24212 MEMB     125      PSM      C11F     CTL2    -0.180000       12.0110           0
     24213 MEMB     125      PSM      H11F     HAL2     0.900000E-01   1.00800           0
     24214 MEMB     125      PSM      H11G     HAL2     0.900000E-01   1.00800           0
     24215 MEMB     125      PSM      C12F     CTL2    -0.180000       12.0110           0
     24216 MEMB     125      PSM      H12F     HAL2     0.900000E-01   1.00800           0
     24217 MEMB     125      PSM      H12G     HAL2     0.900000E-01   1.00800           0
     24218 MEMB     125      PSM      C13F     CTL2    -0.180000       12.0110           0
     24219 MEMB     125      PSM      H13F     HAL2     0.900000E-01   1.00800           0
     24220 MEMB     125      PSM      H13G     HAL2     0.900000E-01   1.00800           0
     24221 MEMB     125      PSM      C14F     CTL2    -0.180000       12.0110           0
     24222 MEMB     125      PSM      H14F     HAL2     0.900000E-01   1.00800           0
     24223 MEMB     125      PSM      H14G     HAL2     0.900000E-01   1.00800           0
     24224 MEMB     125      PSM      C15F     CTL2    -0.180000       12.0110           0
     24225 MEMB     125      PSM      H15F     HAL2     0.900000E-01   1.00800           0
     24226 MEMB     125      PSM      H15G     HAL2     0.900000E-01   1.00800           0
     24227 MEMB     125      PSM      C16F     CTL3    -0.270000       12.0110           0
     24228 MEMB     125      PSM      H16F     HAL3     0.900000E-01   1.00800           0
     24229 MEMB     125      PSM      H16G     HAL3     0.900000E-01   1.00800           0
     24230 MEMB     125      PSM      H16H     HAL3     0.900000E-01   1.00800           0
     24231 IONS     1        SOD      SOD      SOD      1.000000       22.9898           0
     24232 IONS     2        SOD      SOD      SOD      1.000000       22.9898           0
     24233 IONS     3        SOD      SOD      SOD      1.000000       22.9898           0
     24234 IONS     4        SOD      SOD      SOD      1.000000       22.9898           0
     24235 IONS     5        SOD      SOD      SOD      1.000000       22.9898           0
     24236 IONS     6        SOD      SOD      SOD      1.000000       22.9898           0
     24237 IONS     7        SOD      SOD      SOD      1.000000       22.9898           0
     24238 IONS     8        SOD      SOD      SOD      1.000000       22.9898           0
     24239 IONS     9        SOD      SOD      SOD      1.000000       22.9898           0
     24240 IONS     10       SOD      SOD      SOD      1.000000       22.9898           0
     24241 IONS     11       SOD      SOD      SOD      1.000000       22.9898           0
     24242 IONS     12       SOD      SOD      SOD      1.000000       22.9898           0
     24243 IONS     13       SOD      SOD      SOD      1.000000       22.9898           0
     24244 IONS     14       SOD      SOD      SOD      1.000000       22.9898           0
     24245 IONS     15       SOD      SOD      SOD      1.000000       22.9898           0
     24246 IONS     16       SOD      SOD      SOD      1.000000       22.9898           0
     24247 IONS     17       SOD      SOD      SOD      1.000000       22.9898           0
     24248 IONS     18       SOD      SOD      SOD      1.000000       22.9898           0
     24249 IONS     19       SOD      SOD      SOD      1.000000       22.9898           0
     24250 IONS     20       SOD      SOD      SOD      1.000000       22.9898           0
     24251 IONS     21       SOD      SOD      SOD      1.000000       22.9898           0
     24252 IONS     22       SOD      SOD      SOD      1.000000       22.9898           0
     24253 IONS     23       SOD      SOD      SOD      1.000000       22.9898           0
     24254 IONS     24       SOD      SOD      SOD      1.000000       22.9898           0
     24255 IONS     25       SOD      SOD      SOD      1.000000       22.9898           0
     24256 IONS     26       SOD      SOD      SOD      1.000000       22.9898           0
     24257 IONS     27       SOD      SOD      SOD      1.000000       22.9898           0
     24258 IONS     28       SOD      SOD      SOD      1.000000       22.9898           0
     24259 IONS     29       SOD      SOD      SOD      1.000000       22.9898           0
     24260 IONS     30       SOD      SOD      SOD      1.000000       22.9898           0
     24261 IONS     31       SOD      SOD      SOD      1.000000       22.9898           0
     24262 IONS     32       SOD      SOD      SOD      1.000000       22.9898           0
     24263 IONS     33       SOD      SOD      SOD      1.000000       22.9898           0
     24264 IONS     34       SOD      SOD      SOD      1.000000       22.9898           0
     24265 IONS     35       SOD      SOD      SOD      1.000000       22.9898           0
     24266 IONS     36       SOD      SOD      SOD      1.000000       22.9898           0
     24267 IONS     37       SOD      SOD      SOD      1.000000       22.9898           0
     24268 IONS     38       SOD      SOD      SOD      1.000000       22.9898           0
     24269 IONS     39       SOD      SOD      SOD      1.000000       22.9898           0
     24270 IONS     40       SOD      SOD      SOD      1.000000       22.9898           0
     24271 IONS     41       SOD      SOD      SOD      1.000000       22.9898           0
     24272 IONS     42       SOD      SOD      SOD      1.000000       22.9898           0
     24273 IONS     43       SOD      SOD      SOD      1.000000       22.9898           0
     24274 IONS     44       SOD      SOD      SOD      1.000000       22.9898           0
     24275 IONS     45       SOD      SOD      SOD      1.000000       22.9898           0
     24276 IONS     46       SOD      SOD      SOD      1.000000       22.9898           0
     24277 IONS     47       SOD      SOD      SOD      1.000000       22.9898           0
     24278 IONS     48       SOD      SOD      SOD      1.000000       22.9898           0
     24279 IONS     49       SOD      SOD      SOD      1.000000       22.9898           0
     24280 IONS     50       SOD      SOD      SOD      1.000000       22.9898           0
     24281 IONS     51       SOD      SOD      SOD      1.000000       22.9898           0
     24282 IONS     52       SOD      SOD      SOD      1.000000       22.9898           0
     24283 IONS     53       SOD      SOD      SOD      1.000000       22.9898           0
     24284 IONS     54       SOD      SOD      SOD      1.000000       22.9898           0
     24285 IONS     55       SOD      SOD      SOD      1.000000       22.9898           0
     24286 IONS     56       SOD      SOD      SOD      1.000000       22.9898           0
     24287 IONS     57       SOD      SOD      SOD      1.000000       22.9898           0
     24288 IONS     58       SOD      SOD      SOD      1.000000       22.9898           0
     24289 IONS     59       SOD      SOD      SOD      1.000000       22.9898           0
     24290 IONS     60       SOD      SOD      SOD      1.000000       22.9898           0
     24291 IONS     61       SOD      SOD      SOD      1.000000       22.9898           0
     24292 IONS     62       SOD      SOD      SOD      1.000000       22.9898           0
     24293 IONS     63       SOD      SOD      SOD      1.000000       22.9898           0
     24294 IONS     64       SOD      SOD      SOD      1.000000       22.9898           0
     24295 IONS     65       SOD      SOD      SOD      1.000000       22.9898           0
     24296 IONS     66       SOD      SOD      SOD      1.000000       22.9898           0
     24297 IONS     67       SOD      SOD      SOD      1.000000       22.9898           0
     24298 IONS     68       SOD      SOD      SOD      1.000000       22.9898           0
     24299 IONS     69       SOD      SOD      SOD      1.000000       22.9898           0
     24300 IONS     70       CLA      CLA      CLA     -1.000000       35.4500           0
     24301 IONS     71       CLA      CLA      CLA     -1.000000       35.4500           0
     24302 IONS     72       CLA      CLA      CLA     -1.000000       35.4500           0
     24303 IONS     73       CLA      CLA      CLA     -1.000000       35.4500           0
     24304 IONS     74       CLA      CLA      CLA     -1.000000       35.4500           0
     24305 IONS     75       CLA      CLA      CLA     -1.000000       35.4500           0
     24306 IONS     76       CLA      CLA      CLA     -1.000000       35.4500           0
     24307 IONS     77       CLA      CLA      CLA     -1.000000       35.4500           0
     24308 IONS     78       CLA      CLA      CLA     -1.000000       35.4500           0
     24309 IONS     79       CLA      CLA      CLA     -1.000000       35.4500           0
     24310 IONS     80       CLA      CLA      CLA     -1.000000       35.4500           0
     24311 IONS     81       CLA      CLA      CLA     -1.000000       35.4500           0
     24312 IONS     82       CLA      CLA      CLA     -1.000000       35.4500           0
     24313 IONS     83       CLA      CLA      CLA     -1.000000       35.4500           0
     24314 IONS     84       CLA      CLA      CLA     -1.000000       35.4500           0
     24315 IONS     85       CLA      CLA      CLA     -1.000000       35.4500           0
     24316 IONS     86       CLA      CLA      CLA     -1.000000       35.4500           0
     24317 IONS     87       CLA      CLA      CLA     -1.000000       35.4500           0
     24318 IONS     88       CLA      CLA      CLA     -1.000000       35.4500           0
     24319 TIP3     1        TIP3     OH2      OT      -0.834000       15.9994           0
     24320 TIP3     1        TIP3     H1       HT       0.417000       1.00800           0
     24321 TIP3     1        TIP3     H2       HT       0.417000       1.00800           0
     24322 TIP3     2        TIP3     OH2      OT      -0.834000       15.9994           0
     24323 TIP3     2        TIP3     H1       HT       0.417000       1.00800           0
     24324 TIP3     2        TIP3     H2       HT       0.417000       1.00800           0
     24325 TIP3     3        TIP3     OH2      OT      -0.834000       15.9994           0
     24326 TIP3     3        TIP3     H1       HT       0.417000       1.00800           0
     24327 TIP3     3        TIP3     H2       HT       0.417000       1.00800           0
     24328 TIP3     4        TIP3     OH2      OT      -0.834000       15.9994           0
     24329 TIP3     4        TIP3     H1       HT       0.417000       1.00800           0
     24330 TIP3     4        TIP3     H2       HT       0.417000       1.00800           0
     24331 TIP3     5        TIP3     OH2      OT      -0.834000       15.9994           0
     24332 TIP3     5        TIP3     H1       HT       0.417000       1.00800           0
     24333 TIP3     5        TIP3     H2       HT       0.417000       1.00800           0
     24334 TIP3     6        TIP3     OH2      OT      -0.834000       15.9994           0
     24335 TIP3     6        TIP3     H1       HT       0.417000       1.00800           0
     24336 TIP3     6        TIP3     H2       HT       0.417000       1.00800           0
     24337 TIP3     7        TIP3     OH2      OT      -0.834000       15.9994           0
     24338 TIP3     7        TIP3     H1       HT       0.417000       1.00800           0
     24339 TIP3     7        TIP3     H2       HT       0.417000       1.00800           0
     24340 TIP3     8        TIP3     OH2      OT      -0.834000       15.9994           0
     24341 TIP3     8        TIP3     H1       HT       0.417000       1.00800           0
     24342 TIP3     8        TIP3     H2       HT       0.417000       1.00800           0
     24343 TIP3     9        TIP3     OH2      OT      -0.834000       15.9994           0
     24344 TIP3     9        TIP3     H1       HT       0.417000       1.00800           0
     24345 TIP3     9        TIP3     H2       HT       0.417000       1.00800           0
     24346 TIP3     10       TIP3     OH2      OT      -0.834000       15.9994           0
     24347 TIP3     10       TIP3     H1       HT       0.417000       1.00800           0
     24348 TIP3     10       TIP3     H2       HT       0.417000       1.00800           0
     24349 TIP3     11       TIP3     OH2      OT      -0.834000       15.9994           0
     24350 TIP3     11       TIP3     H1       HT       0.417000       1.00800           0
     24351 TIP3     11       TIP3     H2       HT       0.417000       1.00800           0
     24352 TIP3     12       TIP3     OH2      OT      -0.834000       15.9994           0
     24353 TIP3     12       TIP3     H1       HT       0.417000       1.00800           0
     24354 TIP3     12       TIP3     H2       HT       0.417000       1.00800           0
     24355 TIP3     13       TIP3     OH2      OT      -0.834000       15.9994           0
     24356 TIP3     13       TIP3     H1       HT       0.417000       1.00800           0
     24357 TIP3     13       TIP3     H2       HT       0.417000       1.00800           0
     24358 TIP3     14       TIP3     OH2      OT      -0.834000       15.9994           0
     24359 TIP3     14       TIP3     H1       HT       0.417000       1.00800           0
     24360 TIP3     14       TIP3     H2       HT       0.417000       1.00800           0
     24361 TIP3     15       TIP3     OH2      OT      -0.834000       15.9994           0
     24362 TIP3     15       TIP3     H1       HT       0.417000       1.00800           0
     24363 TIP3     15       TIP3     H2       HT       0.417000       1.00800           0
     24364 TIP3     16       TIP3     OH2      OT      -0.834000       15.9994           0
     24365 TIP3     16       TIP3     H1       HT       0.417000       1.00800           0
     24366 TIP3     16       TIP3     H2       HT       0.417000       1.00800           0
     24367 TIP3     17       TIP3     OH2      OT      -0.834000       15.9994           0
     24368 TIP3     17       TIP3     H1       HT       0.417000       1.00800           0
     24369 TIP3     17       TIP3     H2       HT       0.417000       1.00800           0
     24370 TIP3     18       TIP3     OH2      OT      -0.834000       15.9994           0
     24371 TIP3     18       TIP3     H1       HT       0.417000       1.00800           0
     24372 TIP3     18       TIP3     H2       HT       0.417000       1.00800           0
     24373 TIP3     19       TIP3     OH2      OT      -0.834000       15.9994           0
     24374 TIP3     19       TIP3     H1       HT       0.417000       1.00800           0
     24375 TIP3     19       TIP3     H2       HT       0.417000       1.00800           0
     24376 TIP3     20       TIP3     OH2      OT      -0.834000       15.9994           0
     24377 TIP3     20       TIP3     H1       HT       0.417000       1.00800           0
     24378 TIP3     20       TIP3     H2       HT       0.417000       1.00800           0
     24379 TIP3     21       TIP3     OH2      OT      -0.834000       15.9994           0
     24380 TIP3     21       TIP3     H1       HT       0.417000       1.00800           0
     24381 TIP3     21       TIP3     H2       HT       0.417000       1.00800           0
     24382 TIP3     22       TIP3     OH2      OT      -0.834000       15.9994           0
     24383 TIP3     22       TIP3     H1       HT       0.417000       1.00800           0
     24384 TIP3     22       TIP3     H2       HT       0.417000       1.00800           0
     24385 TIP3     23       TIP3     OH2      OT      -0.834000       15.9994           0
     24386 TIP3     23       TIP3     H1       HT       0.417000       1.00800           0
     24387 TIP3     23       TIP3     H2       HT       0.417000       1.00800           0
     24388 TIP3     24       TIP3     OH2      OT      -0.834000       15.9994           0
     24389 TIP3     24       TIP3     H1       HT       0.417000       1.00800           0
     24390 TIP3     24       TIP3     H2       HT       0.417000       1.00800           0
     24391 TIP3     25       TIP3     OH2      OT      -0.834000       15.9994           0
     24392 TIP3     25       TIP3     H1       HT       0.417000       1.00800           0
     24393 TIP3     25       TIP3     H2       HT       0.417000       1.00800           0
     24394 TIP3     26       TIP3     OH2      OT      -0.834000       15.9994           0
     24395 TIP3     26       TIP3     H1       HT       0.417000       1.00800           0
     24396 TIP3     26       TIP3     H2       HT       0.417000       1.00800           0
     24397 TIP3     27       TIP3     OH2      OT      -0.834000       15.9994           0
     24398 TIP3     27       TIP3     H1       HT       0.417000       1.00800           0
     24399 TIP3     27       TIP3     H2       HT       0.417000       1.00800           0
     24400 TIP3     28       TIP3     OH2      OT      -0.834000       15.9994           0
     24401 TIP3     28       TIP3     H1       HT       0.417000       1.00800           0
     24402 TIP3     28       TIP3     H2       HT       0.417000       1.00800           0
     24403 TIP3     29       TIP3     OH2      OT      -0.834000       15.9994           0
     24404 TIP3     29       TIP3     H1       HT       0.417000       1.00800           0
     24405 TIP3     29       TIP3     H2       HT       0.417000       1.00800           0
     24406 TIP3     30       TIP3     OH2      OT      -0.834000       15.9994           0
     24407 TIP3     30       TIP3     H1       HT       0.417000       1.00800           0
     24408 TIP3     30       TIP3     H2       HT       0.417000       1.00800           0
     24409 TIP3     31       TIP3     OH2      OT      -0.834000       15.9994           0
     24410 TIP3     31       TIP3     H1       HT       0.417000       1.00800           0
     24411 TIP3     31       TIP3     H2       HT       0.417000       1.00800           0
     24412 TIP3     32       TIP3     OH2      OT      -0.834000       15.9994           0
     24413 TIP3     32       TIP3     H1       HT       0.417000       1.00800           0
     24414 TIP3     32       TIP3     H2       HT       0.417000       1.00800           0
     24415 TIP3     33       TIP3     OH2      OT      -0.834000       15.9994           0
     24416 TIP3     33       TIP3     H1       HT       0.417000       1.00800           0
     24417 TIP3     33       TIP3     H2       HT       0.417000       1.00800           0
     24418 TIP3     34       TIP3     OH2      OT      -0.834000       15.9994           0
     24419 TIP3     34       TIP3     H1       HT       0.417000       1.00800           0
     24420 TIP3     34       TIP3     H2       HT       0.417000       1.00800           0
     24421 TIP3     35       TIP3     OH2      OT      -0.834000       15.9994           0
     24422 TIP3     35       TIP3     H1       HT       0.417000       1.00800           0
     24423 TIP3     35       TIP3     H2       HT       0.417000       1.00800           0
     24424 TIP3     36       TIP3     OH2      OT      -0.834000       15.9994           0
     24425 TIP3     36       TIP3     H1       HT       0.417000       1.00800           0
     24426 TIP3     36       TIP3     H2       HT       0.417000       1.00800           0
     24427 TIP3     37       TIP3     OH2      OT      -0.834000       15.9994           0
     24428 TIP3     37       TIP3     H1       HT       0.417000       1.00800           0
     24429 TIP3     37       TIP3     H2       HT       0.417000       1.00800           0
     24430 TIP3     38       TIP3     OH2      OT      -0.834000       15.9994           0
     24431 TIP3     38       TIP3     H1       HT       0.417000       1.00800           0
     24432 TIP3     38       TIP3     H2       HT       0.417000       1.00800           0
     24433 TIP3     39       TIP3     OH2      OT      -0.834000       15.9994           0
     24434 TIP3     39       TIP3     H1       HT       0.417000       1.00800           0
     24435 TIP3     39       TIP3     H2       HT       0.417000       1.00800           0
     24436 TIP3     40       TIP3     OH2      OT      -0.834000       15.9994           0
     24437 TIP3     40       TIP3     H1       HT       0.417000       1.00800           0
     24438 TIP3     40       TIP3     H2       HT       0.417000       1.00800           0
     24439 TIP3     41       TIP3     OH2      OT      -0.834000       15.9994           0
     24440 TIP3     41       TIP3     H1       HT       0.417000       1.00800           0
     24441 TIP3     41       TIP3     H2       HT       0.417000       1.00800           0
     24442 TIP3     42       TIP3     OH2      OT      -0.834000       15.9994           0
     24443 TIP3     42       TIP3     H1       HT       0.417000       1.00800           0
     24444 TIP3     42       TIP3     H2       HT       0.417000       1.00800           0
     24445 TIP3     43       TIP3     OH2      OT      -0.834000       15.9994           0
     24446 TIP3     43       TIP3     H1       HT       0.417000       1.00800           0
     24447 TIP3     43       TIP3     H2       HT       0.417000       1.00800           0
     24448 TIP3     44       TIP3     OH2      OT      -0.834000       15.9994           0
     24449 TIP3     44       TIP3     H1       HT       0.417000       1.00800           0
     24450 TIP3     44       TIP3     H2       HT       0.417000       1.00800           0
     24451 TIP3     45       TIP3     OH2      OT      -0.834000       15.9994           0
     24452 TIP3     45       TIP3     H1       HT       0.417000       1.00800           0
     24453 TIP3     45       TIP3     H2       HT       0.417000       1.00800           0
     24454 TIP3     46       TIP3     OH2      OT      -0.834000       15.9994           0
     24455 TIP3     46       TIP3     H1       HT       0.417000       1.00800           0
     24456 TIP3     46       TIP3     H2       HT       0.417000       1.00800           0
     24457 TIP3     47       TIP3     OH2      OT      -0.834000       15.9994           0
     24458 TIP3     47       TIP3     H1       HT       0.417000       1.00800           0
     24459 TIP3     47       TIP3     H2       HT       0.417000       1.00800           0
     24460 TIP3     48       TIP3     OH2      OT      -0.834000       15.9994           0
     24461 TIP3     48       TIP3     H1       HT       0.417000       1.00800           0
     24462 TIP3     48       TIP3     H2       HT       0.417000       1.00800           0
     24463 TIP3     49       TIP3     OH2      OT      -0.834000       15.9994           0
     24464 TIP3     49       TIP3     H1       HT       0.417000       1.00800           0
     24465 TIP3     49       TIP3     H2       HT       0.417000       1.00800           0
     24466 TIP3     50       TIP3     OH2      OT      -0.834000       15.9994           0
     24467 TIP3     50       TIP3     H1       HT       0.417000       1.00800           0
     24468 TIP3     50       TIP3     H2       HT       0.417000       1.00800           0
     24469 TIP3     51       TIP3     OH2      OT      -0.834000       15.9994           0
     24470 TIP3     51       TIP3     H1       HT       0.417000       1.00800           0
     24471 TIP3     51       TIP3     H2       HT       0.417000       1.00800           0
     24472 TIP3     52       TIP3     OH2      OT      -0.834000       15.9994           0
     24473 TIP3     52       TIP3     H1       HT       0.417000       1.00800           0
     24474 TIP3     52       TIP3     H2       HT       0.417000       1.00800           0
     24475 TIP3     53       TIP3     OH2      OT      -0.834000       15.9994           0
     24476 TIP3     53       TIP3     H1       HT       0.417000       1.00800           0
     24477 TIP3     53       TIP3     H2       HT       0.417000       1.00800           0
     24478 TIP3     54       TIP3     OH2      OT      -0.834000       15.9994           0
     24479 TIP3     54       TIP3     H1       HT       0.417000       1.00800           0
     24480 TIP3     54       TIP3     H2       HT       0.417000       1.00800           0
     24481 TIP3     55       TIP3     OH2      OT      -0.834000       15.9994           0
     24482 TIP3     55       TIP3     H1       HT       0.417000       1.00800           0
     24483 TIP3     55       TIP3     H2       HT       0.417000       1.00800           0
     24484 TIP3     56       TIP3     OH2      OT      -0.834000       15.9994           0
     24485 TIP3     56       TIP3     H1       HT       0.417000       1.00800           0
     24486 TIP3     56       TIP3     H2       HT       0.417000       1.00800           0
     24487 TIP3     57       TIP3     OH2      OT      -0.834000       15.9994           0
     24488 TIP3     57       TIP3     H1       HT       0.417000       1.00800           0
     24489 TIP3     57       TIP3     H2       HT       0.417000       1.00800           0
     24490 TIP3     58       TIP3     OH2      OT      -0.834000       15.9994           0
     24491 TIP3     58       TIP3     H1       HT       0.417000       1.00800           0
     24492 TIP3     58       TIP3     H2       HT       0.417000       1.00800           0
     24493 TIP3     59       TIP3     OH2      OT      -0.834000       15.9994           0
     24494 TIP3     59       TIP3     H1       HT       0.417000       1.00800           0
     24495 TIP3     59       TIP3     H2       HT       0.417000       1.00800           0
     24496 TIP3     60       TIP3     OH2      OT      -0.834000       15.9994           0
     24497 TIP3     60       TIP3     H1       HT       0.417000       1.00800           0
     24498 TIP3     60       TIP3     H2       HT       0.417000       1.00800           0
     24499 TIP3     61       TIP3     OH2      OT      -0.834000       15.9994           0
     24500 TIP3     61       TIP3     H1       HT       0.417000       1.00800           0
     24501 TIP3     61       TIP3     H2       HT       0.417000       1.00800           0
     24502 TIP3     62       TIP3     OH2      OT      -0.834000       15.9994           0
     24503 TIP3     62       TIP3     H1       HT       0.417000       1.00800           0
     24504 TIP3     62       TIP3     H2       HT       0.417000       1.00800           0
     24505 TIP3     63       TIP3     OH2      OT      -0.834000       15.9994           0
     24506 TIP3     63       TIP3     H1       HT       0.417000       1.00800           0
     24507 TIP3     63       TIP3     H2       HT       0.417000       1.00800           0
     24508 TIP3     64       TIP3     OH2      OT      -0.834000       15.9994           0
     24509 TIP3     64       TIP3     H1       HT       0.417000       1.00800           0
     24510 TIP3     64       TIP3     H2       HT       0.417000       1.00800           0
     24511 TIP3     65       TIP3     OH2      OT      -0.834000       15.9994           0
     24512 TIP3     65       TIP3     H1       HT       0.417000       1.00800           0
     24513 TIP3     65       TIP3     H2       HT       0.417000       1.00800           0
     24514 TIP3     66       TIP3     OH2      OT      -0.834000       15.9994           0
     24515 TIP3     66       TIP3     H1       HT       0.417000       1.00800           0
     24516 TIP3     66       TIP3     H2       HT       0.417000       1.00800           0
     24517 TIP3     67       TIP3     OH2      OT      -0.834000       15.9994           0
     24518 TIP3     67       TIP3     H1       HT       0.417000       1.00800           0
     24519 TIP3     67       TIP3     H2       HT       0.417000       1.00800           0
     24520 TIP3     68       TIP3     OH2      OT      -0.834000       15.9994           0
     24521 TIP3     68       TIP3     H1       HT       0.417000       1.00800           0
     24522 TIP3     68       TIP3     H2       HT       0.417000       1.00800           0
     24523 TIP3     69       TIP3     OH2      OT      -0.834000       15.9994           0
     24524 TIP3     69       TIP3     H1       HT       0.417000       1.00800           0
     24525 TIP3     69       TIP3     H2       HT       0.417000       1.00800           0
     24526 TIP3     70       TIP3     OH2      OT      -0.834000       15.9994           0
     24527 TIP3     70       TIP3     H1       HT       0.417000       1.00800           0
     24528 TIP3     70       TIP3     H2       HT       0.417000       1.00800           0
     24529 TIP3     71       TIP3     OH2      OT      -0.834000       15.9994           0
     24530 TIP3     71       TIP3     H1       HT       0.417000       1.00800           0
     24531 TIP3     71       TIP3     H2       HT       0.417000       1.00800           0
     24532 TIP3     72       TIP3     OH2      OT      -0.834000       15.9994           0
     24533 TIP3     72       TIP3     H1       HT       0.417000       1.00800           0
     24534 TIP3     72       TIP3     H2       HT       0.417000       1.00800           0
     24535 TIP3     73       TIP3     OH2      OT      -0.834000       15.9994           0
     24536 TIP3     73       TIP3     H1       HT       0.417000       1.00800           0
     24537 TIP3     73       TIP3     H2       HT       0.417000       1.00800           0
     24538 TIP3     74       TIP3     OH2      OT      -0.834000       15.9994           0
     24539 TIP3     74       TIP3     H1       HT       0.417000       1.00800           0
     24540 TIP3     74       TIP3     H2       HT       0.417000       1.00800           0
     24541 TIP3     75       TIP3     OH2      OT      -0.834000       15.9994           0
     24542 TIP3     75       TIP3     H1       HT       0.417000       1.00800           0
     24543 TIP3     75       TIP3     H2       HT       0.417000       1.00800           0
     24544 TIP3     76       TIP3     OH2      OT      -0.834000       15.9994           0
     24545 TIP3     76       TIP3     H1       HT       0.417000       1.00800           0
     24546 TIP3     76       TIP3     H2       HT       0.417000       1.00800           0
     24547 TIP3     77       TIP3     OH2      OT      -0.834000       15.9994           0
     24548 TIP3     77       TIP3     H1       HT       0.417000       1.00800           0
     24549 TIP3     77       TIP3     H2       HT       0.417000       1.00800           0
     24550 TIP3     78       TIP3     OH2      OT      -0.834000       15.9994           0
     24551 TIP3     78       TIP3     H1       HT       0.417000       1.00800           0
     24552 TIP3     78       TIP3     H2       HT       0.417000       1.00800           0
     24553 TIP3     79       TIP3     OH2      OT      -0.834000       15.9994           0
     24554 TIP3     79       TIP3     H1       HT       0.417000       1.00800           0
     24555 TIP3     79       TIP3     H2       HT       0.417000       1.00800           0
     24556 TIP3     80       TIP3     OH2      OT      -0.834000       15.9994           0
     24557 TIP3     80       TIP3     H1       HT       0.417000       1.00800           0
     24558 TIP3     80       TIP3     H2       HT       0.417000       1.00800           0
     24559 TIP3     81       TIP3     OH2      OT      -0.834000       15.9994           0
     24560 TIP3     81       TIP3     H1       HT       0.417000       1.00800           0
     24561 TIP3     81       TIP3     H2       HT       0.417000       1.00800           0
     24562 TIP3     82       TIP3     OH2      OT      -0.834000       15.9994           0
     24563 TIP3     82       TIP3     H1       HT       0.417000       1.00800           0
     24564 TIP3     82       TIP3     H2       HT       0.417000       1.00800           0
     24565 TIP3     83       TIP3     OH2      OT      -0.834000       15.9994           0
     24566 TIP3     83       TIP3     H1       HT       0.417000       1.00800           0
     24567 TIP3     83       TIP3     H2       HT       0.417000       1.00800           0
     24568 TIP3     84       TIP3     OH2      OT      -0.834000       15.9994           0
     24569 TIP3     84       TIP3     H1       HT       0.417000       1.00800           0
     24570 TIP3     84       TIP3     H2       HT       0.417000       1.00800           0
     24571 TIP3     85       TIP3     OH2      OT      -0.834000       15.9994           0
     24572 TIP3     85       TIP3     H1       HT       0.417000       1.00800           0
     24573 TIP3     85       TIP3     H2       HT       0.417000       1.00800           0
     24574 TIP3     86       TIP3     OH2      OT      -0.834000       15.9994           0
     24575 TIP3     86       TIP3     H1       HT       0.417000       1.00800           0
     24576 TIP3     86       TIP3     H2       HT       0.417000       1.00800           0
     24577 TIP3     87       TIP3     OH2      OT      -0.834000       15.9994           0
     24578 TIP3     87       TIP3     H1       HT       0.417000       1.00800           0
     24579 TIP3     87       TIP3     H2       HT       0.417000       1.00800           0
     24580 TIP3     88       TIP3     OH2      OT      -0.834000       15.9994           0
     24581 TIP3     88       TIP3     H1       HT       0.417000       1.00800           0
     24582 TIP3     88       TIP3     H2       HT       0.417000       1.00800           0
     24583 TIP3     89       TIP3     OH2      OT      -0.834000       15.9994           0
     24584 TIP3     89       TIP3     H1       HT       0.417000       1.00800           0
     24585 TIP3     89       TIP3     H2       HT       0.417000       1.00800           0
     24586 TIP3     90       TIP3     OH2      OT      -0.834000       15.9994           0
     24587 TIP3     90       TIP3     H1       HT       0.417000       1.00800           0
     24588 TIP3     90       TIP3     H2       HT       0.417000       1.00800           0
     24589 TIP3     91       TIP3     OH2      OT      -0.834000       15.9994           0
     24590 TIP3     91       TIP3     H1       HT       0.417000       1.00800           0
     24591 TIP3     91       TIP3     H2       HT       0.417000       1.00800           0
     24592 TIP3     92       TIP3     OH2      OT      -0.834000       15.9994           0
     24593 TIP3     92       TIP3     H1       HT       0.417000       1.00800           0
     24594 TIP3     92       TIP3     H2       HT       0.417000       1.00800           0
     24595 TIP3     93       TIP3     OH2      OT      -0.834000       15.9994           0
     24596 TIP3     93       TIP3     H1       HT       0.417000       1.00800           0
     24597 TIP3     93       TIP3     H2       HT       0.417000       1.00800           0
     24598 TIP3     94       TIP3     OH2      OT      -0.834000       15.9994           0
     24599 TIP3     94       TIP3     H1       HT       0.417000       1.00800           0
     24600 TIP3     94       TIP3     H2       HT       0.417000       1.00800           0
     24601 TIP3     95       TIP3     OH2      OT      -0.834000       15.9994           0
     24602 TIP3     95       TIP3     H1       HT       0.417000       1.00800           0
     24603 TIP3     95       TIP3     H2       HT       0.417000       1.00800           0
     24604 TIP3     96       TIP3     OH2      OT      -0.834000       15.9994           0
     24605 TIP3     96       TIP3     H1       HT       0.417000       1.00800           0
     24606 TIP3     96       TIP3     H2       HT       0.417000       1.00800           0
     24607 TIP3     97       TIP3     OH2      OT      -0.834000       15.9994           0
     24608 TIP3     97       TIP3     H1       HT       0.417000       1.00800           0
     24609 TIP3     97       TIP3     H2       HT       0.417000       1.00800           0
     24610 TIP3     98       TIP3     OH2      OT      -0.834000       15.9994           0
     24611 TIP3     98       TIP3     H1       HT       0.417000       1.00800           0
     24612 TIP3     98       TIP3     H2       HT       0.417000       1.00800           0
     24613 TIP3     99       TIP3     OH2      OT      -0.834000       15.9994           0
     24614 TIP3     99       TIP3     H1       HT       0.417000       1.00800           0
     24615 TIP3     99       TIP3     H2       HT       0.417000       1.00800           0
     24616 TIP3     100      TIP3     OH2      OT      -0.834000       15.9994           0
     24617 TIP3     100      TIP3     H1       HT       0.417000       1.00800           0
     24618 TIP3     100      TIP3     H2       HT       0.417000       1.00800           0
     24619 TIP3     101      TIP3     OH2      OT      -0.834000       15.9994           0
     24620 TIP3     101      TIP3     H1       HT       0.417000       1.00800           0
     24621 TIP3     101      TIP3     H2       HT       0.417000       1.00800           0
     24622 TIP3     102      TIP3     OH2      OT      -0.834000       15.9994           0
     24623 TIP3     102      TIP3     H1       HT       0.417000       1.00800           0
     24624 TIP3     102      TIP3     H2       HT       0.417000       1.00800           0
     24625 TIP3     103      TIP3     OH2      OT      -0.834000       15.9994           0
     24626 TIP3     103      TIP3     H1       HT       0.417000       1.00800           0
     24627 TIP3     103      TIP3     H2       HT       0.417000       1.00800           0
     24628 TIP3     104      TIP3     OH2      OT      -0.834000       15.9994           0
     24629 TIP3     104      TIP3     H1       HT       0.417000       1.00800           0
     24630 TIP3     104      TIP3     H2       HT       0.417000       1.00800           0
     24631 TIP3     105      TIP3     OH2      OT      -0.834000       15.9994           0
     24632 TIP3     105      TIP3     H1       HT       0.417000       1.00800           0
     24633 TIP3     105      TIP3     H2       HT       0.417000       1.00800           0
     24634 TIP3     106      TIP3     OH2      OT      -0.834000       15.9994           0
     24635 TIP3     106      TIP3     H1       HT       0.417000       1.00800           0
     24636 TIP3     106      TIP3     H2       HT       0.417000       1.00800           0
     24637 TIP3     107      TIP3     OH2      OT      -0.834000       15.9994           0
     24638 TIP3     107      TIP3     H1       HT       0.417000       1.00800           0
     24639 TIP3     107      TIP3     H2       HT       0.417000       1.00800           0
     24640 TIP3     108      TIP3     OH2      OT      -0.834000       15.9994           0
     24641 TIP3     108      TIP3     H1       HT       0.417000       1.00800           0
     24642 TIP3     108      TIP3     H2       HT       0.417000       1.00800           0
     24643 TIP3     109      TIP3     OH2      OT      -0.834000       15.9994           0
     24644 TIP3     109      TIP3     H1       HT       0.417000       1.00800           0
     24645 TIP3     109      TIP3     H2       HT       0.417000       1.00800           0
     24646 TIP3     110      TIP3     OH2      OT      -0.834000       15.9994           0
     24647 TIP3     110      TIP3     H1       HT       0.417000       1.00800           0
     24648 TIP3     110      TIP3     H2       HT       0.417000       1.00800           0
     24649 TIP3     111      TIP3     OH2      OT      -0.834000       15.9994           0
     24650 TIP3     111      TIP3     H1       HT       0.417000       1.00800           0
     24651 TIP3     111      TIP3     H2       HT       0.417000       1.00800           0
     24652 TIP3     112      TIP3     OH2      OT      -0.834000       15.9994           0
     24653 TIP3     112      TIP3     H1       HT       0.417000       1.00800           0
     24654 TIP3     112      TIP3     H2       HT       0.417000       1.00800           0
     24655 TIP3     113      TIP3     OH2      OT      -0.834000       15.9994           0
     24656 TIP3     113      TIP3     H1       HT       0.417000       1.00800           0
     24657 TIP3     113      TIP3     H2       HT       0.417000       1.00800           0
     24658 TIP3     114      TIP3     OH2      OT      -0.834000       15.9994           0
     24659 TIP3     114      TIP3     H1       HT       0.417000       1.00800           0
     24660 TIP3     114      TIP3     H2       HT       0.417000       1.00800           0
     24661 TIP3     115      TIP3     OH2      OT      -0.834000       15.9994           0
     24662 TIP3     115      TIP3     H1       HT       0.417000       1.00800           0
     24663 TIP3     115      TIP3     H2       HT       0.417000       1.00800           0
     24664 TIP3     116      TIP3     OH2      OT      -0.834000       15.9994           0
     24665 TIP3     116      TIP3     H1       HT       0.417000       1.00800           0
     24666 TIP3     116      TIP3     H2       HT       0.417000       1.00800           0
     24667 TIP3     117      TIP3     OH2      OT      -0.834000       15.9994           0
     24668 TIP3     117      TIP3     H1       HT       0.417000       1.00800           0
     24669 TIP3     117      TIP3     H2       HT       0.417000       1.00800           0
     24670 TIP3     118      TIP3     OH2      OT      -0.834000       15.9994           0
     24671 TIP3     118      TIP3     H1       HT       0.417000       1.00800           0
     24672 TIP3     118      TIP3     H2       HT       0.417000       1.00800           0
     24673 TIP3     119      TIP3     OH2      OT      -0.834000       15.9994           0
     24674 TIP3     119      TIP3     H1       HT       0.417000       1.00800           0
     24675 TIP3     119      TIP3     H2       HT       0.417000       1.00800           0
     24676 TIP3     120      TIP3     OH2      OT      -0.834000       15.9994           0
     24677 TIP3     120      TIP3     H1       HT       0.417000       1.00800           0
     24678 TIP3     120      TIP3     H2       HT       0.417000       1.00800           0
     24679 TIP3     121      TIP3     OH2      OT      -0.834000       15.9994           0
     24680 TIP3     121      TIP3     H1       HT       0.417000       1.00800           0
     24681 TIP3     121      TIP3     H2       HT       0.417000       1.00800           0
     24682 TIP3     122      TIP3     OH2      OT      -0.834000       15.9994           0
     24683 TIP3     122      TIP3     H1       HT       0.417000       1.00800           0
     24684 TIP3     122      TIP3     H2       HT       0.417000       1.00800           0
     24685 TIP3     123      TIP3     OH2      OT      -0.834000       15.9994           0
     24686 TIP3     123      TIP3     H1       HT       0.417000       1.00800           0
     24687 TIP3     123      TIP3     H2       HT       0.417000       1.00800           0
     24688 TIP3     124      TIP3     OH2      OT      -0.834000       15.9994           0
     24689 TIP3     124      TIP3     H1       HT       0.417000       1.00800           0
     24690 TIP3     124      TIP3     H2       HT       0.417000       1.00800           0
     24691 TIP3     125      TIP3     OH2      OT      -0.834000       15.9994           0
     24692 TIP3     125      TIP3     H1       HT       0.417000       1.00800           0
     24693 TIP3     125      TIP3     H2       HT       0.417000       1.00800           0
     24694 TIP3     126      TIP3     OH2      OT      -0.834000       15.9994           0
     24695 TIP3     126      TIP3     H1       HT       0.417000       1.00800           0
     24696 TIP3     126      TIP3     H2       HT       0.417000       1.00800           0
     24697 TIP3     127      TIP3     OH2      OT      -0.834000       15.9994           0
     24698 TIP3     127      TIP3     H1       HT       0.417000       1.00800           0
     24699 TIP3     127      TIP3     H2       HT       0.417000       1.00800           0
     24700 TIP3     128      TIP3     OH2      OT      -0.834000       15.9994           0
     24701 TIP3     128      TIP3     H1       HT       0.417000       1.00800           0
     24702 TIP3     128      TIP3     H2       HT       0.417000       1.00800           0
     24703 TIP3     129      TIP3     OH2      OT      -0.834000       15.9994           0
     24704 TIP3     129      TIP3     H1       HT       0.417000       1.00800           0
     24705 TIP3     129      TIP3     H2       HT       0.417000       1.00800           0
     24706 TIP3     130      TIP3     OH2      OT      -0.834000       15.9994           0
     24707 TIP3     130      TIP3     H1       HT       0.417000       1.00800           0
     24708 TIP3     130      TIP3     H2       HT       0.417000       1.00800           0
     24709 TIP3     131      TIP3     OH2      OT      -0.834000       15.9994           0
     24710 TIP3     131      TIP3     H1       HT       0.417000       1.00800           0
     24711 TIP3     131      TIP3     H2       HT       0.417000       1.00800           0
     24712 TIP3     132      TIP3     OH2      OT      -0.834000       15.9994           0
     24713 TIP3     132      TIP3     H1       HT       0.417000       1.00800           0
     24714 TIP3     132      TIP3     H2       HT       0.417000       1.00800           0
     24715 TIP3     133      TIP3     OH2      OT      -0.834000       15.9994           0
     24716 TIP3     133      TIP3     H1       HT       0.417000       1.00800           0
     24717 TIP3     133      TIP3     H2       HT       0.417000       1.00800           0
     24718 TIP3     134      TIP3     OH2      OT      -0.834000       15.9994           0
     24719 TIP3     134      TIP3     H1       HT       0.417000       1.00800           0
     24720 TIP3     134      TIP3     H2       HT       0.417000       1.00800           0
     24721 TIP3     135      TIP3     OH2      OT      -0.834000       15.9994           0
     24722 TIP3     135      TIP3     H1       HT       0.417000       1.00800           0
     24723 TIP3     135      TIP3     H2       HT       0.417000       1.00800           0
     24724 TIP3     136      TIP3     OH2      OT      -0.834000       15.9994           0
     24725 TIP3     136      TIP3     H1       HT       0.417000       1.00800           0
     24726 TIP3     136      TIP3     H2       HT       0.417000       1.00800           0
     24727 TIP3     137      TIP3     OH2      OT      -0.834000       15.9994           0
     24728 TIP3     137      TIP3     H1       HT       0.417000       1.00800           0
     24729 TIP3     137      TIP3     H2       HT       0.417000       1.00800           0
     24730 TIP3     138      TIP3     OH2      OT      -0.834000       15.9994           0
     24731 TIP3     138      TIP3     H1       HT       0.417000       1.00800           0
     24732 TIP3     138      TIP3     H2       HT       0.417000       1.00800           0
     24733 TIP3     139      TIP3     OH2      OT      -0.834000       15.9994           0
     24734 TIP3     139      TIP3     H1       HT       0.417000       1.00800           0
     24735 TIP3     139      TIP3     H2       HT       0.417000       1.00800           0
     24736 TIP3     140      TIP3     OH2      OT      -0.834000       15.9994           0
     24737 TIP3     140      TIP3     H1       HT       0.417000       1.00800           0
     24738 TIP3     140      TIP3     H2       HT       0.417000       1.00800           0
     24739 TIP3     141      TIP3     OH2      OT      -0.834000       15.9994           0
     24740 TIP3     141      TIP3     H1       HT       0.417000       1.00800           0
     24741 TIP3     141      TIP3     H2       HT       0.417000       1.00800           0
     24742 TIP3     142      TIP3     OH2      OT      -0.834000       15.9994           0
     24743 TIP3     142      TIP3     H1       HT       0.417000       1.00800           0
     24744 TIP3     142      TIP3     H2       HT       0.417000       1.00800           0
     24745 TIP3     143      TIP3     OH2      OT      -0.834000       15.9994           0
     24746 TIP3     143      TIP3     H1       HT       0.417000       1.00800           0
     24747 TIP3     143      TIP3     H2       HT       0.417000       1.00800           0
     24748 TIP3     144      TIP3     OH2      OT      -0.834000       15.9994           0
     24749 TIP3     144      TIP3     H1       HT       0.417000       1.00800           0
     24750 TIP3     144      TIP3     H2       HT       0.417000       1.00800           0
     24751 TIP3     145      TIP3     OH2      OT      -0.834000       15.9994           0
     24752 TIP3     145      TIP3     H1       HT       0.417000       1.00800           0
     24753 TIP3     145      TIP3     H2       HT       0.417000       1.00800           0
     24754 TIP3     146      TIP3     OH2      OT      -0.834000       15.9994           0
     24755 TIP3     146      TIP3     H1       HT       0.417000       1.00800           0
     24756 TIP3     146      TIP3     H2       HT       0.417000       1.00800           0
     24757 TIP3     147      TIP3     OH2      OT      -0.834000       15.9994           0
     24758 TIP3     147      TIP3     H1       HT       0.417000       1.00800           0
     24759 TIP3     147      TIP3     H2       HT       0.417000       1.00800           0
     24760 TIP3     148      TIP3     OH2      OT      -0.834000       15.9994           0
     24761 TIP3     148      TIP3     H1       HT       0.417000       1.00800           0
     24762 TIP3     148      TIP3     H2       HT       0.417000       1.00800           0
     24763 TIP3     149      TIP3     OH2      OT      -0.834000       15.9994           0
     24764 TIP3     149      TIP3     H1       HT       0.417000       1.00800           0
     24765 TIP3     149      TIP3     H2       HT       0.417000       1.00800           0
     24766 TIP3     150      TIP3     OH2      OT      -0.834000       15.9994           0
     24767 TIP3     150      TIP3     H1       HT       0.417000       1.00800           0
     24768 TIP3     150      TIP3     H2       HT       0.417000       1.00800           0
     24769 TIP3     151      TIP3     OH2      OT      -0.834000       15.9994           0
     24770 TIP3     151      TIP3     H1       HT       0.417000       1.00800           0
     24771 TIP3     151      TIP3     H2       HT       0.417000       1.00800           0
     24772 TIP3     152      TIP3     OH2      OT      -0.834000       15.9994           0
     24773 TIP3     152      TIP3     H1       HT       0.417000       1.00800           0
     24774 TIP3     152      TIP3     H2       HT       0.417000       1.00800           0
     24775 TIP3     153      TIP3     OH2      OT      -0.834000       15.9994           0
     24776 TIP3     153      TIP3     H1       HT       0.417000       1.00800           0
     24777 TIP3     153      TIP3     H2       HT       0.417000       1.00800           0
     24778 TIP3     154      TIP3     OH2      OT      -0.834000       15.9994           0
     24779 TIP3     154      TIP3     H1       HT       0.417000       1.00800           0
     24780 TIP3     154      TIP3     H2       HT       0.417000       1.00800           0
     24781 TIP3     155      TIP3     OH2      OT      -0.834000       15.9994           0
     24782 TIP3     155      TIP3     H1       HT       0.417000       1.00800           0
     24783 TIP3     155      TIP3     H2       HT       0.417000       1.00800           0
     24784 TIP3     156      TIP3     OH2      OT      -0.834000       15.9994           0
     24785 TIP3     156      TIP3     H1       HT       0.417000       1.00800           0
     24786 TIP3     156      TIP3     H2       HT       0.417000       1.00800           0
     24787 TIP3     157      TIP3     OH2      OT      -0.834000       15.9994           0
     24788 TIP3     157      TIP3     H1       HT       0.417000       1.00800           0
     24789 TIP3     157      TIP3     H2       HT       0.417000       1.00800           0
     24790 TIP3     158      TIP3     OH2      OT      -0.834000       15.9994           0
     24791 TIP3     158      TIP3     H1       HT       0.417000       1.00800           0
     24792 TIP3     158      TIP3     H2       HT       0.417000       1.00800           0
     24793 TIP3     159      TIP3     OH2      OT      -0.834000       15.9994           0
     24794 TIP3     159      TIP3     H1       HT       0.417000       1.00800           0
     24795 TIP3     159      TIP3     H2       HT       0.417000       1.00800           0
     24796 TIP3     160      TIP3     OH2      OT      -0.834000       15.9994           0
     24797 TIP3     160      TIP3     H1       HT       0.417000       1.00800           0
     24798 TIP3     160      TIP3     H2       HT       0.417000       1.00800           0
     24799 TIP3     161      TIP3     OH2      OT      -0.834000       15.9994           0
     24800 TIP3     161      TIP3     H1       HT       0.417000       1.00800           0
     24801 TIP3     161      TIP3     H2       HT       0.417000       1.00800           0
     24802 TIP3     162      TIP3     OH2      OT      -0.834000       15.9994           0
     24803 TIP3     162      TIP3     H1       HT       0.417000       1.00800           0
     24804 TIP3     162      TIP3     H2       HT       0.417000       1.00800           0
     24805 TIP3     163      TIP3     OH2      OT      -0.834000       15.9994           0
     24806 TIP3     163      TIP3     H1       HT       0.417000       1.00800           0
     24807 TIP3     163      TIP3     H2       HT       0.417000       1.00800           0
     24808 TIP3     164      TIP3     OH2      OT      -0.834000       15.9994           0
     24809 TIP3     164      TIP3     H1       HT       0.417000       1.00800           0
     24810 TIP3     164      TIP3     H2       HT       0.417000       1.00800           0
     24811 TIP3     165      TIP3     OH2      OT      -0.834000       15.9994           0
     24812 TIP3     165      TIP3     H1       HT       0.417000       1.00800           0
     24813 TIP3     165      TIP3     H2       HT       0.417000       1.00800           0
     24814 TIP3     166      TIP3     OH2      OT      -0.834000       15.9994           0
     24815 TIP3     166      TIP3     H1       HT       0.417000       1.00800           0
     24816 TIP3     166      TIP3     H2       HT       0.417000       1.00800           0
     24817 TIP3     167      TIP3     OH2      OT      -0.834000       15.9994           0
     24818 TIP3     167      TIP3     H1       HT       0.417000       1.00800           0
     24819 TIP3     167      TIP3     H2       HT       0.417000       1.00800           0
     24820 TIP3     168      TIP3     OH2      OT      -0.834000       15.9994           0
     24821 TIP3     168      TIP3     H1       HT       0.417000       1.00800           0
     24822 TIP3     168      TIP3     H2       HT       0.417000       1.00800           0
     24823 TIP3     169      TIP3     OH2      OT      -0.834000       15.9994           0
     24824 TIP3     169      TIP3     H1       HT       0.417000       1.00800           0
     24825 TIP3     169      TIP3     H2       HT       0.417000       1.00800           0
     24826 TIP3     170      TIP3     OH2      OT      -0.834000       15.9994           0
     24827 TIP3     170      TIP3     H1       HT       0.417000       1.00800           0
     24828 TIP3     170      TIP3     H2       HT       0.417000       1.00800           0
     24829 TIP3     171      TIP3     OH2      OT      -0.834000       15.9994           0
     24830 TIP3     171      TIP3     H1       HT       0.417000       1.00800           0
     24831 TIP3     171      TIP3     H2       HT       0.417000       1.00800           0
     24832 TIP3     172      TIP3     OH2      OT      -0.834000       15.9994           0
     24833 TIP3     172      TIP3     H1       HT       0.417000       1.00800           0
     24834 TIP3     172      TIP3     H2       HT       0.417000       1.00800           0
     24835 TIP3     173      TIP3     OH2      OT      -0.834000       15.9994           0
     24836 TIP3     173      TIP3     H1       HT       0.417000       1.00800           0
     24837 TIP3     173      TIP3     H2       HT       0.417000       1.00800           0
     24838 TIP3     174      TIP3     OH2      OT      -0.834000       15.9994           0
     24839 TIP3     174      TIP3     H1       HT       0.417000       1.00800           0
     24840 TIP3     174      TIP3     H2       HT       0.417000       1.00800           0
     24841 TIP3     175      TIP3     OH2      OT      -0.834000       15.9994           0
     24842 TIP3     175      TIP3     H1       HT       0.417000       1.00800           0
     24843 TIP3     175      TIP3     H2       HT       0.417000       1.00800           0
     24844 TIP3     176      TIP3     OH2      OT      -0.834000       15.9994           0
     24845 TIP3     176      TIP3     H1       HT       0.417000       1.00800           0
     24846 TIP3     176      TIP3     H2       HT       0.417000       1.00800           0
     24847 TIP3     177      TIP3     OH2      OT      -0.834000       15.9994           0
     24848 TIP3     177      TIP3     H1       HT       0.417000       1.00800           0
     24849 TIP3     177      TIP3     H2       HT       0.417000       1.00800           0
     24850 TIP3     178      TIP3     OH2      OT      -0.834000       15.9994           0
     24851 TIP3     178      TIP3     H1       HT       0.417000       1.00800           0
     24852 TIP3     178      TIP3     H2       HT       0.417000       1.00800           0
     24853 TIP3     179      TIP3     OH2      OT      -0.834000       15.9994           0
     24854 TIP3     179      TIP3     H1       HT       0.417000       1.00800           0
     24855 TIP3     179      TIP3     H2       HT       0.417000       1.00800           0
     24856 TIP3     180      TIP3     OH2      OT      -0.834000       15.9994           0
     24857 TIP3     180      TIP3     H1       HT       0.417000       1.00800           0
     24858 TIP3     180      TIP3     H2       HT       0.417000       1.00800           0
     24859 TIP3     181      TIP3     OH2      OT      -0.834000       15.9994           0
     24860 TIP3     181      TIP3     H1       HT       0.417000       1.00800           0
     24861 TIP3     181      TIP3     H2       HT       0.417000       1.00800           0
     24862 TIP3     182      TIP3     OH2      OT      -0.834000       15.9994           0
     24863 TIP3     182      TIP3     H1       HT       0.417000       1.00800           0
     24864 TIP3     182      TIP3     H2       HT       0.417000       1.00800           0
     24865 TIP3     183      TIP3     OH2      OT      -0.834000       15.9994           0
     24866 TIP3     183      TIP3     H1       HT       0.417000       1.00800           0
     24867 TIP3     183      TIP3     H2       HT       0.417000       1.00800           0
     24868 TIP3     184      TIP3     OH2      OT      -0.834000       15.9994           0
     24869 TIP3     184      TIP3     H1       HT       0.417000       1.00800           0
     24870 TIP3     184      TIP3     H2       HT       0.417000       1.00800           0
     24871 TIP3     185      TIP3     OH2      OT      -0.834000       15.9994           0
     24872 TIP3     185      TIP3     H1       HT       0.417000       1.00800           0
     24873 TIP3     185      TIP3     H2       HT       0.417000       1.00800           0
     24874 TIP3     186      TIP3     OH2      OT      -0.834000       15.9994           0
     24875 TIP3     186      TIP3     H1       HT       0.417000       1.00800           0
     24876 TIP3     186      TIP3     H2       HT       0.417000       1.00800           0
     24877 TIP3     187      TIP3     OH2      OT      -0.834000       15.9994           0
     24878 TIP3     187      TIP3     H1       HT       0.417000       1.00800           0
     24879 TIP3     187      TIP3     H2       HT       0.417000       1.00800           0
     24880 TIP3     188      TIP3     OH2      OT      -0.834000       15.9994           0
     24881 TIP3     188      TIP3     H1       HT       0.417000       1.00800           0
     24882 TIP3     188      TIP3     H2       HT       0.417000       1.00800           0
     24883 TIP3     189      TIP3     OH2      OT      -0.834000       15.9994           0
     24884 TIP3     189      TIP3     H1       HT       0.417000       1.00800           0
     24885 TIP3     189      TIP3     H2       HT       0.417000       1.00800           0
     24886 TIP3     190      TIP3     OH2      OT      -0.834000       15.9994           0
     24887 TIP3     190      TIP3     H1       HT       0.417000       1.00800           0
     24888 TIP3     190      TIP3     H2       HT       0.417000       1.00800           0
     24889 TIP3     191      TIP3     OH2      OT      -0.834000       15.9994           0
     24890 TIP3     191      TIP3     H1       HT       0.417000       1.00800           0
     24891 TIP3     191      TIP3     H2       HT       0.417000       1.00800           0
     24892 TIP3     192      TIP3     OH2      OT      -0.834000       15.9994           0
     24893 TIP3     192      TIP3     H1       HT       0.417000       1.00800           0
     24894 TIP3     192      TIP3     H2       HT       0.417000       1.00800           0
     24895 TIP3     193      TIP3     OH2      OT      -0.834000       15.9994           0
     24896 TIP3     193      TIP3     H1       HT       0.417000       1.00800           0
     24897 TIP3     193      TIP3     H2       HT       0.417000       1.00800           0
     24898 TIP3     194      TIP3     OH2      OT      -0.834000       15.9994           0
     24899 TIP3     194      TIP3     H1       HT       0.417000       1.00800           0
     24900 TIP3     194      TIP3     H2       HT       0.417000       1.00800           0
     24901 TIP3     195      TIP3     OH2      OT      -0.834000       15.9994           0
     24902 TIP3     195      TIP3     H1       HT       0.417000       1.00800           0
     24903 TIP3     195      TIP3     H2       HT       0.417000       1.00800           0
     24904 TIP3     196      TIP3     OH2      OT      -0.834000       15.9994           0
     24905 TIP3     196      TIP3     H1       HT       0.417000       1.00800           0
     24906 TIP3     196      TIP3     H2       HT       0.417000       1.00800           0
     24907 TIP3     197      TIP3     OH2      OT      -0.834000       15.9994           0
     24908 TIP3     197      TIP3     H1       HT       0.417000       1.00800           0
     24909 TIP3     197      TIP3     H2       HT       0.417000       1.00800           0
     24910 TIP3     198      TIP3     OH2      OT      -0.834000       15.9994           0
     24911 TIP3     198      TIP3     H1       HT       0.417000       1.00800           0
     24912 TIP3     198      TIP3     H2       HT       0.417000       1.00800           0
     24913 TIP3     199      TIP3     OH2      OT      -0.834000       15.9994           0
     24914 TIP3     199      TIP3     H1       HT       0.417000       1.00800           0
     24915 TIP3     199      TIP3     H2       HT       0.417000       1.00800           0
     24916 TIP3     200      TIP3     OH2      OT      -0.834000       15.9994           0
     24917 TIP3     200      TIP3     H1       HT       0.417000       1.00800           0
     24918 TIP3     200      TIP3     H2       HT       0.417000       1.00800           0
     24919 TIP3     201      TIP3     OH2      OT      -0.834000       15.9994           0
     24920 TIP3     201      TIP3     H1       HT       0.417000       1.00800           0
     24921 TIP3     201      TIP3     H2       HT       0.417000       1.00800           0
     24922 TIP3     202      TIP3     OH2      OT      -0.834000       15.9994           0
     24923 TIP3     202      TIP3     H1       HT       0.417000       1.00800           0
     24924 TIP3     202      TIP3     H2       HT       0.417000       1.00800           0
     24925 TIP3     203      TIP3     OH2      OT      -0.834000       15.9994           0
     24926 TIP3     203      TIP3     H1       HT       0.417000       1.00800           0
     24927 TIP3     203      TIP3     H2       HT       0.417000       1.00800           0
     24928 TIP3     204      TIP3     OH2      OT      -0.834000       15.9994           0
     24929 TIP3     204      TIP3     H1       HT       0.417000       1.00800           0
     24930 TIP3     204      TIP3     H2       HT       0.417000       1.00800           0
     24931 TIP3     205      TIP3     OH2      OT      -0.834000       15.9994           0
     24932 TIP3     205      TIP3     H1       HT       0.417000       1.00800           0
     24933 TIP3     205      TIP3     H2       HT       0.417000       1.00800           0
     24934 TIP3     206      TIP3     OH2      OT      -0.834000       15.9994           0
     24935 TIP3     206      TIP3     H1       HT       0.417000       1.00800           0
     24936 TIP3     206      TIP3     H2       HT       0.417000       1.00800           0
     24937 TIP3     207      TIP3     OH2      OT      -0.834000       15.9994           0
     24938 TIP3     207      TIP3     H1       HT       0.417000       1.00800           0
     24939 TIP3     207      TIP3     H2       HT       0.417000       1.00800           0
     24940 TIP3     208      TIP3     OH2      OT      -0.834000       15.9994           0
     24941 TIP3     208      TIP3     H1       HT       0.417000       1.00800           0
     24942 TIP3     208      TIP3     H2       HT       0.417000       1.00800           0
     24943 TIP3     209      TIP3     OH2      OT      -0.834000       15.9994           0
     24944 TIP3     209      TIP3     H1       HT       0.417000       1.00800           0
     24945 TIP3     209      TIP3     H2       HT       0.417000       1.00800           0
     24946 TIP3     210      TIP3     OH2      OT      -0.834000       15.9994           0
     24947 TIP3     210      TIP3     H1       HT       0.417000       1.00800           0
     24948 TIP3     210      TIP3     H2       HT       0.417000       1.00800           0
     24949 TIP3     211      TIP3     OH2      OT      -0.834000       15.9994           0
     24950 TIP3     211      TIP3     H1       HT       0.417000       1.00800           0
     24951 TIP3     211      TIP3     H2       HT       0.417000       1.00800           0
     24952 TIP3     212      TIP3     OH2      OT      -0.834000       15.9994           0
     24953 TIP3     212      TIP3     H1       HT       0.417000       1.00800           0
     24954 TIP3     212      TIP3     H2       HT       0.417000       1.00800           0
     24955 TIP3     213      TIP3     OH2      OT      -0.834000       15.9994           0
     24956 TIP3     213      TIP3     H1       HT       0.417000       1.00800           0
     24957 TIP3     213      TIP3     H2       HT       0.417000       1.00800           0
     24958 TIP3     214      TIP3     OH2      OT      -0.834000       15.9994           0
     24959 TIP3     214      TIP3     H1       HT       0.417000       1.00800           0
     24960 TIP3     214      TIP3     H2       HT       0.417000       1.00800           0
     24961 TIP3     215      TIP3     OH2      OT      -0.834000       15.9994           0
     24962 TIP3     215      TIP3     H1       HT       0.417000       1.00800           0
     24963 TIP3     215      TIP3     H2       HT       0.417000       1.00800           0
     24964 TIP3     216      TIP3     OH2      OT      -0.834000       15.9994           0
     24965 TIP3     216      TIP3     H1       HT       0.417000       1.00800           0
     24966 TIP3     216      TIP3     H2       HT       0.417000       1.00800           0
     24967 TIP3     217      TIP3     OH2      OT      -0.834000       15.9994           0
     24968 TIP3     217      TIP3     H1       HT       0.417000       1.00800           0
     24969 TIP3     217      TIP3     H2       HT       0.417000       1.00800           0
     24970 TIP3     218      TIP3     OH2      OT      -0.834000       15.9994           0
     24971 TIP3     218      TIP3     H1       HT       0.417000       1.00800           0
     24972 TIP3     218      TIP3     H2       HT       0.417000       1.00800           0
     24973 TIP3     219      TIP3     OH2      OT      -0.834000       15.9994           0
     24974 TIP3     219      TIP3     H1       HT       0.417000       1.00800           0
     24975 TIP3     219      TIP3     H2       HT       0.417000       1.00800           0
     24976 TIP3     220      TIP3     OH2      OT      -0.834000       15.9994           0
     24977 TIP3     220      TIP3     H1       HT       0.417000       1.00800           0
     24978 TIP3     220      TIP3     H2       HT       0.417000       1.00800           0
     24979 TIP3     221      TIP3     OH2      OT      -0.834000       15.9994           0
     24980 TIP3     221      TIP3     H1       HT       0.417000       1.00800           0
     24981 TIP3     221      TIP3     H2       HT       0.417000       1.00800           0
     24982 TIP3     222      TIP3     OH2      OT      -0.834000       15.9994           0
     24983 TIP3     222      TIP3     H1       HT       0.417000       1.00800           0
     24984 TIP3     222      TIP3     H2       HT       0.417000       1.00800           0
     24985 TIP3     223      TIP3     OH2      OT      -0.834000       15.9994           0
     24986 TIP3     223      TIP3     H1       HT       0.417000       1.00800           0
     24987 TIP3     223      TIP3     H2       HT       0.417000       1.00800           0
     24988 TIP3     224      TIP3     OH2      OT      -0.834000       15.9994           0
     24989 TIP3     224      TIP3     H1       HT       0.417000       1.00800           0
     24990 TIP3     224      TIP3     H2       HT       0.417000       1.00800           0
     24991 TIP3     225      TIP3     OH2      OT      -0.834000       15.9994           0
     24992 TIP3     225      TIP3     H1       HT       0.417000       1.00800           0
     24993 TIP3     225      TIP3     H2       HT       0.417000       1.00800           0
     24994 TIP3     226      TIP3     OH2      OT      -0.834000       15.9994           0
     24995 TIP3     226      TIP3     H1       HT       0.417000       1.00800           0
     24996 TIP3     226      TIP3     H2       HT       0.417000       1.00800           0
     24997 TIP3     227      TIP3     OH2      OT      -0.834000       15.9994           0
     24998 TIP3     227      TIP3     H1       HT       0.417000       1.00800           0
     24999 TIP3     227      TIP3     H2       HT       0.417000       1.00800           0
     25000 TIP3     228      TIP3     OH2      OT      -0.834000       15.9994           0
     25001 TIP3     228      TIP3     H1       HT       0.417000       1.00800           0
     25002 TIP3     228      TIP3     H2       HT       0.417000       1.00800           0
     25003 TIP3     229      TIP3     OH2      OT      -0.834000       15.9994           0
     25004 TIP3     229      TIP3     H1       HT       0.417000       1.00800           0
     25005 TIP3     229      TIP3     H2       HT       0.417000       1.00800           0
     25006 TIP3     230      TIP3     OH2      OT      -0.834000       15.9994           0
     25007 TIP3     230      TIP3     H1       HT       0.417000       1.00800           0
     25008 TIP3     230      TIP3     H2       HT       0.417000       1.00800           0
     25009 TIP3     231      TIP3     OH2      OT      -0.834000       15.9994           0
     25010 TIP3     231      TIP3     H1       HT       0.417000       1.00800           0
     25011 TIP3     231      TIP3     H2       HT       0.417000       1.00800           0
     25012 TIP3     232      TIP3     OH2      OT      -0.834000       15.9994           0
     25013 TIP3     232      TIP3     H1       HT       0.417000       1.00800           0
     25014 TIP3     232      TIP3     H2       HT       0.417000       1.00800           0
     25015 TIP3     233      TIP3     OH2      OT      -0.834000       15.9994           0
     25016 TIP3     233      TIP3     H1       HT       0.417000       1.00800           0
     25017 TIP3     233      TIP3     H2       HT       0.417000       1.00800           0
     25018 TIP3     234      TIP3     OH2      OT      -0.834000       15.9994           0
     25019 TIP3     234      TIP3     H1       HT       0.417000       1.00800           0
     25020 TIP3     234      TIP3     H2       HT       0.417000       1.00800           0
     25021 TIP3     235      TIP3     OH2      OT      -0.834000       15.9994           0
     25022 TIP3     235      TIP3     H1       HT       0.417000       1.00800           0
     25023 TIP3     235      TIP3     H2       HT       0.417000       1.00800           0
     25024 TIP3     236      TIP3     OH2      OT      -0.834000       15.9994           0
     25025 TIP3     236      TIP3     H1       HT       0.417000       1.00800           0
     25026 TIP3     236      TIP3     H2       HT       0.417000       1.00800           0
     25027 TIP3     237      TIP3     OH2      OT      -0.834000       15.9994           0
     25028 TIP3     237      TIP3     H1       HT       0.417000       1.00800           0
     25029 TIP3     237      TIP3     H2       HT       0.417000       1.00800           0
     25030 TIP3     238      TIP3     OH2      OT      -0.834000       15.9994           0
     25031 TIP3     238      TIP3     H1       HT       0.417000       1.00800           0
     25032 TIP3     238      TIP3     H2       HT       0.417000       1.00800           0
     25033 TIP3     239      TIP3     OH2      OT      -0.834000       15.9994           0
     25034 TIP3     239      TIP3     H1       HT       0.417000       1.00800           0
     25035 TIP3     239      TIP3     H2       HT       0.417000       1.00800           0
     25036 TIP3     240      TIP3     OH2      OT      -0.834000       15.9994           0
     25037 TIP3     240      TIP3     H1       HT       0.417000       1.00800           0
     25038 TIP3     240      TIP3     H2       HT       0.417000       1.00800           0
     25039 TIP3     241      TIP3     OH2      OT      -0.834000       15.9994           0
     25040 TIP3     241      TIP3     H1       HT       0.417000       1.00800           0
     25041 TIP3     241      TIP3     H2       HT       0.417000       1.00800           0
     25042 TIP3     242      TIP3     OH2      OT      -0.834000       15.9994           0
     25043 TIP3     242      TIP3     H1       HT       0.417000       1.00800           0
     25044 TIP3     242      TIP3     H2       HT       0.417000       1.00800           0
     25045 TIP3     243      TIP3     OH2      OT      -0.834000       15.9994           0
     25046 TIP3     243      TIP3     H1       HT       0.417000       1.00800           0
     25047 TIP3     243      TIP3     H2       HT       0.417000       1.00800           0
     25048 TIP3     244      TIP3     OH2      OT      -0.834000       15.9994           0
     25049 TIP3     244      TIP3     H1       HT       0.417000       1.00800           0
     25050 TIP3     244      TIP3     H2       HT       0.417000       1.00800           0
     25051 TIP3     245      TIP3     OH2      OT      -0.834000       15.9994           0
     25052 TIP3     245      TIP3     H1       HT       0.417000       1.00800           0
     25053 TIP3     245      TIP3     H2       HT       0.417000       1.00800           0
     25054 TIP3     246      TIP3     OH2      OT      -0.834000       15.9994           0
     25055 TIP3     246      TIP3     H1       HT       0.417000       1.00800           0
     25056 TIP3     246      TIP3     H2       HT       0.417000       1.00800           0
     25057 TIP3     247      TIP3     OH2      OT      -0.834000       15.9994           0
     25058 TIP3     247      TIP3     H1       HT       0.417000       1.00800           0
     25059 TIP3     247      TIP3     H2       HT       0.417000       1.00800           0
     25060 TIP3     248      TIP3     OH2      OT      -0.834000       15.9994           0
     25061 TIP3     248      TIP3     H1       HT       0.417000       1.00800           0
     25062 TIP3     248      TIP3     H2       HT       0.417000       1.00800           0
     25063 TIP3     249      TIP3     OH2      OT      -0.834000       15.9994           0
     25064 TIP3     249      TIP3     H1       HT       0.417000       1.00800           0
     25065 TIP3     249      TIP3     H2       HT       0.417000       1.00800           0
     25066 TIP3     250      TIP3     OH2      OT      -0.834000       15.9994           0
     25067 TIP3     250      TIP3     H1       HT       0.417000       1.00800           0
     25068 TIP3     250      TIP3     H2       HT       0.417000       1.00800           0
     25069 TIP3     251      TIP3     OH2      OT      -0.834000       15.9994           0
     25070 TIP3     251      TIP3     H1       HT       0.417000       1.00800           0
     25071 TIP3     251      TIP3     H2       HT       0.417000       1.00800           0
     25072 TIP3     252      TIP3     OH2      OT      -0.834000       15.9994           0
     25073 TIP3     252      TIP3     H1       HT       0.417000       1.00800           0
     25074 TIP3     252      TIP3     H2       HT       0.417000       1.00800           0
     25075 TIP3     253      TIP3     OH2      OT      -0.834000       15.9994           0
     25076 TIP3     253      TIP3     H1       HT       0.417000       1.00800           0
     25077 TIP3     253      TIP3     H2       HT       0.417000       1.00800           0
     25078 TIP3     254      TIP3     OH2      OT      -0.834000       15.9994           0
     25079 TIP3     254      TIP3     H1       HT       0.417000       1.00800           0
     25080 TIP3     254      TIP3     H2       HT       0.417000       1.00800           0
     25081 TIP3     255      TIP3     OH2      OT      -0.834000       15.9994           0
     25082 TIP3     255      TIP3     H1       HT       0.417000       1.00800           0
     25083 TIP3     255      TIP3     H2       HT       0.417000       1.00800           0
     25084 TIP3     256      TIP3     OH2      OT      -0.834000       15.9994           0
     25085 TIP3     256      TIP3     H1       HT       0.417000       1.00800           0
     25086 TIP3     256      TIP3     H2       HT       0.417000       1.00800           0
     25087 TIP3     257      TIP3     OH2      OT      -0.834000       15.9994           0
     25088 TIP3     257      TIP3     H1       HT       0.417000       1.00800           0
     25089 TIP3     257      TIP3     H2       HT       0.417000       1.00800           0
     25090 TIP3     258      TIP3     OH2      OT      -0.834000       15.9994           0
     25091 TIP3     258      TIP3     H1       HT       0.417000       1.00800           0
     25092 TIP3     258      TIP3     H2       HT       0.417000       1.00800           0
     25093 TIP3     259      TIP3     OH2      OT      -0.834000       15.9994           0
     25094 TIP3     259      TIP3     H1       HT       0.417000       1.00800           0
     25095 TIP3     259      TIP3     H2       HT       0.417000       1.00800           0
     25096 TIP3     260      TIP3     OH2      OT      -0.834000       15.9994           0
     25097 TIP3     260      TIP3     H1       HT       0.417000       1.00800           0
     25098 TIP3     260      TIP3     H2       HT       0.417000       1.00800           0
     25099 TIP3     261      TIP3     OH2      OT      -0.834000       15.9994           0
     25100 TIP3     261      TIP3     H1       HT       0.417000       1.00800           0
     25101 TIP3     261      TIP3     H2       HT       0.417000       1.00800           0
     25102 TIP3     262      TIP3     OH2      OT      -0.834000       15.9994           0
     25103 TIP3     262      TIP3     H1       HT       0.417000       1.00800           0
     25104 TIP3     262      TIP3     H2       HT       0.417000       1.00800           0
     25105 TIP3     263      TIP3     OH2      OT      -0.834000       15.9994           0
     25106 TIP3     263      TIP3     H1       HT       0.417000       1.00800           0
     25107 TIP3     263      TIP3     H2       HT       0.417000       1.00800           0
     25108 TIP3     264      TIP3     OH2      OT      -0.834000       15.9994           0
     25109 TIP3     264      TIP3     H1       HT       0.417000       1.00800           0
     25110 TIP3     264      TIP3     H2       HT       0.417000       1.00800           0
     25111 TIP3     265      TIP3     OH2      OT      -0.834000       15.9994           0
     25112 TIP3     265      TIP3     H1       HT       0.417000       1.00800           0
     25113 TIP3     265      TIP3     H2       HT       0.417000       1.00800           0
     25114 TIP3     266      TIP3     OH2      OT      -0.834000       15.9994           0
     25115 TIP3     266      TIP3     H1       HT       0.417000       1.00800           0
     25116 TIP3     266      TIP3     H2       HT       0.417000       1.00800           0
     25117 TIP3     267      TIP3     OH2      OT      -0.834000       15.9994           0
     25118 TIP3     267      TIP3     H1       HT       0.417000       1.00800           0
     25119 TIP3     267      TIP3     H2       HT       0.417000       1.00800           0
     25120 TIP3     268      TIP3     OH2      OT      -0.834000       15.9994           0
     25121 TIP3     268      TIP3     H1       HT       0.417000       1.00800           0
     25122 TIP3     268      TIP3     H2       HT       0.417000       1.00800           0
     25123 TIP3     269      TIP3     OH2      OT      -0.834000       15.9994           0
     25124 TIP3     269      TIP3     H1       HT       0.417000       1.00800           0
     25125 TIP3     269      TIP3     H2       HT       0.417000       1.00800           0
     25126 TIP3     270      TIP3     OH2      OT      -0.834000       15.9994           0
     25127 TIP3     270      TIP3     H1       HT       0.417000       1.00800           0
     25128 TIP3     270      TIP3     H2       HT       0.417000       1.00800           0
     25129 TIP3     271      TIP3     OH2      OT      -0.834000       15.9994           0
     25130 TIP3     271      TIP3     H1       HT       0.417000       1.00800           0
     25131 TIP3     271      TIP3     H2       HT       0.417000       1.00800           0
     25132 TIP3     272      TIP3     OH2      OT      -0.834000       15.9994           0
     25133 TIP3     272      TIP3     H1       HT       0.417000       1.00800           0
     25134 TIP3     272      TIP3     H2       HT       0.417000       1.00800           0
     25135 TIP3     273      TIP3     OH2      OT      -0.834000       15.9994           0
     25136 TIP3     273      TIP3     H1       HT       0.417000       1.00800           0
     25137 TIP3     273      TIP3     H2       HT       0.417000       1.00800           0
     25138 TIP3     274      TIP3     OH2      OT      -0.834000       15.9994           0
     25139 TIP3     274      TIP3     H1       HT       0.417000       1.00800           0
     25140 TIP3     274      TIP3     H2       HT       0.417000       1.00800           0
     25141 TIP3     275      TIP3     OH2      OT      -0.834000       15.9994           0
     25142 TIP3     275      TIP3     H1       HT       0.417000       1.00800           0
     25143 TIP3     275      TIP3     H2       HT       0.417000       1.00800           0
     25144 TIP3     276      TIP3     OH2      OT      -0.834000       15.9994           0
     25145 TIP3     276      TIP3     H1       HT       0.417000       1.00800           0
     25146 TIP3     276      TIP3     H2       HT       0.417000       1.00800           0
     25147 TIP3     277      TIP3     OH2      OT      -0.834000       15.9994           0
     25148 TIP3     277      TIP3     H1       HT       0.417000       1.00800           0
     25149 TIP3     277      TIP3     H2       HT       0.417000       1.00800           0
     25150 TIP3     278      TIP3     OH2      OT      -0.834000       15.9994           0
     25151 TIP3     278      TIP3     H1       HT       0.417000       1.00800           0
     25152 TIP3     278      TIP3     H2       HT       0.417000       1.00800           0
     25153 TIP3     279      TIP3     OH2      OT      -0.834000       15.9994           0
     25154 TIP3     279      TIP3     H1       HT       0.417000       1.00800           0
     25155 TIP3     279      TIP3     H2       HT       0.417000       1.00800           0
     25156 TIP3     280      TIP3     OH2      OT      -0.834000       15.9994           0
     25157 TIP3     280      TIP3     H1       HT       0.417000       1.00800           0
     25158 TIP3     280      TIP3     H2       HT       0.417000       1.00800           0
     25159 TIP3     281      TIP3     OH2      OT      -0.834000       15.9994           0
     25160 TIP3     281      TIP3     H1       HT       0.417000       1.00800           0
     25161 TIP3     281      TIP3     H2       HT       0.417000       1.00800           0
     25162 TIP3     282      TIP3     OH2      OT      -0.834000       15.9994           0
     25163 TIP3     282      TIP3     H1       HT       0.417000       1.00800           0
     25164 TIP3     282      TIP3     H2       HT       0.417000       1.00800           0
     25165 TIP3     283      TIP3     OH2      OT      -0.834000       15.9994           0
     25166 TIP3     283      TIP3     H1       HT       0.417000       1.00800           0
     25167 TIP3     283      TIP3     H2       HT       0.417000       1.00800           0
     25168 TIP3     284      TIP3     OH2      OT      -0.834000       15.9994           0
     25169 TIP3     284      TIP3     H1       HT       0.417000       1.00800           0
     25170 TIP3     284      TIP3     H2       HT       0.417000       1.00800           0
     25171 TIP3     285      TIP3     OH2      OT      -0.834000       15.9994           0
     25172 TIP3     285      TIP3     H1       HT       0.417000       1.00800           0
     25173 TIP3     285      TIP3     H2       HT       0.417000       1.00800           0
     25174 TIP3     286      TIP3     OH2      OT      -0.834000       15.9994           0
     25175 TIP3     286      TIP3     H1       HT       0.417000       1.00800           0
     25176 TIP3     286      TIP3     H2       HT       0.417000       1.00800           0
     25177 TIP3     287      TIP3     OH2      OT      -0.834000       15.9994           0
     25178 TIP3     287      TIP3     H1       HT       0.417000       1.00800           0
     25179 TIP3     287      TIP3     H2       HT       0.417000       1.00800           0
     25180 TIP3     288      TIP3     OH2      OT      -0.834000       15.9994           0
     25181 TIP3     288      TIP3     H1       HT       0.417000       1.00800           0
     25182 TIP3     288      TIP3     H2       HT       0.417000       1.00800           0
     25183 TIP3     289      TIP3     OH2      OT      -0.834000       15.9994           0
     25184 TIP3     289      TIP3     H1       HT       0.417000       1.00800           0
     25185 TIP3     289      TIP3     H2       HT       0.417000       1.00800           0
     25186 TIP3     290      TIP3     OH2      OT      -0.834000       15.9994           0
     25187 TIP3     290      TIP3     H1       HT       0.417000       1.00800           0
     25188 TIP3     290      TIP3     H2       HT       0.417000       1.00800           0
     25189 TIP3     291      TIP3     OH2      OT      -0.834000       15.9994           0
     25190 TIP3     291      TIP3     H1       HT       0.417000       1.00800           0
     25191 TIP3     291      TIP3     H2       HT       0.417000       1.00800           0
     25192 TIP3     292      TIP3     OH2      OT      -0.834000       15.9994           0
     25193 TIP3     292      TIP3     H1       HT       0.417000       1.00800           0
     25194 TIP3     292      TIP3     H2       HT       0.417000       1.00800           0
     25195 TIP3     293      TIP3     OH2      OT      -0.834000       15.9994           0
     25196 TIP3     293      TIP3     H1       HT       0.417000       1.00800           0
     25197 TIP3     293      TIP3     H2       HT       0.417000       1.00800           0
     25198 TIP3     294      TIP3     OH2      OT      -0.834000       15.9994           0
     25199 TIP3     294      TIP3     H1       HT       0.417000       1.00800           0
     25200 TIP3     294      TIP3     H2       HT       0.417000       1.00800           0
     25201 TIP3     295      TIP3     OH2      OT      -0.834000       15.9994           0
     25202 TIP3     295      TIP3     H1       HT       0.417000       1.00800           0
     25203 TIP3     295      TIP3     H2       HT       0.417000       1.00800           0
     25204 TIP3     296      TIP3     OH2      OT      -0.834000       15.9994           0
     25205 TIP3     296      TIP3     H1       HT       0.417000       1.00800           0
     25206 TIP3     296      TIP3     H2       HT       0.417000       1.00800           0
     25207 TIP3     297      TIP3     OH2      OT      -0.834000       15.9994           0
     25208 TIP3     297      TIP3     H1       HT       0.417000       1.00800           0
     25209 TIP3     297      TIP3     H2       HT       0.417000       1.00800           0
     25210 TIP3     298      TIP3     OH2      OT      -0.834000       15.9994           0
     25211 TIP3     298      TIP3     H1       HT       0.417000       1.00800           0
     25212 TIP3     298      TIP3     H2       HT       0.417000       1.00800           0
     25213 TIP3     299      TIP3     OH2      OT      -0.834000       15.9994           0
     25214 TIP3     299      TIP3     H1       HT       0.417000       1.00800           0
     25215 TIP3     299      TIP3     H2       HT       0.417000       1.00800           0
     25216 TIP3     300      TIP3     OH2      OT      -0.834000       15.9994           0
     25217 TIP3     300      TIP3     H1       HT       0.417000       1.00800           0
     25218 TIP3     300      TIP3     H2       HT       0.417000       1.00800           0
     25219 TIP3     301      TIP3     OH2      OT      -0.834000       15.9994           0
     25220 TIP3     301      TIP3     H1       HT       0.417000       1.00800           0
     25221 TIP3     301      TIP3     H2       HT       0.417000       1.00800           0
     25222 TIP3     302      TIP3     OH2      OT      -0.834000       15.9994           0
     25223 TIP3     302      TIP3     H1       HT       0.417000       1.00800           0
     25224 TIP3     302      TIP3     H2       HT       0.417000       1.00800           0
     25225 TIP3     303      TIP3     OH2      OT      -0.834000       15.9994           0
     25226 TIP3     303      TIP3     H1       HT       0.417000       1.00800           0
     25227 TIP3     303      TIP3     H2       HT       0.417000       1.00800           0
     25228 TIP3     304      TIP3     OH2      OT      -0.834000       15.9994           0
     25229 TIP3     304      TIP3     H1       HT       0.417000       1.00800           0
     25230 TIP3     304      TIP3     H2       HT       0.417000       1.00800           0
     25231 TIP3     305      TIP3     OH2      OT      -0.834000       15.9994           0
     25232 TIP3     305      TIP3     H1       HT       0.417000       1.00800           0
     25233 TIP3     305      TIP3     H2       HT       0.417000       1.00800           0
     25234 TIP3     306      TIP3     OH2      OT      -0.834000       15.9994           0
     25235 TIP3     306      TIP3     H1       HT       0.417000       1.00800           0
     25236 TIP3     306      TIP3     H2       HT       0.417000       1.00800           0
     25237 TIP3     307      TIP3     OH2      OT      -0.834000       15.9994           0
     25238 TIP3     307      TIP3     H1       HT       0.417000       1.00800           0
     25239 TIP3     307      TIP3     H2       HT       0.417000       1.00800           0
     25240 TIP3     308      TIP3     OH2      OT      -0.834000       15.9994           0
     25241 TIP3     308      TIP3     H1       HT       0.417000       1.00800           0
     25242 TIP3     308      TIP3     H2       HT       0.417000       1.00800           0
     25243 TIP3     309      TIP3     OH2      OT      -0.834000       15.9994           0
     25244 TIP3     309      TIP3     H1       HT       0.417000       1.00800           0
     25245 TIP3     309      TIP3     H2       HT       0.417000       1.00800           0
     25246 TIP3     310      TIP3     OH2      OT      -0.834000       15.9994           0
     25247 TIP3     310      TIP3     H1       HT       0.417000       1.00800           0
     25248 TIP3     310      TIP3     H2       HT       0.417000       1.00800           0
     25249 TIP3     311      TIP3     OH2      OT      -0.834000       15.9994           0
     25250 TIP3     311      TIP3     H1       HT       0.417000       1.00800           0
     25251 TIP3     311      TIP3     H2       HT       0.417000       1.00800           0
     25252 TIP3     312      TIP3     OH2      OT      -0.834000       15.9994           0
     25253 TIP3     312      TIP3     H1       HT       0.417000       1.00800           0
     25254 TIP3     312      TIP3     H2       HT       0.417000       1.00800           0
     25255 TIP3     313      TIP3     OH2      OT      -0.834000       15.9994           0
     25256 TIP3     313      TIP3     H1       HT       0.417000       1.00800           0
     25257 TIP3     313      TIP3     H2       HT       0.417000       1.00800           0
     25258 TIP3     314      TIP3     OH2      OT      -0.834000       15.9994           0
     25259 TIP3     314      TIP3     H1       HT       0.417000       1.00800           0
     25260 TIP3     314      TIP3     H2       HT       0.417000       1.00800           0
     25261 TIP3     315      TIP3     OH2      OT      -0.834000       15.9994           0
     25262 TIP3     315      TIP3     H1       HT       0.417000       1.00800           0
     25263 TIP3     315      TIP3     H2       HT       0.417000       1.00800           0
     25264 TIP3     316      TIP3     OH2      OT      -0.834000       15.9994           0
     25265 TIP3     316      TIP3     H1       HT       0.417000       1.00800           0
     25266 TIP3     316      TIP3     H2       HT       0.417000       1.00800           0
     25267 TIP3     317      TIP3     OH2      OT      -0.834000       15.9994           0
     25268 TIP3     317      TIP3     H1       HT       0.417000       1.00800           0
     25269 TIP3     317      TIP3     H2       HT       0.417000       1.00800           0
     25270 TIP3     318      TIP3     OH2      OT      -0.834000       15.9994           0
     25271 TIP3     318      TIP3     H1       HT       0.417000       1.00800           0
     25272 TIP3     318      TIP3     H2       HT       0.417000       1.00800           0
     25273 TIP3     319      TIP3     OH2      OT      -0.834000       15.9994           0
     25274 TIP3     319      TIP3     H1       HT       0.417000       1.00800           0
     25275 TIP3     319      TIP3     H2       HT       0.417000       1.00800           0
     25276 TIP3     320      TIP3     OH2      OT      -0.834000       15.9994           0
     25277 TIP3     320      TIP3     H1       HT       0.417000       1.00800           0
     25278 TIP3     320      TIP3     H2       HT       0.417000       1.00800           0
     25279 TIP3     321      TIP3     OH2      OT      -0.834000       15.9994           0
     25280 TIP3     321      TIP3     H1       HT       0.417000       1.00800           0
     25281 TIP3     321      TIP3     H2       HT       0.417000       1.00800           0
     25282 TIP3     322      TIP3     OH2      OT      -0.834000       15.9994           0
     25283 TIP3     322      TIP3     H1       HT       0.417000       1.00800           0
     25284 TIP3     322      TIP3     H2       HT       0.417000       1.00800           0
     25285 TIP3     323      TIP3     OH2      OT      -0.834000       15.9994           0
     25286 TIP3     323      TIP3     H1       HT       0.417000       1.00800           0
     25287 TIP3     323      TIP3     H2       HT       0.417000       1.00800           0
     25288 TIP3     324      TIP3     OH2      OT      -0.834000       15.9994           0
     25289 TIP3     324      TIP3     H1       HT       0.417000       1.00800           0
     25290 TIP3     324      TIP3     H2       HT       0.417000       1.00800           0
     25291 TIP3     325      TIP3     OH2      OT      -0.834000       15.9994           0
     25292 TIP3     325      TIP3     H1       HT       0.417000       1.00800           0
     25293 TIP3     325      TIP3     H2       HT       0.417000       1.00800           0
     25294 TIP3     326      TIP3     OH2      OT      -0.834000       15.9994           0
     25295 TIP3     326      TIP3     H1       HT       0.417000       1.00800           0
     25296 TIP3     326      TIP3     H2       HT       0.417000       1.00800           0
     25297 TIP3     327      TIP3     OH2      OT      -0.834000       15.9994           0
     25298 TIP3     327      TIP3     H1       HT       0.417000       1.00800           0
     25299 TIP3     327      TIP3     H2       HT       0.417000       1.00800           0
     25300 TIP3     328      TIP3     OH2      OT      -0.834000       15.9994           0
     25301 TIP3     328      TIP3     H1       HT       0.417000       1.00800           0
     25302 TIP3     328      TIP3     H2       HT       0.417000       1.00800           0
     25303 TIP3     329      TIP3     OH2      OT      -0.834000       15.9994           0
     25304 TIP3     329      TIP3     H1       HT       0.417000       1.00800           0
     25305 TIP3     329      TIP3     H2       HT       0.417000       1.00800           0
     25306 TIP3     330      TIP3     OH2      OT      -0.834000       15.9994           0
     25307 TIP3     330      TIP3     H1       HT       0.417000       1.00800           0
     25308 TIP3     330      TIP3     H2       HT       0.417000       1.00800           0
     25309 TIP3     331      TIP3     OH2      OT      -0.834000       15.9994           0
     25310 TIP3     331      TIP3     H1       HT       0.417000       1.00800           0
     25311 TIP3     331      TIP3     H2       HT       0.417000       1.00800           0
     25312 TIP3     332      TIP3     OH2      OT      -0.834000       15.9994           0
     25313 TIP3     332      TIP3     H1       HT       0.417000       1.00800           0
     25314 TIP3     332      TIP3     H2       HT       0.417000       1.00800           0
     25315 TIP3     333      TIP3     OH2      OT      -0.834000       15.9994           0
     25316 TIP3     333      TIP3     H1       HT       0.417000       1.00800           0
     25317 TIP3     333      TIP3     H2       HT       0.417000       1.00800           0
     25318 TIP3     334      TIP3     OH2      OT      -0.834000       15.9994           0
     25319 TIP3     334      TIP3     H1       HT       0.417000       1.00800           0
     25320 TIP3     334      TIP3     H2       HT       0.417000       1.00800           0
     25321 TIP3     335      TIP3     OH2      OT      -0.834000       15.9994           0
     25322 TIP3     335      TIP3     H1       HT       0.417000       1.00800           0
     25323 TIP3     335      TIP3     H2       HT       0.417000       1.00800           0
     25324 TIP3     336      TIP3     OH2      OT      -0.834000       15.9994           0
     25325 TIP3     336      TIP3     H1       HT       0.417000       1.00800           0
     25326 TIP3     336      TIP3     H2       HT       0.417000       1.00800           0
     25327 TIP3     337      TIP3     OH2      OT      -0.834000       15.9994           0
     25328 TIP3     337      TIP3     H1       HT       0.417000       1.00800           0
     25329 TIP3     337      TIP3     H2       HT       0.417000       1.00800           0
     25330 TIP3     338      TIP3     OH2      OT      -0.834000       15.9994           0
     25331 TIP3     338      TIP3     H1       HT       0.417000       1.00800           0
     25332 TIP3     338      TIP3     H2       HT       0.417000       1.00800           0
     25333 TIP3     339      TIP3     OH2      OT      -0.834000       15.9994           0
     25334 TIP3     339      TIP3     H1       HT       0.417000       1.00800           0
     25335 TIP3     339      TIP3     H2       HT       0.417000       1.00800           0
     25336 TIP3     340      TIP3     OH2      OT      -0.834000       15.9994           0
     25337 TIP3     340      TIP3     H1       HT       0.417000       1.00800           0
     25338 TIP3     340      TIP3     H2       HT       0.417000       1.00800           0
     25339 TIP3     341      TIP3     OH2      OT      -0.834000       15.9994           0
     25340 TIP3     341      TIP3     H1       HT       0.417000       1.00800           0
     25341 TIP3     341      TIP3     H2       HT       0.417000       1.00800           0
     25342 TIP3     342      TIP3     OH2      OT      -0.834000       15.9994           0
     25343 TIP3     342      TIP3     H1       HT       0.417000       1.00800           0
     25344 TIP3     342      TIP3     H2       HT       0.417000       1.00800           0
     25345 TIP3     343      TIP3     OH2      OT      -0.834000       15.9994           0
     25346 TIP3     343      TIP3     H1       HT       0.417000       1.00800           0
     25347 TIP3     343      TIP3     H2       HT       0.417000       1.00800           0
     25348 TIP3     344      TIP3     OH2      OT      -0.834000       15.9994           0
     25349 TIP3     344      TIP3     H1       HT       0.417000       1.00800           0
     25350 TIP3     344      TIP3     H2       HT       0.417000       1.00800           0
     25351 TIP3     345      TIP3     OH2      OT      -0.834000       15.9994           0
     25352 TIP3     345      TIP3     H1       HT       0.417000       1.00800           0
     25353 TIP3     345      TIP3     H2       HT       0.417000       1.00800           0
     25354 TIP3     346      TIP3     OH2      OT      -0.834000       15.9994           0
     25355 TIP3     346      TIP3     H1       HT       0.417000       1.00800           0
     25356 TIP3     346      TIP3     H2       HT       0.417000       1.00800           0
     25357 TIP3     347      TIP3     OH2      OT      -0.834000       15.9994           0
     25358 TIP3     347      TIP3     H1       HT       0.417000       1.00800           0
     25359 TIP3     347      TIP3     H2       HT       0.417000       1.00800           0
     25360 TIP3     348      TIP3     OH2      OT      -0.834000       15.9994           0
     25361 TIP3     348      TIP3     H1       HT       0.417000       1.00800           0
     25362 TIP3     348      TIP3     H2       HT       0.417000       1.00800           0
     25363 TIP3     349      TIP3     OH2      OT      -0.834000       15.9994           0
     25364 TIP3     349      TIP3     H1       HT       0.417000       1.00800           0
     25365 TIP3     349      TIP3     H2       HT       0.417000       1.00800           0
     25366 TIP3     350      TIP3     OH2      OT      -0.834000       15.9994           0
     25367 TIP3     350      TIP3     H1       HT       0.417000       1.00800           0
     25368 TIP3     350      TIP3     H2       HT       0.417000       1.00800           0
     25369 TIP3     351      TIP3     OH2      OT      -0.834000       15.9994           0
     25370 TIP3     351      TIP3     H1       HT       0.417000       1.00800           0
     25371 TIP3     351      TIP3     H2       HT       0.417000       1.00800           0
     25372 TIP3     352      TIP3     OH2      OT      -0.834000       15.9994           0
     25373 TIP3     352      TIP3     H1       HT       0.417000       1.00800           0
     25374 TIP3     352      TIP3     H2       HT       0.417000       1.00800           0
     25375 TIP3     353      TIP3     OH2      OT      -0.834000       15.9994           0
     25376 TIP3     353      TIP3     H1       HT       0.417000       1.00800           0
     25377 TIP3     353      TIP3     H2       HT       0.417000       1.00800           0
     25378 TIP3     354      TIP3     OH2      OT      -0.834000       15.9994           0
     25379 TIP3     354      TIP3     H1       HT       0.417000       1.00800           0
     25380 TIP3     354      TIP3     H2       HT       0.417000       1.00800           0
     25381 TIP3     355      TIP3     OH2      OT      -0.834000       15.9994           0
     25382 TIP3     355      TIP3     H1       HT       0.417000       1.00800           0
     25383 TIP3     355      TIP3     H2       HT       0.417000       1.00800           0
     25384 TIP3     356      TIP3     OH2      OT      -0.834000       15.9994           0
     25385 TIP3     356      TIP3     H1       HT       0.417000       1.00800           0
     25386 TIP3     356      TIP3     H2       HT       0.417000       1.00800           0
     25387 TIP3     357      TIP3     OH2      OT      -0.834000       15.9994           0
     25388 TIP3     357      TIP3     H1       HT       0.417000       1.00800           0
     25389 TIP3     357      TIP3     H2       HT       0.417000       1.00800           0
     25390 TIP3     358      TIP3     OH2      OT      -0.834000       15.9994           0
     25391 TIP3     358      TIP3     H1       HT       0.417000       1.00800           0
     25392 TIP3     358      TIP3     H2       HT       0.417000       1.00800           0
     25393 TIP3     359      TIP3     OH2      OT      -0.834000       15.9994           0
     25394 TIP3     359      TIP3     H1       HT       0.417000       1.00800           0
     25395 TIP3     359      TIP3     H2       HT       0.417000       1.00800           0
     25396 TIP3     360      TIP3     OH2      OT      -0.834000       15.9994           0
     25397 TIP3     360      TIP3     H1       HT       0.417000       1.00800           0
     25398 TIP3     360      TIP3     H2       HT       0.417000       1.00800           0
     25399 TIP3     361      TIP3     OH2      OT      -0.834000       15.9994           0
     25400 TIP3     361      TIP3     H1       HT       0.417000       1.00800           0
     25401 TIP3     361      TIP3     H2       HT       0.417000       1.00800           0
     25402 TIP3     362      TIP3     OH2      OT      -0.834000       15.9994           0
     25403 TIP3     362      TIP3     H1       HT       0.417000       1.00800           0
     25404 TIP3     362      TIP3     H2       HT       0.417000       1.00800           0
     25405 TIP3     363      TIP3     OH2      OT      -0.834000       15.9994           0
     25406 TIP3     363      TIP3     H1       HT       0.417000       1.00800           0
     25407 TIP3     363      TIP3     H2       HT       0.417000       1.00800           0
     25408 TIP3     364      TIP3     OH2      OT      -0.834000       15.9994           0
     25409 TIP3     364      TIP3     H1       HT       0.417000       1.00800           0
     25410 TIP3     364      TIP3     H2       HT       0.417000       1.00800           0
     25411 TIP3     365      TIP3     OH2      OT      -0.834000       15.9994           0
     25412 TIP3     365      TIP3     H1       HT       0.417000       1.00800           0
     25413 TIP3     365      TIP3     H2       HT       0.417000       1.00800           0
     25414 TIP3     366      TIP3     OH2      OT      -0.834000       15.9994           0
     25415 TIP3     366      TIP3     H1       HT       0.417000       1.00800           0
     25416 TIP3     366      TIP3     H2       HT       0.417000       1.00800           0
     25417 TIP3     367      TIP3     OH2      OT      -0.834000       15.9994           0
     25418 TIP3     367      TIP3     H1       HT       0.417000       1.00800           0
     25419 TIP3     367      TIP3     H2       HT       0.417000       1.00800           0
     25420 TIP3     368      TIP3     OH2      OT      -0.834000       15.9994           0
     25421 TIP3     368      TIP3     H1       HT       0.417000       1.00800           0
     25422 TIP3     368      TIP3     H2       HT       0.417000       1.00800           0
     25423 TIP3     369      TIP3     OH2      OT      -0.834000       15.9994           0
     25424 TIP3     369      TIP3     H1       HT       0.417000       1.00800           0
     25425 TIP3     369      TIP3     H2       HT       0.417000       1.00800           0
     25426 TIP3     370      TIP3     OH2      OT      -0.834000       15.9994           0
     25427 TIP3     370      TIP3     H1       HT       0.417000       1.00800           0
     25428 TIP3     370      TIP3     H2       HT       0.417000       1.00800           0
     25429 TIP3     371      TIP3     OH2      OT      -0.834000       15.9994           0
     25430 TIP3     371      TIP3     H1       HT       0.417000       1.00800           0
     25431 TIP3     371      TIP3     H2       HT       0.417000       1.00800           0
     25432 TIP3     372      TIP3     OH2      OT      -0.834000       15.9994           0
     25433 TIP3     372      TIP3     H1       HT       0.417000       1.00800           0
     25434 TIP3     372      TIP3     H2       HT       0.417000       1.00800           0
     25435 TIP3     373      TIP3     OH2      OT      -0.834000       15.9994           0
     25436 TIP3     373      TIP3     H1       HT       0.417000       1.00800           0
     25437 TIP3     373      TIP3     H2       HT       0.417000       1.00800           0
     25438 TIP3     374      TIP3     OH2      OT      -0.834000       15.9994           0
     25439 TIP3     374      TIP3     H1       HT       0.417000       1.00800           0
     25440 TIP3     374      TIP3     H2       HT       0.417000       1.00800           0
     25441 TIP3     375      TIP3     OH2      OT      -0.834000       15.9994           0
     25442 TIP3     375      TIP3     H1       HT       0.417000       1.00800           0
     25443 TIP3     375      TIP3     H2       HT       0.417000       1.00800           0
     25444 TIP3     376      TIP3     OH2      OT      -0.834000       15.9994           0
     25445 TIP3     376      TIP3     H1       HT       0.417000       1.00800           0
     25446 TIP3     376      TIP3     H2       HT       0.417000       1.00800           0
     25447 TIP3     377      TIP3     OH2      OT      -0.834000       15.9994           0
     25448 TIP3     377      TIP3     H1       HT       0.417000       1.00800           0
     25449 TIP3     377      TIP3     H2       HT       0.417000       1.00800           0
     25450 TIP3     378      TIP3     OH2      OT      -0.834000       15.9994           0
     25451 TIP3     378      TIP3     H1       HT       0.417000       1.00800           0
     25452 TIP3     378      TIP3     H2       HT       0.417000       1.00800           0
     25453 TIP3     379      TIP3     OH2      OT      -0.834000       15.9994           0
     25454 TIP3     379      TIP3     H1       HT       0.417000       1.00800           0
     25455 TIP3     379      TIP3     H2       HT       0.417000       1.00800           0
     25456 TIP3     380      TIP3     OH2      OT      -0.834000       15.9994           0
     25457 TIP3     380      TIP3     H1       HT       0.417000       1.00800           0
     25458 TIP3     380      TIP3     H2       HT       0.417000       1.00800           0
     25459 TIP3     381      TIP3     OH2      OT      -0.834000       15.9994           0
     25460 TIP3     381      TIP3     H1       HT       0.417000       1.00800           0
     25461 TIP3     381      TIP3     H2       HT       0.417000       1.00800           0
     25462 TIP3     382      TIP3     OH2      OT      -0.834000       15.9994           0
     25463 TIP3     382      TIP3     H1       HT       0.417000       1.00800           0
     25464 TIP3     382      TIP3     H2       HT       0.417000       1.00800           0
     25465 TIP3     383      TIP3     OH2      OT      -0.834000       15.9994           0
     25466 TIP3     383      TIP3     H1       HT       0.417000       1.00800           0
     25467 TIP3     383      TIP3     H2       HT       0.417000       1.00800           0
     25468 TIP3     384      TIP3     OH2      OT      -0.834000       15.9994           0
     25469 TIP3     384      TIP3     H1       HT       0.417000       1.00800           0
     25470 TIP3     384      TIP3     H2       HT       0.417000       1.00800           0
     25471 TIP3     385      TIP3     OH2      OT      -0.834000       15.9994           0
     25472 TIP3     385      TIP3     H1       HT       0.417000       1.00800           0
     25473 TIP3     385      TIP3     H2       HT       0.417000       1.00800           0
     25474 TIP3     386      TIP3     OH2      OT      -0.834000       15.9994           0
     25475 TIP3     386      TIP3     H1       HT       0.417000       1.00800           0
     25476 TIP3     386      TIP3     H2       HT       0.417000       1.00800           0
     25477 TIP3     387      TIP3     OH2      OT      -0.834000       15.9994           0
     25478 TIP3     387      TIP3     H1       HT       0.417000       1.00800           0
     25479 TIP3     387      TIP3     H2       HT       0.417000       1.00800           0
     25480 TIP3     388      TIP3     OH2      OT      -0.834000       15.9994           0
     25481 TIP3     388      TIP3     H1       HT       0.417000       1.00800           0
     25482 TIP3     388      TIP3     H2       HT       0.417000       1.00800           0
     25483 TIP3     389      TIP3     OH2      OT      -0.834000       15.9994           0
     25484 TIP3     389      TIP3     H1       HT       0.417000       1.00800           0
     25485 TIP3     389      TIP3     H2       HT       0.417000       1.00800           0
     25486 TIP3     390      TIP3     OH2      OT      -0.834000       15.9994           0
     25487 TIP3     390      TIP3     H1       HT       0.417000       1.00800           0
     25488 TIP3     390      TIP3     H2       HT       0.417000       1.00800           0
     25489 TIP3     391      TIP3     OH2      OT      -0.834000       15.9994           0
     25490 TIP3     391      TIP3     H1       HT       0.417000       1.00800           0
     25491 TIP3     391      TIP3     H2       HT       0.417000       1.00800           0
     25492 TIP3     392      TIP3     OH2      OT      -0.834000       15.9994           0
     25493 TIP3     392      TIP3     H1       HT       0.417000       1.00800           0
     25494 TIP3     392      TIP3     H2       HT       0.417000       1.00800           0
     25495 TIP3     393      TIP3     OH2      OT      -0.834000       15.9994           0
     25496 TIP3     393      TIP3     H1       HT       0.417000       1.00800           0
     25497 TIP3     393      TIP3     H2       HT       0.417000       1.00800           0
     25498 TIP3     394      TIP3     OH2      OT      -0.834000       15.9994           0
     25499 TIP3     394      TIP3     H1       HT       0.417000       1.00800           0
     25500 TIP3     394      TIP3     H2       HT       0.417000       1.00800           0
     25501 TIP3     395      TIP3     OH2      OT      -0.834000       15.9994           0
     25502 TIP3     395      TIP3     H1       HT       0.417000       1.00800           0
     25503 TIP3     395      TIP3     H2       HT       0.417000       1.00800           0
     25504 TIP3     396      TIP3     OH2      OT      -0.834000       15.9994           0
     25505 TIP3     396      TIP3     H1       HT       0.417000       1.00800           0
     25506 TIP3     396      TIP3     H2       HT       0.417000       1.00800           0
     25507 TIP3     397      TIP3     OH2      OT      -0.834000       15.9994           0
     25508 TIP3     397      TIP3     H1       HT       0.417000       1.00800           0
     25509 TIP3     397      TIP3     H2       HT       0.417000       1.00800           0
     25510 TIP3     398      TIP3     OH2      OT      -0.834000       15.9994           0
     25511 TIP3     398      TIP3     H1       HT       0.417000       1.00800           0
     25512 TIP3     398      TIP3     H2       HT       0.417000       1.00800           0
     25513 TIP3     399      TIP3     OH2      OT      -0.834000       15.9994           0
     25514 TIP3     399      TIP3     H1       HT       0.417000       1.00800           0
     25515 TIP3     399      TIP3     H2       HT       0.417000       1.00800           0
     25516 TIP3     400      TIP3     OH2      OT      -0.834000       15.9994           0
     25517 TIP3     400      TIP3     H1       HT       0.417000       1.00800           0
     25518 TIP3     400      TIP3     H2       HT       0.417000       1.00800           0
     25519 TIP3     401      TIP3     OH2      OT      -0.834000       15.9994           0
     25520 TIP3     401      TIP3     H1       HT       0.417000       1.00800           0
     25521 TIP3     401      TIP3     H2       HT       0.417000       1.00800           0
     25522 TIP3     402      TIP3     OH2      OT      -0.834000       15.9994           0
     25523 TIP3     402      TIP3     H1       HT       0.417000       1.00800           0
     25524 TIP3     402      TIP3     H2       HT       0.417000       1.00800           0
     25525 TIP3     403      TIP3     OH2      OT      -0.834000       15.9994           0
     25526 TIP3     403      TIP3     H1       HT       0.417000       1.00800           0
     25527 TIP3     403      TIP3     H2       HT       0.417000       1.00800           0
     25528 TIP3     404      TIP3     OH2      OT      -0.834000       15.9994           0
     25529 TIP3     404      TIP3     H1       HT       0.417000       1.00800           0
     25530 TIP3     404      TIP3     H2       HT       0.417000       1.00800           0
     25531 TIP3     405      TIP3     OH2      OT      -0.834000       15.9994           0
     25532 TIP3     405      TIP3     H1       HT       0.417000       1.00800           0
     25533 TIP3     405      TIP3     H2       HT       0.417000       1.00800           0
     25534 TIP3     406      TIP3     OH2      OT      -0.834000       15.9994           0
     25535 TIP3     406      TIP3     H1       HT       0.417000       1.00800           0
     25536 TIP3     406      TIP3     H2       HT       0.417000       1.00800           0
     25537 TIP3     407      TIP3     OH2      OT      -0.834000       15.9994           0
     25538 TIP3     407      TIP3     H1       HT       0.417000       1.00800           0
     25539 TIP3     407      TIP3     H2       HT       0.417000       1.00800           0
     25540 TIP3     408      TIP3     OH2      OT      -0.834000       15.9994           0
     25541 TIP3     408      TIP3     H1       HT       0.417000       1.00800           0
     25542 TIP3     408      TIP3     H2       HT       0.417000       1.00800           0
     25543 TIP3     409      TIP3     OH2      OT      -0.834000       15.9994           0
     25544 TIP3     409      TIP3     H1       HT       0.417000       1.00800           0
     25545 TIP3     409      TIP3     H2       HT       0.417000       1.00800           0
     25546 TIP3     410      TIP3     OH2      OT      -0.834000       15.9994           0
     25547 TIP3     410      TIP3     H1       HT       0.417000       1.00800           0
     25548 TIP3     410      TIP3     H2       HT       0.417000       1.00800           0
     25549 TIP3     411      TIP3     OH2      OT      -0.834000       15.9994           0
     25550 TIP3     411      TIP3     H1       HT       0.417000       1.00800           0
     25551 TIP3     411      TIP3     H2       HT       0.417000       1.00800           0
     25552 TIP3     412      TIP3     OH2      OT      -0.834000       15.9994           0
     25553 TIP3     412      TIP3     H1       HT       0.417000       1.00800           0
     25554 TIP3     412      TIP3     H2       HT       0.417000       1.00800           0
     25555 TIP3     413      TIP3     OH2      OT      -0.834000       15.9994           0
     25556 TIP3     413      TIP3     H1       HT       0.417000       1.00800           0
     25557 TIP3     413      TIP3     H2       HT       0.417000       1.00800           0
     25558 TIP3     414      TIP3     OH2      OT      -0.834000       15.9994           0
     25559 TIP3     414      TIP3     H1       HT       0.417000       1.00800           0
     25560 TIP3     414      TIP3     H2       HT       0.417000       1.00800           0
     25561 TIP3     415      TIP3     OH2      OT      -0.834000       15.9994           0
     25562 TIP3     415      TIP3     H1       HT       0.417000       1.00800           0
     25563 TIP3     415      TIP3     H2       HT       0.417000       1.00800           0
     25564 TIP3     416      TIP3     OH2      OT      -0.834000       15.9994           0
     25565 TIP3     416      TIP3     H1       HT       0.417000       1.00800           0
     25566 TIP3     416      TIP3     H2       HT       0.417000       1.00800           0
     25567 TIP3     417      TIP3     OH2      OT      -0.834000       15.9994           0
     25568 TIP3     417      TIP3     H1       HT       0.417000       1.00800           0
     25569 TIP3     417      TIP3     H2       HT       0.417000       1.00800           0
     25570 TIP3     418      TIP3     OH2      OT      -0.834000       15.9994           0
     25571 TIP3     418      TIP3     H1       HT       0.417000       1.00800           0
     25572 TIP3     418      TIP3     H2       HT       0.417000       1.00800           0
     25573 TIP3     419      TIP3     OH2      OT      -0.834000       15.9994           0
     25574 TIP3     419      TIP3     H1       HT       0.417000       1.00800           0
     25575 TIP3     419      TIP3     H2       HT       0.417000       1.00800           0
     25576 TIP3     420      TIP3     OH2      OT      -0.834000       15.9994           0
     25577 TIP3     420      TIP3     H1       HT       0.417000       1.00800           0
     25578 TIP3     420      TIP3     H2       HT       0.417000       1.00800           0
     25579 TIP3     421      TIP3     OH2      OT      -0.834000       15.9994           0
     25580 TIP3     421      TIP3     H1       HT       0.417000       1.00800           0
     25581 TIP3     421      TIP3     H2       HT       0.417000       1.00800           0
     25582 TIP3     422      TIP3     OH2      OT      -0.834000       15.9994           0
     25583 TIP3     422      TIP3     H1       HT       0.417000       1.00800           0
     25584 TIP3     422      TIP3     H2       HT       0.417000       1.00800           0
     25585 TIP3     423      TIP3     OH2      OT      -0.834000       15.9994           0
     25586 TIP3     423      TIP3     H1       HT       0.417000       1.00800           0
     25587 TIP3     423      TIP3     H2       HT       0.417000       1.00800           0
     25588 TIP3     424      TIP3     OH2      OT      -0.834000       15.9994           0
     25589 TIP3     424      TIP3     H1       HT       0.417000       1.00800           0
     25590 TIP3     424      TIP3     H2       HT       0.417000       1.00800           0
     25591 TIP3     425      TIP3     OH2      OT      -0.834000       15.9994           0
     25592 TIP3     425      TIP3     H1       HT       0.417000       1.00800           0
     25593 TIP3     425      TIP3     H2       HT       0.417000       1.00800           0
     25594 TIP3     426      TIP3     OH2      OT      -0.834000       15.9994           0
     25595 TIP3     426      TIP3     H1       HT       0.417000       1.00800           0
     25596 TIP3     426      TIP3     H2       HT       0.417000       1.00800           0
     25597 TIP3     427      TIP3     OH2      OT      -0.834000       15.9994           0
     25598 TIP3     427      TIP3     H1       HT       0.417000       1.00800           0
     25599 TIP3     427      TIP3     H2       HT       0.417000       1.00800           0
     25600 TIP3     428      TIP3     OH2      OT      -0.834000       15.9994           0
     25601 TIP3     428      TIP3     H1       HT       0.417000       1.00800           0
     25602 TIP3     428      TIP3     H2       HT       0.417000       1.00800           0
     25603 TIP3     429      TIP3     OH2      OT      -0.834000       15.9994           0
     25604 TIP3     429      TIP3     H1       HT       0.417000       1.00800           0
     25605 TIP3     429      TIP3     H2       HT       0.417000       1.00800           0
     25606 TIP3     430      TIP3     OH2      OT      -0.834000       15.9994           0
     25607 TIP3     430      TIP3     H1       HT       0.417000       1.00800           0
     25608 TIP3     430      TIP3     H2       HT       0.417000       1.00800           0
     25609 TIP3     431      TIP3     OH2      OT      -0.834000       15.9994           0
     25610 TIP3     431      TIP3     H1       HT       0.417000       1.00800           0
     25611 TIP3     431      TIP3     H2       HT       0.417000       1.00800           0
     25612 TIP3     432      TIP3     OH2      OT      -0.834000       15.9994           0
     25613 TIP3     432      TIP3     H1       HT       0.417000       1.00800           0
     25614 TIP3     432      TIP3     H2       HT       0.417000       1.00800           0
     25615 TIP3     433      TIP3     OH2      OT      -0.834000       15.9994           0
     25616 TIP3     433      TIP3     H1       HT       0.417000       1.00800           0
     25617 TIP3     433      TIP3     H2       HT       0.417000       1.00800           0
     25618 TIP3     434      TIP3     OH2      OT      -0.834000       15.9994           0
     25619 TIP3     434      TIP3     H1       HT       0.417000       1.00800           0
     25620 TIP3     434      TIP3     H2       HT       0.417000       1.00800           0
     25621 TIP3     435      TIP3     OH2      OT      -0.834000       15.9994           0
     25622 TIP3     435      TIP3     H1       HT       0.417000       1.00800           0
     25623 TIP3     435      TIP3     H2       HT       0.417000       1.00800           0
     25624 TIP3     436      TIP3     OH2      OT      -0.834000       15.9994           0
     25625 TIP3     436      TIP3     H1       HT       0.417000       1.00800           0
     25626 TIP3     436      TIP3     H2       HT       0.417000       1.00800           0
     25627 TIP3     437      TIP3     OH2      OT      -0.834000       15.9994           0
     25628 TIP3     437      TIP3     H1       HT       0.417000       1.00800           0
     25629 TIP3     437      TIP3     H2       HT       0.417000       1.00800           0
     25630 TIP3     438      TIP3     OH2      OT      -0.834000       15.9994           0
     25631 TIP3     438      TIP3     H1       HT       0.417000       1.00800           0
     25632 TIP3     438      TIP3     H2       HT       0.417000       1.00800           0
     25633 TIP3     439      TIP3     OH2      OT      -0.834000       15.9994           0
     25634 TIP3     439      TIP3     H1       HT       0.417000       1.00800           0
     25635 TIP3     439      TIP3     H2       HT       0.417000       1.00800           0
     25636 TIP3     440      TIP3     OH2      OT      -0.834000       15.9994           0
     25637 TIP3     440      TIP3     H1       HT       0.417000       1.00800           0
     25638 TIP3     440      TIP3     H2       HT       0.417000       1.00800           0
     25639 TIP3     441      TIP3     OH2      OT      -0.834000       15.9994           0
     25640 TIP3     441      TIP3     H1       HT       0.417000       1.00800           0
     25641 TIP3     441      TIP3     H2       HT       0.417000       1.00800           0
     25642 TIP3     442      TIP3     OH2      OT      -0.834000       15.9994           0
     25643 TIP3     442      TIP3     H1       HT       0.417000       1.00800           0
     25644 TIP3     442      TIP3     H2       HT       0.417000       1.00800           0
     25645 TIP3     443      TIP3     OH2      OT      -0.834000       15.9994           0
     25646 TIP3     443      TIP3     H1       HT       0.417000       1.00800           0
     25647 TIP3     443      TIP3     H2       HT       0.417000       1.00800           0
     25648 TIP3     444      TIP3     OH2      OT      -0.834000       15.9994           0
     25649 TIP3     444      TIP3     H1       HT       0.417000       1.00800           0
     25650 TIP3     444      TIP3     H2       HT       0.417000       1.00800           0
     25651 TIP3     445      TIP3     OH2      OT      -0.834000       15.9994           0
     25652 TIP3     445      TIP3     H1       HT       0.417000       1.00800           0
     25653 TIP3     445      TIP3     H2       HT       0.417000       1.00800           0
     25654 TIP3     446      TIP3     OH2      OT      -0.834000       15.9994           0
     25655 TIP3     446      TIP3     H1       HT       0.417000       1.00800           0
     25656 TIP3     446      TIP3     H2       HT       0.417000       1.00800           0
     25657 TIP3     447      TIP3     OH2      OT      -0.834000       15.9994           0
     25658 TIP3     447      TIP3     H1       HT       0.417000       1.00800           0
     25659 TIP3     447      TIP3     H2       HT       0.417000       1.00800           0
     25660 TIP3     448      TIP3     OH2      OT      -0.834000       15.9994           0
     25661 TIP3     448      TIP3     H1       HT       0.417000       1.00800           0
     25662 TIP3     448      TIP3     H2       HT       0.417000       1.00800           0
     25663 TIP3     449      TIP3     OH2      OT      -0.834000       15.9994           0
     25664 TIP3     449      TIP3     H1       HT       0.417000       1.00800           0
     25665 TIP3     449      TIP3     H2       HT       0.417000       1.00800           0
     25666 TIP3     450      TIP3     OH2      OT      -0.834000       15.9994           0
     25667 TIP3     450      TIP3     H1       HT       0.417000       1.00800           0
     25668 TIP3     450      TIP3     H2       HT       0.417000       1.00800           0
     25669 TIP3     451      TIP3     OH2      OT      -0.834000       15.9994           0
     25670 TIP3     451      TIP3     H1       HT       0.417000       1.00800           0
     25671 TIP3     451      TIP3     H2       HT       0.417000       1.00800           0
     25672 TIP3     452      TIP3     OH2      OT      -0.834000       15.9994           0
     25673 TIP3     452      TIP3     H1       HT       0.417000       1.00800           0
     25674 TIP3     452      TIP3     H2       HT       0.417000       1.00800           0
     25675 TIP3     453      TIP3     OH2      OT      -0.834000       15.9994           0
     25676 TIP3     453      TIP3     H1       HT       0.417000       1.00800           0
     25677 TIP3     453      TIP3     H2       HT       0.417000       1.00800           0
     25678 TIP3     454      TIP3     OH2      OT      -0.834000       15.9994           0
     25679 TIP3     454      TIP3     H1       HT       0.417000       1.00800           0
     25680 TIP3     454      TIP3     H2       HT       0.417000       1.00800           0
     25681 TIP3     455      TIP3     OH2      OT      -0.834000       15.9994           0
     25682 TIP3     455      TIP3     H1       HT       0.417000       1.00800           0
     25683 TIP3     455      TIP3     H2       HT       0.417000       1.00800           0
     25684 TIP3     456      TIP3     OH2      OT      -0.834000       15.9994           0
     25685 TIP3     456      TIP3     H1       HT       0.417000       1.00800           0
     25686 TIP3     456      TIP3     H2       HT       0.417000       1.00800           0
     25687 TIP3     457      TIP3     OH2      OT      -0.834000       15.9994           0
     25688 TIP3     457      TIP3     H1       HT       0.417000       1.00800           0
     25689 TIP3     457      TIP3     H2       HT       0.417000       1.00800           0
     25690 TIP3     458      TIP3     OH2      OT      -0.834000       15.9994           0
     25691 TIP3     458      TIP3     H1       HT       0.417000       1.00800           0
     25692 TIP3     458      TIP3     H2       HT       0.417000       1.00800           0
     25693 TIP3     459      TIP3     OH2      OT      -0.834000       15.9994           0
     25694 TIP3     459      TIP3     H1       HT       0.417000       1.00800           0
     25695 TIP3     459      TIP3     H2       HT       0.417000       1.00800           0
     25696 TIP3     460      TIP3     OH2      OT      -0.834000       15.9994           0
     25697 TIP3     460      TIP3     H1       HT       0.417000       1.00800           0
     25698 TIP3     460      TIP3     H2       HT       0.417000       1.00800           0
     25699 TIP3     461      TIP3     OH2      OT      -0.834000       15.9994           0
     25700 TIP3     461      TIP3     H1       HT       0.417000       1.00800           0
     25701 TIP3     461      TIP3     H2       HT       0.417000       1.00800           0
     25702 TIP3     462      TIP3     OH2      OT      -0.834000       15.9994           0
     25703 TIP3     462      TIP3     H1       HT       0.417000       1.00800           0
     25704 TIP3     462      TIP3     H2       HT       0.417000       1.00800           0
     25705 TIP3     463      TIP3     OH2      OT      -0.834000       15.9994           0
     25706 TIP3     463      TIP3     H1       HT       0.417000       1.00800           0
     25707 TIP3     463      TIP3     H2       HT       0.417000       1.00800           0
     25708 TIP3     464      TIP3     OH2      OT      -0.834000       15.9994           0
     25709 TIP3     464      TIP3     H1       HT       0.417000       1.00800           0
     25710 TIP3     464      TIP3     H2       HT       0.417000       1.00800           0
     25711 TIP3     465      TIP3     OH2      OT      -0.834000       15.9994           0
     25712 TIP3     465      TIP3     H1       HT       0.417000       1.00800           0
     25713 TIP3     465      TIP3     H2       HT       0.417000       1.00800           0
     25714 TIP3     466      TIP3     OH2      OT      -0.834000       15.9994           0
     25715 TIP3     466      TIP3     H1       HT       0.417000       1.00800           0
     25716 TIP3     466      TIP3     H2       HT       0.417000       1.00800           0
     25717 TIP3     467      TIP3     OH2      OT      -0.834000       15.9994           0
     25718 TIP3     467      TIP3     H1       HT       0.417000       1.00800           0
     25719 TIP3     467      TIP3     H2       HT       0.417000       1.00800           0
     25720 TIP3     468      TIP3     OH2      OT      -0.834000       15.9994           0
     25721 TIP3     468      TIP3     H1       HT       0.417000       1.00800           0
     25722 TIP3     468      TIP3     H2       HT       0.417000       1.00800           0
     25723 TIP3     469      TIP3     OH2      OT      -0.834000       15.9994           0
     25724 TIP3     469      TIP3     H1       HT       0.417000       1.00800           0
     25725 TIP3     469      TIP3     H2       HT       0.417000       1.00800           0
     25726 TIP3     470      TIP3     OH2      OT      -0.834000       15.9994           0
     25727 TIP3     470      TIP3     H1       HT       0.417000       1.00800           0
     25728 TIP3     470      TIP3     H2       HT       0.417000       1.00800           0
     25729 TIP3     471      TIP3     OH2      OT      -0.834000       15.9994           0
     25730 TIP3     471      TIP3     H1       HT       0.417000       1.00800           0
     25731 TIP3     471      TIP3     H2       HT       0.417000       1.00800           0
     25732 TIP3     472      TIP3     OH2      OT      -0.834000       15.9994           0
     25733 TIP3     472      TIP3     H1       HT       0.417000       1.00800           0
     25734 TIP3     472      TIP3     H2       HT       0.417000       1.00800           0
     25735 TIP3     473      TIP3     OH2      OT      -0.834000       15.9994           0
     25736 TIP3     473      TIP3     H1       HT       0.417000       1.00800           0
     25737 TIP3     473      TIP3     H2       HT       0.417000       1.00800           0
     25738 TIP3     474      TIP3     OH2      OT      -0.834000       15.9994           0
     25739 TIP3     474      TIP3     H1       HT       0.417000       1.00800           0
     25740 TIP3     474      TIP3     H2       HT       0.417000       1.00800           0
     25741 TIP3     475      TIP3     OH2      OT      -0.834000       15.9994           0
     25742 TIP3     475      TIP3     H1       HT       0.417000       1.00800           0
     25743 TIP3     475      TIP3     H2       HT       0.417000       1.00800           0
     25744 TIP3     476      TIP3     OH2      OT      -0.834000       15.9994           0
     25745 TIP3     476      TIP3     H1       HT       0.417000       1.00800           0
     25746 TIP3     476      TIP3     H2       HT       0.417000       1.00800           0
     25747 TIP3     477      TIP3     OH2      OT      -0.834000       15.9994           0
     25748 TIP3     477      TIP3     H1       HT       0.417000       1.00800           0
     25749 TIP3     477      TIP3     H2       HT       0.417000       1.00800           0
     25750 TIP3     478      TIP3     OH2      OT      -0.834000       15.9994           0
     25751 TIP3     478      TIP3     H1       HT       0.417000       1.00800           0
     25752 TIP3     478      TIP3     H2       HT       0.417000       1.00800           0
     25753 TIP3     479      TIP3     OH2      OT      -0.834000       15.9994           0
     25754 TIP3     479      TIP3     H1       HT       0.417000       1.00800           0
     25755 TIP3     479      TIP3     H2       HT       0.417000       1.00800           0
     25756 TIP3     480      TIP3     OH2      OT      -0.834000       15.9994           0
     25757 TIP3     480      TIP3     H1       HT       0.417000       1.00800           0
     25758 TIP3     480      TIP3     H2       HT       0.417000       1.00800           0
     25759 TIP3     481      TIP3     OH2      OT      -0.834000       15.9994           0
     25760 TIP3     481      TIP3     H1       HT       0.417000       1.00800           0
     25761 TIP3     481      TIP3     H2       HT       0.417000       1.00800           0
     25762 TIP3     482      TIP3     OH2      OT      -0.834000       15.9994           0
     25763 TIP3     482      TIP3     H1       HT       0.417000       1.00800           0
     25764 TIP3     482      TIP3     H2       HT       0.417000       1.00800           0
     25765 TIP3     483      TIP3     OH2      OT      -0.834000       15.9994           0
     25766 TIP3     483      TIP3     H1       HT       0.417000       1.00800           0
     25767 TIP3     483      TIP3     H2       HT       0.417000       1.00800           0
     25768 TIP3     484      TIP3     OH2      OT      -0.834000       15.9994           0
     25769 TIP3     484      TIP3     H1       HT       0.417000       1.00800           0
     25770 TIP3     484      TIP3     H2       HT       0.417000       1.00800           0
     25771 TIP3     485      TIP3     OH2      OT      -0.834000       15.9994           0
     25772 TIP3     485      TIP3     H1       HT       0.417000       1.00800           0
     25773 TIP3     485      TIP3     H2       HT       0.417000       1.00800           0
     25774 TIP3     486      TIP3     OH2      OT      -0.834000       15.9994           0
     25775 TIP3     486      TIP3     H1       HT       0.417000       1.00800           0
     25776 TIP3     486      TIP3     H2       HT       0.417000       1.00800           0
     25777 TIP3     487      TIP3     OH2      OT      -0.834000       15.9994           0
     25778 TIP3     487      TIP3     H1       HT       0.417000       1.00800           0
     25779 TIP3     487      TIP3     H2       HT       0.417000       1.00800           0
     25780 TIP3     488      TIP3     OH2      OT      -0.834000       15.9994           0
     25781 TIP3     488      TIP3     H1       HT       0.417000       1.00800           0
     25782 TIP3     488      TIP3     H2       HT       0.417000       1.00800           0
     25783 TIP3     489      TIP3     OH2      OT      -0.834000       15.9994           0
     25784 TIP3     489      TIP3     H1       HT       0.417000       1.00800           0
     25785 TIP3     489      TIP3     H2       HT       0.417000       1.00800           0
     25786 TIP3     490      TIP3     OH2      OT      -0.834000       15.9994           0
     25787 TIP3     490      TIP3     H1       HT       0.417000       1.00800           0
     25788 TIP3     490      TIP3     H2       HT       0.417000       1.00800           0
     25789 TIP3     491      TIP3     OH2      OT      -0.834000       15.9994           0
     25790 TIP3     491      TIP3     H1       HT       0.417000       1.00800           0
     25791 TIP3     491      TIP3     H2       HT       0.417000       1.00800           0
     25792 TIP3     492      TIP3     OH2      OT      -0.834000       15.9994           0
     25793 TIP3     492      TIP3     H1       HT       0.417000       1.00800           0
     25794 TIP3     492      TIP3     H2       HT       0.417000       1.00800           0
     25795 TIP3     493      TIP3     OH2      OT      -0.834000       15.9994           0
     25796 TIP3     493      TIP3     H1       HT       0.417000       1.00800           0
     25797 TIP3     493      TIP3     H2       HT       0.417000       1.00800           0
     25798 TIP3     494      TIP3     OH2      OT      -0.834000       15.9994           0
     25799 TIP3     494      TIP3     H1       HT       0.417000       1.00800           0
     25800 TIP3     494      TIP3     H2       HT       0.417000       1.00800           0
     25801 TIP3     495      TIP3     OH2      OT      -0.834000       15.9994           0
     25802 TIP3     495      TIP3     H1       HT       0.417000       1.00800           0
     25803 TIP3     495      TIP3     H2       HT       0.417000       1.00800           0
     25804 TIP3     496      TIP3     OH2      OT      -0.834000       15.9994           0
     25805 TIP3     496      TIP3     H1       HT       0.417000       1.00800           0
     25806 TIP3     496      TIP3     H2       HT       0.417000       1.00800           0
     25807 TIP3     497      TIP3     OH2      OT      -0.834000       15.9994           0
     25808 TIP3     497      TIP3     H1       HT       0.417000       1.00800           0
     25809 TIP3     497      TIP3     H2       HT       0.417000       1.00800           0
     25810 TIP3     498      TIP3     OH2      OT      -0.834000       15.9994           0
     25811 TIP3     498      TIP3     H1       HT       0.417000       1.00800           0
     25812 TIP3     498      TIP3     H2       HT       0.417000       1.00800           0
     25813 TIP3     499      TIP3     OH2      OT      -0.834000       15.9994           0
     25814 TIP3     499      TIP3     H1       HT       0.417000       1.00800           0
     25815 TIP3     499      TIP3     H2       HT       0.417000       1.00800           0
     25816 TIP3     500      TIP3     OH2      OT      -0.834000       15.9994           0
     25817 TIP3     500      TIP3     H1       HT       0.417000       1.00800           0
     25818 TIP3     500      TIP3     H2       HT       0.417000       1.00800           0
     25819 TIP3     501      TIP3     OH2      OT      -0.834000       15.9994           0
     25820 TIP3     501      TIP3     H1       HT       0.417000       1.00800           0
     25821 TIP3     501      TIP3     H2       HT       0.417000       1.00800           0
     25822 TIP3     502      TIP3     OH2      OT      -0.834000       15.9994           0
     25823 TIP3     502      TIP3     H1       HT       0.417000       1.00800           0
     25824 TIP3     502      TIP3     H2       HT       0.417000       1.00800           0
     25825 TIP3     503      TIP3     OH2      OT      -0.834000       15.9994           0
     25826 TIP3     503      TIP3     H1       HT       0.417000       1.00800           0
     25827 TIP3     503      TIP3     H2       HT       0.417000       1.00800           0
     25828 TIP3     504      TIP3     OH2      OT      -0.834000       15.9994           0
     25829 TIP3     504      TIP3     H1       HT       0.417000       1.00800           0
     25830 TIP3     504      TIP3     H2       HT       0.417000       1.00800           0
     25831 TIP3     505      TIP3     OH2      OT      -0.834000       15.9994           0
     25832 TIP3     505      TIP3     H1       HT       0.417000       1.00800           0
     25833 TIP3     505      TIP3     H2       HT       0.417000       1.00800           0
     25834 TIP3     506      TIP3     OH2      OT      -0.834000       15.9994           0
     25835 TIP3     506      TIP3     H1       HT       0.417000       1.00800           0
     25836 TIP3     506      TIP3     H2       HT       0.417000       1.00800           0
     25837 TIP3     507      TIP3     OH2      OT      -0.834000       15.9994           0
     25838 TIP3     507      TIP3     H1       HT       0.417000       1.00800           0
     25839 TIP3     507      TIP3     H2       HT       0.417000       1.00800           0
     25840 TIP3     508      TIP3     OH2      OT      -0.834000       15.9994           0
     25841 TIP3     508      TIP3     H1       HT       0.417000       1.00800           0
     25842 TIP3     508      TIP3     H2       HT       0.417000       1.00800           0
     25843 TIP3     509      TIP3     OH2      OT      -0.834000       15.9994           0
     25844 TIP3     509      TIP3     H1       HT       0.417000       1.00800           0
     25845 TIP3     509      TIP3     H2       HT       0.417000       1.00800           0
     25846 TIP3     510      TIP3     OH2      OT      -0.834000       15.9994           0
     25847 TIP3     510      TIP3     H1       HT       0.417000       1.00800           0
     25848 TIP3     510      TIP3     H2       HT       0.417000       1.00800           0
     25849 TIP3     511      TIP3     OH2      OT      -0.834000       15.9994           0
     25850 TIP3     511      TIP3     H1       HT       0.417000       1.00800           0
     25851 TIP3     511      TIP3     H2       HT       0.417000       1.00800           0
     25852 TIP3     512      TIP3     OH2      OT      -0.834000       15.9994           0
     25853 TIP3     512      TIP3     H1       HT       0.417000       1.00800           0
     25854 TIP3     512      TIP3     H2       HT       0.417000       1.00800           0
     25855 TIP3     513      TIP3     OH2      OT      -0.834000       15.9994           0
     25856 TIP3     513      TIP3     H1       HT       0.417000       1.00800           0
     25857 TIP3     513      TIP3     H2       HT       0.417000       1.00800           0
     25858 TIP3     514      TIP3     OH2      OT      -0.834000       15.9994           0
     25859 TIP3     514      TIP3     H1       HT       0.417000       1.00800           0
     25860 TIP3     514      TIP3     H2       HT       0.417000       1.00800           0
     25861 TIP3     515      TIP3     OH2      OT      -0.834000       15.9994           0
     25862 TIP3     515      TIP3     H1       HT       0.417000       1.00800           0
     25863 TIP3     515      TIP3     H2       HT       0.417000       1.00800           0
     25864 TIP3     516      TIP3     OH2      OT      -0.834000       15.9994           0
     25865 TIP3     516      TIP3     H1       HT       0.417000       1.00800           0
     25866 TIP3     516      TIP3     H2       HT       0.417000       1.00800           0
     25867 TIP3     517      TIP3     OH2      OT      -0.834000       15.9994           0
     25868 TIP3     517      TIP3     H1       HT       0.417000       1.00800           0
     25869 TIP3     517      TIP3     H2       HT       0.417000       1.00800           0
     25870 TIP3     518      TIP3     OH2      OT      -0.834000       15.9994           0
     25871 TIP3     518      TIP3     H1       HT       0.417000       1.00800           0
     25872 TIP3     518      TIP3     H2       HT       0.417000       1.00800           0
     25873 TIP3     519      TIP3     OH2      OT      -0.834000       15.9994           0
     25874 TIP3     519      TIP3     H1       HT       0.417000       1.00800           0
     25875 TIP3     519      TIP3     H2       HT       0.417000       1.00800           0
     25876 TIP3     520      TIP3     OH2      OT      -0.834000       15.9994           0
     25877 TIP3     520      TIP3     H1       HT       0.417000       1.00800           0
     25878 TIP3     520      TIP3     H2       HT       0.417000       1.00800           0
     25879 TIP3     521      TIP3     OH2      OT      -0.834000       15.9994           0
     25880 TIP3     521      TIP3     H1       HT       0.417000       1.00800           0
     25881 TIP3     521      TIP3     H2       HT       0.417000       1.00800           0
     25882 TIP3     522      TIP3     OH2      OT      -0.834000       15.9994           0
     25883 TIP3     522      TIP3     H1       HT       0.417000       1.00800           0
     25884 TIP3     522      TIP3     H2       HT       0.417000       1.00800           0
     25885 TIP3     523      TIP3     OH2      OT      -0.834000       15.9994           0
     25886 TIP3     523      TIP3     H1       HT       0.417000       1.00800           0
     25887 TIP3     523      TIP3     H2       HT       0.417000       1.00800           0
     25888 TIP3     524      TIP3     OH2      OT      -0.834000       15.9994           0
     25889 TIP3     524      TIP3     H1       HT       0.417000       1.00800           0
     25890 TIP3     524      TIP3     H2       HT       0.417000       1.00800           0
     25891 TIP3     525      TIP3     OH2      OT      -0.834000       15.9994           0
     25892 TIP3     525      TIP3     H1       HT       0.417000       1.00800           0
     25893 TIP3     525      TIP3     H2       HT       0.417000       1.00800           0
     25894 TIP3     526      TIP3     OH2      OT      -0.834000       15.9994           0
     25895 TIP3     526      TIP3     H1       HT       0.417000       1.00800           0
     25896 TIP3     526      TIP3     H2       HT       0.417000       1.00800           0
     25897 TIP3     527      TIP3     OH2      OT      -0.834000       15.9994           0
     25898 TIP3     527      TIP3     H1       HT       0.417000       1.00800           0
     25899 TIP3     527      TIP3     H2       HT       0.417000       1.00800           0
     25900 TIP3     528      TIP3     OH2      OT      -0.834000       15.9994           0
     25901 TIP3     528      TIP3     H1       HT       0.417000       1.00800           0
     25902 TIP3     528      TIP3     H2       HT       0.417000       1.00800           0
     25903 TIP3     529      TIP3     OH2      OT      -0.834000       15.9994           0
     25904 TIP3     529      TIP3     H1       HT       0.417000       1.00800           0
     25905 TIP3     529      TIP3     H2       HT       0.417000       1.00800           0
     25906 TIP3     530      TIP3     OH2      OT      -0.834000       15.9994           0
     25907 TIP3     530      TIP3     H1       HT       0.417000       1.00800           0
     25908 TIP3     530      TIP3     H2       HT       0.417000       1.00800           0
     25909 TIP3     531      TIP3     OH2      OT      -0.834000       15.9994           0
     25910 TIP3     531      TIP3     H1       HT       0.417000       1.00800           0
     25911 TIP3     531      TIP3     H2       HT       0.417000       1.00800           0
     25912 TIP3     532      TIP3     OH2      OT      -0.834000       15.9994           0
     25913 TIP3     532      TIP3     H1       HT       0.417000       1.00800           0
     25914 TIP3     532      TIP3     H2       HT       0.417000       1.00800           0
     25915 TIP3     533      TIP3     OH2      OT      -0.834000       15.9994           0
     25916 TIP3     533      TIP3     H1       HT       0.417000       1.00800           0
     25917 TIP3     533      TIP3     H2       HT       0.417000       1.00800           0
     25918 TIP3     534      TIP3     OH2      OT      -0.834000       15.9994           0
     25919 TIP3     534      TIP3     H1       HT       0.417000       1.00800           0
     25920 TIP3     534      TIP3     H2       HT       0.417000       1.00800           0
     25921 TIP3     535      TIP3     OH2      OT      -0.834000       15.9994           0
     25922 TIP3     535      TIP3     H1       HT       0.417000       1.00800           0
     25923 TIP3     535      TIP3     H2       HT       0.417000       1.00800           0
     25924 TIP3     536      TIP3     OH2      OT      -0.834000       15.9994           0
     25925 TIP3     536      TIP3     H1       HT       0.417000       1.00800           0
     25926 TIP3     536      TIP3     H2       HT       0.417000       1.00800           0
     25927 TIP3     537      TIP3     OH2      OT      -0.834000       15.9994           0
     25928 TIP3     537      TIP3     H1       HT       0.417000       1.00800           0
     25929 TIP3     537      TIP3     H2       HT       0.417000       1.00800           0
     25930 TIP3     538      TIP3     OH2      OT      -0.834000       15.9994           0
     25931 TIP3     538      TIP3     H1       HT       0.417000       1.00800           0
     25932 TIP3     538      TIP3     H2       HT       0.417000       1.00800           0
     25933 TIP3     539      TIP3     OH2      OT      -0.834000       15.9994           0
     25934 TIP3     539      TIP3     H1       HT       0.417000       1.00800           0
     25935 TIP3     539      TIP3     H2       HT       0.417000       1.00800           0
     25936 TIP3     540      TIP3     OH2      OT      -0.834000       15.9994           0
     25937 TIP3     540      TIP3     H1       HT       0.417000       1.00800           0
     25938 TIP3     540      TIP3     H2       HT       0.417000       1.00800           0
     25939 TIP3     541      TIP3     OH2      OT      -0.834000       15.9994           0
     25940 TIP3     541      TIP3     H1       HT       0.417000       1.00800           0
     25941 TIP3     541      TIP3     H2       HT       0.417000       1.00800           0
     25942 TIP3     542      TIP3     OH2      OT      -0.834000       15.9994           0
     25943 TIP3     542      TIP3     H1       HT       0.417000       1.00800           0
     25944 TIP3     542      TIP3     H2       HT       0.417000       1.00800           0
     25945 TIP3     543      TIP3     OH2      OT      -0.834000       15.9994           0
     25946 TIP3     543      TIP3     H1       HT       0.417000       1.00800           0
     25947 TIP3     543      TIP3     H2       HT       0.417000       1.00800           0
     25948 TIP3     544      TIP3     OH2      OT      -0.834000       15.9994           0
     25949 TIP3     544      TIP3     H1       HT       0.417000       1.00800           0
     25950 TIP3     544      TIP3     H2       HT       0.417000       1.00800           0
     25951 TIP3     545      TIP3     OH2      OT      -0.834000       15.9994           0
     25952 TIP3     545      TIP3     H1       HT       0.417000       1.00800           0
     25953 TIP3     545      TIP3     H2       HT       0.417000       1.00800           0
     25954 TIP3     546      TIP3     OH2      OT      -0.834000       15.9994           0
     25955 TIP3     546      TIP3     H1       HT       0.417000       1.00800           0
     25956 TIP3     546      TIP3     H2       HT       0.417000       1.00800           0
     25957 TIP3     547      TIP3     OH2      OT      -0.834000       15.9994           0
     25958 TIP3     547      TIP3     H1       HT       0.417000       1.00800           0
     25959 TIP3     547      TIP3     H2       HT       0.417000       1.00800           0
     25960 TIP3     548      TIP3     OH2      OT      -0.834000       15.9994           0
     25961 TIP3     548      TIP3     H1       HT       0.417000       1.00800           0
     25962 TIP3     548      TIP3     H2       HT       0.417000       1.00800           0
     25963 TIP3     549      TIP3     OH2      OT      -0.834000       15.9994           0
     25964 TIP3     549      TIP3     H1       HT       0.417000       1.00800           0
     25965 TIP3     549      TIP3     H2       HT       0.417000       1.00800           0
     25966 TIP3     550      TIP3     OH2      OT      -0.834000       15.9994           0
     25967 TIP3     550      TIP3     H1       HT       0.417000       1.00800           0
     25968 TIP3     550      TIP3     H2       HT       0.417000       1.00800           0
     25969 TIP3     551      TIP3     OH2      OT      -0.834000       15.9994           0
     25970 TIP3     551      TIP3     H1       HT       0.417000       1.00800           0
     25971 TIP3     551      TIP3     H2       HT       0.417000       1.00800           0
     25972 TIP3     552      TIP3     OH2      OT      -0.834000       15.9994           0
     25973 TIP3     552      TIP3     H1       HT       0.417000       1.00800           0
     25974 TIP3     552      TIP3     H2       HT       0.417000       1.00800           0
     25975 TIP3     553      TIP3     OH2      OT      -0.834000       15.9994           0
     25976 TIP3     553      TIP3     H1       HT       0.417000       1.00800           0
     25977 TIP3     553      TIP3     H2       HT       0.417000       1.00800           0
     25978 TIP3     554      TIP3     OH2      OT      -0.834000       15.9994           0
     25979 TIP3     554      TIP3     H1       HT       0.417000       1.00800           0
     25980 TIP3     554      TIP3     H2       HT       0.417000       1.00800           0
     25981 TIP3     555      TIP3     OH2      OT      -0.834000       15.9994           0
     25982 TIP3     555      TIP3     H1       HT       0.417000       1.00800           0
     25983 TIP3     555      TIP3     H2       HT       0.417000       1.00800           0
     25984 TIP3     556      TIP3     OH2      OT      -0.834000       15.9994           0
     25985 TIP3     556      TIP3     H1       HT       0.417000       1.00800           0
     25986 TIP3     556      TIP3     H2       HT       0.417000       1.00800           0
     25987 TIP3     557      TIP3     OH2      OT      -0.834000       15.9994           0
     25988 TIP3     557      TIP3     H1       HT       0.417000       1.00800           0
     25989 TIP3     557      TIP3     H2       HT       0.417000       1.00800           0
     25990 TIP3     558      TIP3     OH2      OT      -0.834000       15.9994           0
     25991 TIP3     558      TIP3     H1       HT       0.417000       1.00800           0
     25992 TIP3     558      TIP3     H2       HT       0.417000       1.00800           0
     25993 TIP3     559      TIP3     OH2      OT      -0.834000       15.9994           0
     25994 TIP3     559      TIP3     H1       HT       0.417000       1.00800           0
     25995 TIP3     559      TIP3     H2       HT       0.417000       1.00800           0
     25996 TIP3     560      TIP3     OH2      OT      -0.834000       15.9994           0
     25997 TIP3     560      TIP3     H1       HT       0.417000       1.00800           0
     25998 TIP3     560      TIP3     H2       HT       0.417000       1.00800           0
     25999 TIP3     561      TIP3     OH2      OT      -0.834000       15.9994           0
     26000 TIP3     561      TIP3     H1       HT       0.417000       1.00800           0
     26001 TIP3     561      TIP3     H2       HT       0.417000       1.00800           0
     26002 TIP3     562      TIP3     OH2      OT      -0.834000       15.9994           0
     26003 TIP3     562      TIP3     H1       HT       0.417000       1.00800           0
     26004 TIP3     562      TIP3     H2       HT       0.417000       1.00800           0
     26005 TIP3     563      TIP3     OH2      OT      -0.834000       15.9994           0
     26006 TIP3     563      TIP3     H1       HT       0.417000       1.00800           0
     26007 TIP3     563      TIP3     H2       HT       0.417000       1.00800           0
     26008 TIP3     564      TIP3     OH2      OT      -0.834000       15.9994           0
     26009 TIP3     564      TIP3     H1       HT       0.417000       1.00800           0
     26010 TIP3     564      TIP3     H2       HT       0.417000       1.00800           0
     26011 TIP3     565      TIP3     OH2      OT      -0.834000       15.9994           0
     26012 TIP3     565      TIP3     H1       HT       0.417000       1.00800           0
     26013 TIP3     565      TIP3     H2       HT       0.417000       1.00800           0
     26014 TIP3     566      TIP3     OH2      OT      -0.834000       15.9994           0
     26015 TIP3     566      TIP3     H1       HT       0.417000       1.00800           0
     26016 TIP3     566      TIP3     H2       HT       0.417000       1.00800           0
     26017 TIP3     567      TIP3     OH2      OT      -0.834000       15.9994           0
     26018 TIP3     567      TIP3     H1       HT       0.417000       1.00800           0
     26019 TIP3     567      TIP3     H2       HT       0.417000       1.00800           0
     26020 TIP3     568      TIP3     OH2      OT      -0.834000       15.9994           0
     26021 TIP3     568      TIP3     H1       HT       0.417000       1.00800           0
     26022 TIP3     568      TIP3     H2       HT       0.417000       1.00800           0
     26023 TIP3     569      TIP3     OH2      OT      -0.834000       15.9994           0
     26024 TIP3     569      TIP3     H1       HT       0.417000       1.00800           0
     26025 TIP3     569      TIP3     H2       HT       0.417000       1.00800           0
     26026 TIP3     570      TIP3     OH2      OT      -0.834000       15.9994           0
     26027 TIP3     570      TIP3     H1       HT       0.417000       1.00800           0
     26028 TIP3     570      TIP3     H2       HT       0.417000       1.00800           0
     26029 TIP3     571      TIP3     OH2      OT      -0.834000       15.9994           0
     26030 TIP3     571      TIP3     H1       HT       0.417000       1.00800           0
     26031 TIP3     571      TIP3     H2       HT       0.417000       1.00800           0
     26032 TIP3     572      TIP3     OH2      OT      -0.834000       15.9994           0
     26033 TIP3     572      TIP3     H1       HT       0.417000       1.00800           0
     26034 TIP3     572      TIP3     H2       HT       0.417000       1.00800           0
     26035 TIP3     573      TIP3     OH2      OT      -0.834000       15.9994           0
     26036 TIP3     573      TIP3     H1       HT       0.417000       1.00800           0
     26037 TIP3     573      TIP3     H2       HT       0.417000       1.00800           0
     26038 TIP3     574      TIP3     OH2      OT      -0.834000       15.9994           0
     26039 TIP3     574      TIP3     H1       HT       0.417000       1.00800           0
     26040 TIP3     574      TIP3     H2       HT       0.417000       1.00800           0
     26041 TIP3     575      TIP3     OH2      OT      -0.834000       15.9994           0
     26042 TIP3     575      TIP3     H1       HT       0.417000       1.00800           0
     26043 TIP3     575      TIP3     H2       HT       0.417000       1.00800           0
     26044 TIP3     576      TIP3     OH2      OT      -0.834000       15.9994           0
     26045 TIP3     576      TIP3     H1       HT       0.417000       1.00800           0
     26046 TIP3     576      TIP3     H2       HT       0.417000       1.00800           0
     26047 TIP3     577      TIP3     OH2      OT      -0.834000       15.9994           0
     26048 TIP3     577      TIP3     H1       HT       0.417000       1.00800           0
     26049 TIP3     577      TIP3     H2       HT       0.417000       1.00800           0
     26050 TIP3     578      TIP3     OH2      OT      -0.834000       15.9994           0
     26051 TIP3     578      TIP3     H1       HT       0.417000       1.00800           0
     26052 TIP3     578      TIP3     H2       HT       0.417000       1.00800           0
     26053 TIP3     579      TIP3     OH2      OT      -0.834000       15.9994           0
     26054 TIP3     579      TIP3     H1       HT       0.417000       1.00800           0
     26055 TIP3     579      TIP3     H2       HT       0.417000       1.00800           0
     26056 TIP3     580      TIP3     OH2      OT      -0.834000       15.9994           0
     26057 TIP3     580      TIP3     H1       HT       0.417000       1.00800           0
     26058 TIP3     580      TIP3     H2       HT       0.417000       1.00800           0
     26059 TIP3     581      TIP3     OH2      OT      -0.834000       15.9994           0
     26060 TIP3     581      TIP3     H1       HT       0.417000       1.00800           0
     26061 TIP3     581      TIP3     H2       HT       0.417000       1.00800           0
     26062 TIP3     582      TIP3     OH2      OT      -0.834000       15.9994           0
     26063 TIP3     582      TIP3     H1       HT       0.417000       1.00800           0
     26064 TIP3     582      TIP3     H2       HT       0.417000       1.00800           0
     26065 TIP3     583      TIP3     OH2      OT      -0.834000       15.9994           0
     26066 TIP3     583      TIP3     H1       HT       0.417000       1.00800           0
     26067 TIP3     583      TIP3     H2       HT       0.417000       1.00800           0
     26068 TIP3     584      TIP3     OH2      OT      -0.834000       15.9994           0
     26069 TIP3     584      TIP3     H1       HT       0.417000       1.00800           0
     26070 TIP3     584      TIP3     H2       HT       0.417000       1.00800           0
     26071 TIP3     585      TIP3     OH2      OT      -0.834000       15.9994           0
     26072 TIP3     585      TIP3     H1       HT       0.417000       1.00800           0
     26073 TIP3     585      TIP3     H2       HT       0.417000       1.00800           0
     26074 TIP3     586      TIP3     OH2      OT      -0.834000       15.9994           0
     26075 TIP3     586      TIP3     H1       HT       0.417000       1.00800           0
     26076 TIP3     586      TIP3     H2       HT       0.417000       1.00800           0
     26077 TIP3     587      TIP3     OH2      OT      -0.834000       15.9994           0
     26078 TIP3     587      TIP3     H1       HT       0.417000       1.00800           0
     26079 TIP3     587      TIP3     H2       HT       0.417000       1.00800           0
     26080 TIP3     588      TIP3     OH2      OT      -0.834000       15.9994           0
     26081 TIP3     588      TIP3     H1       HT       0.417000       1.00800           0
     26082 TIP3     588      TIP3     H2       HT       0.417000       1.00800           0
     26083 TIP3     589      TIP3     OH2      OT      -0.834000       15.9994           0
     26084 TIP3     589      TIP3     H1       HT       0.417000       1.00800           0
     26085 TIP3     589      TIP3     H2       HT       0.417000       1.00800           0
     26086 TIP3     590      TIP3     OH2      OT      -0.834000       15.9994           0
     26087 TIP3     590      TIP3     H1       HT       0.417000       1.00800           0
     26088 TIP3     590      TIP3     H2       HT       0.417000       1.00800           0
     26089 TIP3     591      TIP3     OH2      OT      -0.834000       15.9994           0
     26090 TIP3     591      TIP3     H1       HT       0.417000       1.00800           0
     26091 TIP3     591      TIP3     H2       HT       0.417000       1.00800           0
     26092 TIP3     592      TIP3     OH2      OT      -0.834000       15.9994           0
     26093 TIP3     592      TIP3     H1       HT       0.417000       1.00800           0
     26094 TIP3     592      TIP3     H2       HT       0.417000       1.00800           0
     26095 TIP3     593      TIP3     OH2      OT      -0.834000       15.9994           0
     26096 TIP3     593      TIP3     H1       HT       0.417000       1.00800           0
     26097 TIP3     593      TIP3     H2       HT       0.417000       1.00800           0
     26098 TIP3     594      TIP3     OH2      OT      -0.834000       15.9994           0
     26099 TIP3     594      TIP3     H1       HT       0.417000       1.00800           0
     26100 TIP3     594      TIP3     H2       HT       0.417000       1.00800           0
     26101 TIP3     595      TIP3     OH2      OT      -0.834000       15.9994           0
     26102 TIP3     595      TIP3     H1       HT       0.417000       1.00800           0
     26103 TIP3     595      TIP3     H2       HT       0.417000       1.00800           0
     26104 TIP3     596      TIP3     OH2      OT      -0.834000       15.9994           0
     26105 TIP3     596      TIP3     H1       HT       0.417000       1.00800           0
     26106 TIP3     596      TIP3     H2       HT       0.417000       1.00800           0
     26107 TIP3     597      TIP3     OH2      OT      -0.834000       15.9994           0
     26108 TIP3     597      TIP3     H1       HT       0.417000       1.00800           0
     26109 TIP3     597      TIP3     H2       HT       0.417000       1.00800           0
     26110 TIP3     598      TIP3     OH2      OT      -0.834000       15.9994           0
     26111 TIP3     598      TIP3     H1       HT       0.417000       1.00800           0
     26112 TIP3     598      TIP3     H2       HT       0.417000       1.00800           0
     26113 TIP3     599      TIP3     OH2      OT      -0.834000       15.9994           0
     26114 TIP3     599      TIP3     H1       HT       0.417000       1.00800           0
     26115 TIP3     599      TIP3     H2       HT       0.417000       1.00800           0
     26116 TIP3     600      TIP3     OH2      OT      -0.834000       15.9994           0
     26117 TIP3     600      TIP3     H1       HT       0.417000       1.00800           0
     26118 TIP3     600      TIP3     H2       HT       0.417000       1.00800           0
     26119 TIP3     601      TIP3     OH2      OT      -0.834000       15.9994           0
     26120 TIP3     601      TIP3     H1       HT       0.417000       1.00800           0
     26121 TIP3     601      TIP3     H2       HT       0.417000       1.00800           0
     26122 TIP3     602      TIP3     OH2      OT      -0.834000       15.9994           0
     26123 TIP3     602      TIP3     H1       HT       0.417000       1.00800           0
     26124 TIP3     602      TIP3     H2       HT       0.417000       1.00800           0
     26125 TIP3     603      TIP3     OH2      OT      -0.834000       15.9994           0
     26126 TIP3     603      TIP3     H1       HT       0.417000       1.00800           0
     26127 TIP3     603      TIP3     H2       HT       0.417000       1.00800           0
     26128 TIP3     604      TIP3     OH2      OT      -0.834000       15.9994           0
     26129 TIP3     604      TIP3     H1       HT       0.417000       1.00800           0
     26130 TIP3     604      TIP3     H2       HT       0.417000       1.00800           0
     26131 TIP3     605      TIP3     OH2      OT      -0.834000       15.9994           0
     26132 TIP3     605      TIP3     H1       HT       0.417000       1.00800           0
     26133 TIP3     605      TIP3     H2       HT       0.417000       1.00800           0
     26134 TIP3     606      TIP3     OH2      OT      -0.834000       15.9994           0
     26135 TIP3     606      TIP3     H1       HT       0.417000       1.00800           0
     26136 TIP3     606      TIP3     H2       HT       0.417000       1.00800           0
     26137 TIP3     607      TIP3     OH2      OT      -0.834000       15.9994           0
     26138 TIP3     607      TIP3     H1       HT       0.417000       1.00800           0
     26139 TIP3     607      TIP3     H2       HT       0.417000       1.00800           0
     26140 TIP3     608      TIP3     OH2      OT      -0.834000       15.9994           0
     26141 TIP3     608      TIP3     H1       HT       0.417000       1.00800           0
     26142 TIP3     608      TIP3     H2       HT       0.417000       1.00800           0
     26143 TIP3     609      TIP3     OH2      OT      -0.834000       15.9994           0
     26144 TIP3     609      TIP3     H1       HT       0.417000       1.00800           0
     26145 TIP3     609      TIP3     H2       HT       0.417000       1.00800           0
     26146 TIP3     610      TIP3     OH2      OT      -0.834000       15.9994           0
     26147 TIP3     610      TIP3     H1       HT       0.417000       1.00800           0
     26148 TIP3     610      TIP3     H2       HT       0.417000       1.00800           0
     26149 TIP3     611      TIP3     OH2      OT      -0.834000       15.9994           0
     26150 TIP3     611      TIP3     H1       HT       0.417000       1.00800           0
     26151 TIP3     611      TIP3     H2       HT       0.417000       1.00800           0
     26152 TIP3     612      TIP3     OH2      OT      -0.834000       15.9994           0
     26153 TIP3     612      TIP3     H1       HT       0.417000       1.00800           0
     26154 TIP3     612      TIP3     H2       HT       0.417000       1.00800           0
     26155 TIP3     613      TIP3     OH2      OT      -0.834000       15.9994           0
     26156 TIP3     613      TIP3     H1       HT       0.417000       1.00800           0
     26157 TIP3     613      TIP3     H2       HT       0.417000       1.00800           0
     26158 TIP3     614      TIP3     OH2      OT      -0.834000       15.9994           0
     26159 TIP3     614      TIP3     H1       HT       0.417000       1.00800           0
     26160 TIP3     614      TIP3     H2       HT       0.417000       1.00800           0
     26161 TIP3     615      TIP3     OH2      OT      -0.834000       15.9994           0
     26162 TIP3     615      TIP3     H1       HT       0.417000       1.00800           0
     26163 TIP3     615      TIP3     H2       HT       0.417000       1.00800           0
     26164 TIP3     616      TIP3     OH2      OT      -0.834000       15.9994           0
     26165 TIP3     616      TIP3     H1       HT       0.417000       1.00800           0
     26166 TIP3     616      TIP3     H2       HT       0.417000       1.00800           0
     26167 TIP3     617      TIP3     OH2      OT      -0.834000       15.9994           0
     26168 TIP3     617      TIP3     H1       HT       0.417000       1.00800           0
     26169 TIP3     617      TIP3     H2       HT       0.417000       1.00800           0
     26170 TIP3     618      TIP3     OH2      OT      -0.834000       15.9994           0
     26171 TIP3     618      TIP3     H1       HT       0.417000       1.00800           0
     26172 TIP3     618      TIP3     H2       HT       0.417000       1.00800           0
     26173 TIP3     619      TIP3     OH2      OT      -0.834000       15.9994           0
     26174 TIP3     619      TIP3     H1       HT       0.417000       1.00800           0
     26175 TIP3     619      TIP3     H2       HT       0.417000       1.00800           0
     26176 TIP3     620      TIP3     OH2      OT      -0.834000       15.9994           0
     26177 TIP3     620      TIP3     H1       HT       0.417000       1.00800           0
     26178 TIP3     620      TIP3     H2       HT       0.417000       1.00800           0
     26179 TIP3     621      TIP3     OH2      OT      -0.834000       15.9994           0
     26180 TIP3     621      TIP3     H1       HT       0.417000       1.00800           0
     26181 TIP3     621      TIP3     H2       HT       0.417000       1.00800           0
     26182 TIP3     622      TIP3     OH2      OT      -0.834000       15.9994           0
     26183 TIP3     622      TIP3     H1       HT       0.417000       1.00800           0
     26184 TIP3     622      TIP3     H2       HT       0.417000       1.00800           0
     26185 TIP3     623      TIP3     OH2      OT      -0.834000       15.9994           0
     26186 TIP3     623      TIP3     H1       HT       0.417000       1.00800           0
     26187 TIP3     623      TIP3     H2       HT       0.417000       1.00800           0
     26188 TIP3     624      TIP3     OH2      OT      -0.834000       15.9994           0
     26189 TIP3     624      TIP3     H1       HT       0.417000       1.00800           0
     26190 TIP3     624      TIP3     H2       HT       0.417000       1.00800           0
     26191 TIP3     625      TIP3     OH2      OT      -0.834000       15.9994           0
     26192 TIP3     625      TIP3     H1       HT       0.417000       1.00800           0
     26193 TIP3     625      TIP3     H2       HT       0.417000       1.00800           0
     26194 TIP3     626      TIP3     OH2      OT      -0.834000       15.9994           0
     26195 TIP3     626      TIP3     H1       HT       0.417000       1.00800           0
     26196 TIP3     626      TIP3     H2       HT       0.417000       1.00800           0
     26197 TIP3     627      TIP3     OH2      OT      -0.834000       15.9994           0
     26198 TIP3     627      TIP3     H1       HT       0.417000       1.00800           0
     26199 TIP3     627      TIP3     H2       HT       0.417000       1.00800           0
     26200 TIP3     628      TIP3     OH2      OT      -0.834000       15.9994           0
     26201 TIP3     628      TIP3     H1       HT       0.417000       1.00800           0
     26202 TIP3     628      TIP3     H2       HT       0.417000       1.00800           0
     26203 TIP3     629      TIP3     OH2      OT      -0.834000       15.9994           0
     26204 TIP3     629      TIP3     H1       HT       0.417000       1.00800           0
     26205 TIP3     629      TIP3     H2       HT       0.417000       1.00800           0
     26206 TIP3     630      TIP3     OH2      OT      -0.834000       15.9994           0
     26207 TIP3     630      TIP3     H1       HT       0.417000       1.00800           0
     26208 TIP3     630      TIP3     H2       HT       0.417000       1.00800           0
     26209 TIP3     631      TIP3     OH2      OT      -0.834000       15.9994           0
     26210 TIP3     631      TIP3     H1       HT       0.417000       1.00800           0
     26211 TIP3     631      TIP3     H2       HT       0.417000       1.00800           0
     26212 TIP3     632      TIP3     OH2      OT      -0.834000       15.9994           0
     26213 TIP3     632      TIP3     H1       HT       0.417000       1.00800           0
     26214 TIP3     632      TIP3     H2       HT       0.417000       1.00800           0
     26215 TIP3     633      TIP3     OH2      OT      -0.834000       15.9994           0
     26216 TIP3     633      TIP3     H1       HT       0.417000       1.00800           0
     26217 TIP3     633      TIP3     H2       HT       0.417000       1.00800           0
     26218 TIP3     634      TIP3     OH2      OT      -0.834000       15.9994           0
     26219 TIP3     634      TIP3     H1       HT       0.417000       1.00800           0
     26220 TIP3     634      TIP3     H2       HT       0.417000       1.00800           0
     26221 TIP3     635      TIP3     OH2      OT      -0.834000       15.9994           0
     26222 TIP3     635      TIP3     H1       HT       0.417000       1.00800           0
     26223 TIP3     635      TIP3     H2       HT       0.417000       1.00800           0
     26224 TIP3     636      TIP3     OH2      OT      -0.834000       15.9994           0
     26225 TIP3     636      TIP3     H1       HT       0.417000       1.00800           0
     26226 TIP3     636      TIP3     H2       HT       0.417000       1.00800           0
     26227 TIP3     637      TIP3     OH2      OT      -0.834000       15.9994           0
     26228 TIP3     637      TIP3     H1       HT       0.417000       1.00800           0
     26229 TIP3     637      TIP3     H2       HT       0.417000       1.00800           0
     26230 TIP3     638      TIP3     OH2      OT      -0.834000       15.9994           0
     26231 TIP3     638      TIP3     H1       HT       0.417000       1.00800           0
     26232 TIP3     638      TIP3     H2       HT       0.417000       1.00800           0
     26233 TIP3     639      TIP3     OH2      OT      -0.834000       15.9994           0
     26234 TIP3     639      TIP3     H1       HT       0.417000       1.00800           0
     26235 TIP3     639      TIP3     H2       HT       0.417000       1.00800           0
     26236 TIP3     640      TIP3     OH2      OT      -0.834000       15.9994           0
     26237 TIP3     640      TIP3     H1       HT       0.417000       1.00800           0
     26238 TIP3     640      TIP3     H2       HT       0.417000       1.00800           0
     26239 TIP3     641      TIP3     OH2      OT      -0.834000       15.9994           0
     26240 TIP3     641      TIP3     H1       HT       0.417000       1.00800           0
     26241 TIP3     641      TIP3     H2       HT       0.417000       1.00800           0
     26242 TIP3     642      TIP3     OH2      OT      -0.834000       15.9994           0
     26243 TIP3     642      TIP3     H1       HT       0.417000       1.00800           0
     26244 TIP3     642      TIP3     H2       HT       0.417000       1.00800           0
     26245 TIP3     643      TIP3     OH2      OT      -0.834000       15.9994           0
     26246 TIP3     643      TIP3     H1       HT       0.417000       1.00800           0
     26247 TIP3     643      TIP3     H2       HT       0.417000       1.00800           0
     26248 TIP3     644      TIP3     OH2      OT      -0.834000       15.9994           0
     26249 TIP3     644      TIP3     H1       HT       0.417000       1.00800           0
     26250 TIP3     644      TIP3     H2       HT       0.417000       1.00800           0
     26251 TIP3     645      TIP3     OH2      OT      -0.834000       15.9994           0
     26252 TIP3     645      TIP3     H1       HT       0.417000       1.00800           0
     26253 TIP3     645      TIP3     H2       HT       0.417000       1.00800           0
     26254 TIP3     646      TIP3     OH2      OT      -0.834000       15.9994           0
     26255 TIP3     646      TIP3     H1       HT       0.417000       1.00800           0
     26256 TIP3     646      TIP3     H2       HT       0.417000       1.00800           0
     26257 TIP3     647      TIP3     OH2      OT      -0.834000       15.9994           0
     26258 TIP3     647      TIP3     H1       HT       0.417000       1.00800           0
     26259 TIP3     647      TIP3     H2       HT       0.417000       1.00800           0
     26260 TIP3     648      TIP3     OH2      OT      -0.834000       15.9994           0
     26261 TIP3     648      TIP3     H1       HT       0.417000       1.00800           0
     26262 TIP3     648      TIP3     H2       HT       0.417000       1.00800           0
     26263 TIP3     649      TIP3     OH2      OT      -0.834000       15.9994           0
     26264 TIP3     649      TIP3     H1       HT       0.417000       1.00800           0
     26265 TIP3     649      TIP3     H2       HT       0.417000       1.00800           0
     26266 TIP3     650      TIP3     OH2      OT      -0.834000       15.9994           0
     26267 TIP3     650      TIP3     H1       HT       0.417000       1.00800           0
     26268 TIP3     650      TIP3     H2       HT       0.417000       1.00800           0
     26269 TIP3     651      TIP3     OH2      OT      -0.834000       15.9994           0
     26270 TIP3     651      TIP3     H1       HT       0.417000       1.00800           0
     26271 TIP3     651      TIP3     H2       HT       0.417000       1.00800           0
     26272 TIP3     652      TIP3     OH2      OT      -0.834000       15.9994           0
     26273 TIP3     652      TIP3     H1       HT       0.417000       1.00800           0
     26274 TIP3     652      TIP3     H2       HT       0.417000       1.00800           0
     26275 TIP3     653      TIP3     OH2      OT      -0.834000       15.9994           0
     26276 TIP3     653      TIP3     H1       HT       0.417000       1.00800           0
     26277 TIP3     653      TIP3     H2       HT       0.417000       1.00800           0
     26278 TIP3     654      TIP3     OH2      OT      -0.834000       15.9994           0
     26279 TIP3     654      TIP3     H1       HT       0.417000       1.00800           0
     26280 TIP3     654      TIP3     H2       HT       0.417000       1.00800           0
     26281 TIP3     655      TIP3     OH2      OT      -0.834000       15.9994           0
     26282 TIP3     655      TIP3     H1       HT       0.417000       1.00800           0
     26283 TIP3     655      TIP3     H2       HT       0.417000       1.00800           0
     26284 TIP3     656      TIP3     OH2      OT      -0.834000       15.9994           0
     26285 TIP3     656      TIP3     H1       HT       0.417000       1.00800           0
     26286 TIP3     656      TIP3     H2       HT       0.417000       1.00800           0
     26287 TIP3     657      TIP3     OH2      OT      -0.834000       15.9994           0
     26288 TIP3     657      TIP3     H1       HT       0.417000       1.00800           0
     26289 TIP3     657      TIP3     H2       HT       0.417000       1.00800           0
     26290 TIP3     658      TIP3     OH2      OT      -0.834000       15.9994           0
     26291 TIP3     658      TIP3     H1       HT       0.417000       1.00800           0
     26292 TIP3     658      TIP3     H2       HT       0.417000       1.00800           0
     26293 TIP3     659      TIP3     OH2      OT      -0.834000       15.9994           0
     26294 TIP3     659      TIP3     H1       HT       0.417000       1.00800           0
     26295 TIP3     659      TIP3     H2       HT       0.417000       1.00800           0
     26296 TIP3     660      TIP3     OH2      OT      -0.834000       15.9994           0
     26297 TIP3     660      TIP3     H1       HT       0.417000       1.00800           0
     26298 TIP3     660      TIP3     H2       HT       0.417000       1.00800           0
     26299 TIP3     661      TIP3     OH2      OT      -0.834000       15.9994           0
     26300 TIP3     661      TIP3     H1       HT       0.417000       1.00800           0
     26301 TIP3     661      TIP3     H2       HT       0.417000       1.00800           0
     26302 TIP3     662      TIP3     OH2      OT      -0.834000       15.9994           0
     26303 TIP3     662      TIP3     H1       HT       0.417000       1.00800           0
     26304 TIP3     662      TIP3     H2       HT       0.417000       1.00800           0
     26305 TIP3     663      TIP3     OH2      OT      -0.834000       15.9994           0
     26306 TIP3     663      TIP3     H1       HT       0.417000       1.00800           0
     26307 TIP3     663      TIP3     H2       HT       0.417000       1.00800           0
     26308 TIP3     664      TIP3     OH2      OT      -0.834000       15.9994           0
     26309 TIP3     664      TIP3     H1       HT       0.417000       1.00800           0
     26310 TIP3     664      TIP3     H2       HT       0.417000       1.00800           0
     26311 TIP3     665      TIP3     OH2      OT      -0.834000       15.9994           0
     26312 TIP3     665      TIP3     H1       HT       0.417000       1.00800           0
     26313 TIP3     665      TIP3     H2       HT       0.417000       1.00800           0
     26314 TIP3     666      TIP3     OH2      OT      -0.834000       15.9994           0
     26315 TIP3     666      TIP3     H1       HT       0.417000       1.00800           0
     26316 TIP3     666      TIP3     H2       HT       0.417000       1.00800           0
     26317 TIP3     667      TIP3     OH2      OT      -0.834000       15.9994           0
     26318 TIP3     667      TIP3     H1       HT       0.417000       1.00800           0
     26319 TIP3     667      TIP3     H2       HT       0.417000       1.00800           0
     26320 TIP3     668      TIP3     OH2      OT      -0.834000       15.9994           0
     26321 TIP3     668      TIP3     H1       HT       0.417000       1.00800           0
     26322 TIP3     668      TIP3     H2       HT       0.417000       1.00800           0
     26323 TIP3     669      TIP3     OH2      OT      -0.834000       15.9994           0
     26324 TIP3     669      TIP3     H1       HT       0.417000       1.00800           0
     26325 TIP3     669      TIP3     H2       HT       0.417000       1.00800           0
     26326 TIP3     670      TIP3     OH2      OT      -0.834000       15.9994           0
     26327 TIP3     670      TIP3     H1       HT       0.417000       1.00800           0
     26328 TIP3     670      TIP3     H2       HT       0.417000       1.00800           0
     26329 TIP3     671      TIP3     OH2      OT      -0.834000       15.9994           0
     26330 TIP3     671      TIP3     H1       HT       0.417000       1.00800           0
     26331 TIP3     671      TIP3     H2       HT       0.417000       1.00800           0
     26332 TIP3     672      TIP3     OH2      OT      -0.834000       15.9994           0
     26333 TIP3     672      TIP3     H1       HT       0.417000       1.00800           0
     26334 TIP3     672      TIP3     H2       HT       0.417000       1.00800           0
     26335 TIP3     673      TIP3     OH2      OT      -0.834000       15.9994           0
     26336 TIP3     673      TIP3     H1       HT       0.417000       1.00800           0
     26337 TIP3     673      TIP3     H2       HT       0.417000       1.00800           0
     26338 TIP3     674      TIP3     OH2      OT      -0.834000       15.9994           0
     26339 TIP3     674      TIP3     H1       HT       0.417000       1.00800           0
     26340 TIP3     674      TIP3     H2       HT       0.417000       1.00800           0
     26341 TIP3     675      TIP3     OH2      OT      -0.834000       15.9994           0
     26342 TIP3     675      TIP3     H1       HT       0.417000       1.00800           0
     26343 TIP3     675      TIP3     H2       HT       0.417000       1.00800           0
     26344 TIP3     676      TIP3     OH2      OT      -0.834000       15.9994           0
     26345 TIP3     676      TIP3     H1       HT       0.417000       1.00800           0
     26346 TIP3     676      TIP3     H2       HT       0.417000       1.00800           0
     26347 TIP3     677      TIP3     OH2      OT      -0.834000       15.9994           0
     26348 TIP3     677      TIP3     H1       HT       0.417000       1.00800           0
     26349 TIP3     677      TIP3     H2       HT       0.417000       1.00800           0
     26350 TIP3     678      TIP3     OH2      OT      -0.834000       15.9994           0
     26351 TIP3     678      TIP3     H1       HT       0.417000       1.00800           0
     26352 TIP3     678      TIP3     H2       HT       0.417000       1.00800           0
     26353 TIP3     679      TIP3     OH2      OT      -0.834000       15.9994           0
     26354 TIP3     679      TIP3     H1       HT       0.417000       1.00800           0
     26355 TIP3     679      TIP3     H2       HT       0.417000       1.00800           0
     26356 TIP3     680      TIP3     OH2      OT      -0.834000       15.9994           0
     26357 TIP3     680      TIP3     H1       HT       0.417000       1.00800           0
     26358 TIP3     680      TIP3     H2       HT       0.417000       1.00800           0
     26359 TIP3     681      TIP3     OH2      OT      -0.834000       15.9994           0
     26360 TIP3     681      TIP3     H1       HT       0.417000       1.00800           0
     26361 TIP3     681      TIP3     H2       HT       0.417000       1.00800           0
     26362 TIP3     682      TIP3     OH2      OT      -0.834000       15.9994           0
     26363 TIP3     682      TIP3     H1       HT       0.417000       1.00800           0
     26364 TIP3     682      TIP3     H2       HT       0.417000       1.00800           0
     26365 TIP3     683      TIP3     OH2      OT      -0.834000       15.9994           0
     26366 TIP3     683      TIP3     H1       HT       0.417000       1.00800           0
     26367 TIP3     683      TIP3     H2       HT       0.417000       1.00800           0
     26368 TIP3     684      TIP3     OH2      OT      -0.834000       15.9994           0
     26369 TIP3     684      TIP3     H1       HT       0.417000       1.00800           0
     26370 TIP3     684      TIP3     H2       HT       0.417000       1.00800           0
     26371 TIP3     685      TIP3     OH2      OT      -0.834000       15.9994           0
     26372 TIP3     685      TIP3     H1       HT       0.417000       1.00800           0
     26373 TIP3     685      TIP3     H2       HT       0.417000       1.00800           0
     26374 TIP3     686      TIP3     OH2      OT      -0.834000       15.9994           0
     26375 TIP3     686      TIP3     H1       HT       0.417000       1.00800           0
     26376 TIP3     686      TIP3     H2       HT       0.417000       1.00800           0
     26377 TIP3     687      TIP3     OH2      OT      -0.834000       15.9994           0
     26378 TIP3     687      TIP3     H1       HT       0.417000       1.00800           0
     26379 TIP3     687      TIP3     H2       HT       0.417000       1.00800           0
     26380 TIP3     688      TIP3     OH2      OT      -0.834000       15.9994           0
     26381 TIP3     688      TIP3     H1       HT       0.417000       1.00800           0
     26382 TIP3     688      TIP3     H2       HT       0.417000       1.00800           0
     26383 TIP3     689      TIP3     OH2      OT      -0.834000       15.9994           0
     26384 TIP3     689      TIP3     H1       HT       0.417000       1.00800           0
     26385 TIP3     689      TIP3     H2       HT       0.417000       1.00800           0
     26386 TIP3     690      TIP3     OH2      OT      -0.834000       15.9994           0
     26387 TIP3     690      TIP3     H1       HT       0.417000       1.00800           0
     26388 TIP3     690      TIP3     H2       HT       0.417000       1.00800           0
     26389 TIP3     691      TIP3     OH2      OT      -0.834000       15.9994           0
     26390 TIP3     691      TIP3     H1       HT       0.417000       1.00800           0
     26391 TIP3     691      TIP3     H2       HT       0.417000       1.00800           0
     26392 TIP3     692      TIP3     OH2      OT      -0.834000       15.9994           0
     26393 TIP3     692      TIP3     H1       HT       0.417000       1.00800           0
     26394 TIP3     692      TIP3     H2       HT       0.417000       1.00800           0
     26395 TIP3     693      TIP3     OH2      OT      -0.834000       15.9994           0
     26396 TIP3     693      TIP3     H1       HT       0.417000       1.00800           0
     26397 TIP3     693      TIP3     H2       HT       0.417000       1.00800           0
     26398 TIP3     694      TIP3     OH2      OT      -0.834000       15.9994           0
     26399 TIP3     694      TIP3     H1       HT       0.417000       1.00800           0
     26400 TIP3     694      TIP3     H2       HT       0.417000       1.00800           0
     26401 TIP3     695      TIP3     OH2      OT      -0.834000       15.9994           0
     26402 TIP3     695      TIP3     H1       HT       0.417000       1.00800           0
     26403 TIP3     695      TIP3     H2       HT       0.417000       1.00800           0
     26404 TIP3     696      TIP3     OH2      OT      -0.834000       15.9994           0
     26405 TIP3     696      TIP3     H1       HT       0.417000       1.00800           0
     26406 TIP3     696      TIP3     H2       HT       0.417000       1.00800           0
     26407 TIP3     697      TIP3     OH2      OT      -0.834000       15.9994           0
     26408 TIP3     697      TIP3     H1       HT       0.417000       1.00800           0
     26409 TIP3     697      TIP3     H2       HT       0.417000       1.00800           0
     26410 TIP3     698      TIP3     OH2      OT      -0.834000       15.9994           0
     26411 TIP3     698      TIP3     H1       HT       0.417000       1.00800           0
     26412 TIP3     698      TIP3     H2       HT       0.417000       1.00800           0
     26413 TIP3     699      TIP3     OH2      OT      -0.834000       15.9994           0
     26414 TIP3     699      TIP3     H1       HT       0.417000       1.00800           0
     26415 TIP3     699      TIP3     H2       HT       0.417000       1.00800           0
     26416 TIP3     700      TIP3     OH2      OT      -0.834000       15.9994           0
     26417 TIP3     700      TIP3     H1       HT       0.417000       1.00800           0
     26418 TIP3     700      TIP3     H2       HT       0.417000       1.00800           0
     26419 TIP3     701      TIP3     OH2      OT      -0.834000       15.9994           0
     26420 TIP3     701      TIP3     H1       HT       0.417000       1.00800           0
     26421 TIP3     701      TIP3     H2       HT       0.417000       1.00800           0
     26422 TIP3     702      TIP3     OH2      OT      -0.834000       15.9994           0
     26423 TIP3     702      TIP3     H1       HT       0.417000       1.00800           0
     26424 TIP3     702      TIP3     H2       HT       0.417000       1.00800           0
     26425 TIP3     703      TIP3     OH2      OT      -0.834000       15.9994           0
     26426 TIP3     703      TIP3     H1       HT       0.417000       1.00800           0
     26427 TIP3     703      TIP3     H2       HT       0.417000       1.00800           0
     26428 TIP3     704      TIP3     OH2      OT      -0.834000       15.9994           0
     26429 TIP3     704      TIP3     H1       HT       0.417000       1.00800           0
     26430 TIP3     704      TIP3     H2       HT       0.417000       1.00800           0
     26431 TIP3     705      TIP3     OH2      OT      -0.834000       15.9994           0
     26432 TIP3     705      TIP3     H1       HT       0.417000       1.00800           0
     26433 TIP3     705      TIP3     H2       HT       0.417000       1.00800           0
     26434 TIP3     706      TIP3     OH2      OT      -0.834000       15.9994           0
     26435 TIP3     706      TIP3     H1       HT       0.417000       1.00800           0
     26436 TIP3     706      TIP3     H2       HT       0.417000       1.00800           0
     26437 TIP3     707      TIP3     OH2      OT      -0.834000       15.9994           0
     26438 TIP3     707      TIP3     H1       HT       0.417000       1.00800           0
     26439 TIP3     707      TIP3     H2       HT       0.417000       1.00800           0
     26440 TIP3     708      TIP3     OH2      OT      -0.834000       15.9994           0
     26441 TIP3     708      TIP3     H1       HT       0.417000       1.00800           0
     26442 TIP3     708      TIP3     H2       HT       0.417000       1.00800           0
     26443 TIP3     709      TIP3     OH2      OT      -0.834000       15.9994           0
     26444 TIP3     709      TIP3     H1       HT       0.417000       1.00800           0
     26445 TIP3     709      TIP3     H2       HT       0.417000       1.00800           0
     26446 TIP3     710      TIP3     OH2      OT      -0.834000       15.9994           0
     26447 TIP3     710      TIP3     H1       HT       0.417000       1.00800           0
     26448 TIP3     710      TIP3     H2       HT       0.417000       1.00800           0
     26449 TIP3     711      TIP3     OH2      OT      -0.834000       15.9994           0
     26450 TIP3     711      TIP3     H1       HT       0.417000       1.00800           0
     26451 TIP3     711      TIP3     H2       HT       0.417000       1.00800           0
     26452 TIP3     712      TIP3     OH2      OT      -0.834000       15.9994           0
     26453 TIP3     712      TIP3     H1       HT       0.417000       1.00800           0
     26454 TIP3     712      TIP3     H2       HT       0.417000       1.00800           0
     26455 TIP3     713      TIP3     OH2      OT      -0.834000       15.9994           0
     26456 TIP3     713      TIP3     H1       HT       0.417000       1.00800           0
     26457 TIP3     713      TIP3     H2       HT       0.417000       1.00800           0
     26458 TIP3     714      TIP3     OH2      OT      -0.834000       15.9994           0
     26459 TIP3     714      TIP3     H1       HT       0.417000       1.00800           0
     26460 TIP3     714      TIP3     H2       HT       0.417000       1.00800           0
     26461 TIP3     715      TIP3     OH2      OT      -0.834000       15.9994           0
     26462 TIP3     715      TIP3     H1       HT       0.417000       1.00800           0
     26463 TIP3     715      TIP3     H2       HT       0.417000       1.00800           0
     26464 TIP3     716      TIP3     OH2      OT      -0.834000       15.9994           0
     26465 TIP3     716      TIP3     H1       HT       0.417000       1.00800           0
     26466 TIP3     716      TIP3     H2       HT       0.417000       1.00800           0
     26467 TIP3     717      TIP3     OH2      OT      -0.834000       15.9994           0
     26468 TIP3     717      TIP3     H1       HT       0.417000       1.00800           0
     26469 TIP3     717      TIP3     H2       HT       0.417000       1.00800           0
     26470 TIP3     718      TIP3     OH2      OT      -0.834000       15.9994           0
     26471 TIP3     718      TIP3     H1       HT       0.417000       1.00800           0
     26472 TIP3     718      TIP3     H2       HT       0.417000       1.00800           0
     26473 TIP3     719      TIP3     OH2      OT      -0.834000       15.9994           0
     26474 TIP3     719      TIP3     H1       HT       0.417000       1.00800           0
     26475 TIP3     719      TIP3     H2       HT       0.417000       1.00800           0
     26476 TIP3     720      TIP3     OH2      OT      -0.834000       15.9994           0
     26477 TIP3     720      TIP3     H1       HT       0.417000       1.00800           0
     26478 TIP3     720      TIP3     H2       HT       0.417000       1.00800           0
     26479 TIP3     721      TIP3     OH2      OT      -0.834000       15.9994           0
     26480 TIP3     721      TIP3     H1       HT       0.417000       1.00800           0
     26481 TIP3     721      TIP3     H2       HT       0.417000       1.00800           0
     26482 TIP3     722      TIP3     OH2      OT      -0.834000       15.9994           0
     26483 TIP3     722      TIP3     H1       HT       0.417000       1.00800           0
     26484 TIP3     722      TIP3     H2       HT       0.417000       1.00800           0
     26485 TIP3     723      TIP3     OH2      OT      -0.834000       15.9994           0
     26486 TIP3     723      TIP3     H1       HT       0.417000       1.00800           0
     26487 TIP3     723      TIP3     H2       HT       0.417000       1.00800           0
     26488 TIP3     724      TIP3     OH2      OT      -0.834000       15.9994           0
     26489 TIP3     724      TIP3     H1       HT       0.417000       1.00800           0
     26490 TIP3     724      TIP3     H2       HT       0.417000       1.00800           0
     26491 TIP3     725      TIP3     OH2      OT      -0.834000       15.9994           0
     26492 TIP3     725      TIP3     H1       HT       0.417000       1.00800           0
     26493 TIP3     725      TIP3     H2       HT       0.417000       1.00800           0
     26494 TIP3     726      TIP3     OH2      OT      -0.834000       15.9994           0
     26495 TIP3     726      TIP3     H1       HT       0.417000       1.00800           0
     26496 TIP3     726      TIP3     H2       HT       0.417000       1.00800           0
     26497 TIP3     727      TIP3     OH2      OT      -0.834000       15.9994           0
     26498 TIP3     727      TIP3     H1       HT       0.417000       1.00800           0
     26499 TIP3     727      TIP3     H2       HT       0.417000       1.00800           0
     26500 TIP3     728      TIP3     OH2      OT      -0.834000       15.9994           0
     26501 TIP3     728      TIP3     H1       HT       0.417000       1.00800           0
     26502 TIP3     728      TIP3     H2       HT       0.417000       1.00800           0
     26503 TIP3     729      TIP3     OH2      OT      -0.834000       15.9994           0
     26504 TIP3     729      TIP3     H1       HT       0.417000       1.00800           0
     26505 TIP3     729      TIP3     H2       HT       0.417000       1.00800           0
     26506 TIP3     730      TIP3     OH2      OT      -0.834000       15.9994           0
     26507 TIP3     730      TIP3     H1       HT       0.417000       1.00800           0
     26508 TIP3     730      TIP3     H2       HT       0.417000       1.00800           0
     26509 TIP3     731      TIP3     OH2      OT      -0.834000       15.9994           0
     26510 TIP3     731      TIP3     H1       HT       0.417000       1.00800           0
     26511 TIP3     731      TIP3     H2       HT       0.417000       1.00800           0
     26512 TIP3     732      TIP3     OH2      OT      -0.834000       15.9994           0
     26513 TIP3     732      TIP3     H1       HT       0.417000       1.00800           0
     26514 TIP3     732      TIP3     H2       HT       0.417000       1.00800           0
     26515 TIP3     733      TIP3     OH2      OT      -0.834000       15.9994           0
     26516 TIP3     733      TIP3     H1       HT       0.417000       1.00800           0
     26517 TIP3     733      TIP3     H2       HT       0.417000       1.00800           0
     26518 TIP3     734      TIP3     OH2      OT      -0.834000       15.9994           0
     26519 TIP3     734      TIP3     H1       HT       0.417000       1.00800           0
     26520 TIP3     734      TIP3     H2       HT       0.417000       1.00800           0
     26521 TIP3     735      TIP3     OH2      OT      -0.834000       15.9994           0
     26522 TIP3     735      TIP3     H1       HT       0.417000       1.00800           0
     26523 TIP3     735      TIP3     H2       HT       0.417000       1.00800           0
     26524 TIP3     736      TIP3     OH2      OT      -0.834000       15.9994           0
     26525 TIP3     736      TIP3     H1       HT       0.417000       1.00800           0
     26526 TIP3     736      TIP3     H2       HT       0.417000       1.00800           0
     26527 TIP3     737      TIP3     OH2      OT      -0.834000       15.9994           0
     26528 TIP3     737      TIP3     H1       HT       0.417000       1.00800           0
     26529 TIP3     737      TIP3     H2       HT       0.417000       1.00800           0
     26530 TIP3     738      TIP3     OH2      OT      -0.834000       15.9994           0
     26531 TIP3     738      TIP3     H1       HT       0.417000       1.00800           0
     26532 TIP3     738      TIP3     H2       HT       0.417000       1.00800           0
     26533 TIP3     739      TIP3     OH2      OT      -0.834000       15.9994           0
     26534 TIP3     739      TIP3     H1       HT       0.417000       1.00800           0
     26535 TIP3     739      TIP3     H2       HT       0.417000       1.00800           0
     26536 TIP3     740      TIP3     OH2      OT      -0.834000       15.9994           0
     26537 TIP3     740      TIP3     H1       HT       0.417000       1.00800           0
     26538 TIP3     740      TIP3     H2       HT       0.417000       1.00800           0
     26539 TIP3     741      TIP3     OH2      OT      -0.834000       15.9994           0
     26540 TIP3     741      TIP3     H1       HT       0.417000       1.00800           0
     26541 TIP3     741      TIP3     H2       HT       0.417000       1.00800           0
     26542 TIP3     742      TIP3     OH2      OT      -0.834000       15.9994           0
     26543 TIP3     742      TIP3     H1       HT       0.417000       1.00800           0
     26544 TIP3     742      TIP3     H2       HT       0.417000       1.00800           0
     26545 TIP3     743      TIP3     OH2      OT      -0.834000       15.9994           0
     26546 TIP3     743      TIP3     H1       HT       0.417000       1.00800           0
     26547 TIP3     743      TIP3     H2       HT       0.417000       1.00800           0
     26548 TIP3     744      TIP3     OH2      OT      -0.834000       15.9994           0
     26549 TIP3     744      TIP3     H1       HT       0.417000       1.00800           0
     26550 TIP3     744      TIP3     H2       HT       0.417000       1.00800           0
     26551 TIP3     745      TIP3     OH2      OT      -0.834000       15.9994           0
     26552 TIP3     745      TIP3     H1       HT       0.417000       1.00800           0
     26553 TIP3     745      TIP3     H2       HT       0.417000       1.00800           0
     26554 TIP3     746      TIP3     OH2      OT      -0.834000       15.9994           0
     26555 TIP3     746      TIP3     H1       HT       0.417000       1.00800           0
     26556 TIP3     746      TIP3     H2       HT       0.417000       1.00800           0
     26557 TIP3     747      TIP3     OH2      OT      -0.834000       15.9994           0
     26558 TIP3     747      TIP3     H1       HT       0.417000       1.00800           0
     26559 TIP3     747      TIP3     H2       HT       0.417000       1.00800           0
     26560 TIP3     748      TIP3     OH2      OT      -0.834000       15.9994           0
     26561 TIP3     748      TIP3     H1       HT       0.417000       1.00800           0
     26562 TIP3     748      TIP3     H2       HT       0.417000       1.00800           0
     26563 TIP3     749      TIP3     OH2      OT      -0.834000       15.9994           0
     26564 TIP3     749      TIP3     H1       HT       0.417000       1.00800           0
     26565 TIP3     749      TIP3     H2       HT       0.417000       1.00800           0
     26566 TIP3     750      TIP3     OH2      OT      -0.834000       15.9994           0
     26567 TIP3     750      TIP3     H1       HT       0.417000       1.00800           0
     26568 TIP3     750      TIP3     H2       HT       0.417000       1.00800           0
     26569 TIP3     751      TIP3     OH2      OT      -0.834000       15.9994           0
     26570 TIP3     751      TIP3     H1       HT       0.417000       1.00800           0
     26571 TIP3     751      TIP3     H2       HT       0.417000       1.00800           0
     26572 TIP3     752      TIP3     OH2      OT      -0.834000       15.9994           0
     26573 TIP3     752      TIP3     H1       HT       0.417000       1.00800           0
     26574 TIP3     752      TIP3     H2       HT       0.417000       1.00800           0
     26575 TIP3     753      TIP3     OH2      OT      -0.834000       15.9994           0
     26576 TIP3     753      TIP3     H1       HT       0.417000       1.00800           0
     26577 TIP3     753      TIP3     H2       HT       0.417000       1.00800           0
     26578 TIP3     754      TIP3     OH2      OT      -0.834000       15.9994           0
     26579 TIP3     754      TIP3     H1       HT       0.417000       1.00800           0
     26580 TIP3     754      TIP3     H2       HT       0.417000       1.00800           0
     26581 TIP3     755      TIP3     OH2      OT      -0.834000       15.9994           0
     26582 TIP3     755      TIP3     H1       HT       0.417000       1.00800           0
     26583 TIP3     755      TIP3     H2       HT       0.417000       1.00800           0
     26584 TIP3     756      TIP3     OH2      OT      -0.834000       15.9994           0
     26585 TIP3     756      TIP3     H1       HT       0.417000       1.00800           0
     26586 TIP3     756      TIP3     H2       HT       0.417000       1.00800           0
     26587 TIP3     757      TIP3     OH2      OT      -0.834000       15.9994           0
     26588 TIP3     757      TIP3     H1       HT       0.417000       1.00800           0
     26589 TIP3     757      TIP3     H2       HT       0.417000       1.00800           0
     26590 TIP3     758      TIP3     OH2      OT      -0.834000       15.9994           0
     26591 TIP3     758      TIP3     H1       HT       0.417000       1.00800           0
     26592 TIP3     758      TIP3     H2       HT       0.417000       1.00800           0
     26593 TIP3     759      TIP3     OH2      OT      -0.834000       15.9994           0
     26594 TIP3     759      TIP3     H1       HT       0.417000       1.00800           0
     26595 TIP3     759      TIP3     H2       HT       0.417000       1.00800           0
     26596 TIP3     760      TIP3     OH2      OT      -0.834000       15.9994           0
     26597 TIP3     760      TIP3     H1       HT       0.417000       1.00800           0
     26598 TIP3     760      TIP3     H2       HT       0.417000       1.00800           0
     26599 TIP3     761      TIP3     OH2      OT      -0.834000       15.9994           0
     26600 TIP3     761      TIP3     H1       HT       0.417000       1.00800           0
     26601 TIP3     761      TIP3     H2       HT       0.417000       1.00800           0
     26602 TIP3     762      TIP3     OH2      OT      -0.834000       15.9994           0
     26603 TIP3     762      TIP3     H1       HT       0.417000       1.00800           0
     26604 TIP3     762      TIP3     H2       HT       0.417000       1.00800           0
     26605 TIP3     763      TIP3     OH2      OT      -0.834000       15.9994           0
     26606 TIP3     763      TIP3     H1       HT       0.417000       1.00800           0
     26607 TIP3     763      TIP3     H2       HT       0.417000       1.00800           0
     26608 TIP3     764      TIP3     OH2      OT      -0.834000       15.9994           0
     26609 TIP3     764      TIP3     H1       HT       0.417000       1.00800           0
     26610 TIP3     764      TIP3     H2       HT       0.417000       1.00800           0
     26611 TIP3     765      TIP3     OH2      OT      -0.834000       15.9994           0
     26612 TIP3     765      TIP3     H1       HT       0.417000       1.00800           0
     26613 TIP3     765      TIP3     H2       HT       0.417000       1.00800           0
     26614 TIP3     766      TIP3     OH2      OT      -0.834000       15.9994           0
     26615 TIP3     766      TIP3     H1       HT       0.417000       1.00800           0
     26616 TIP3     766      TIP3     H2       HT       0.417000       1.00800           0
     26617 TIP3     767      TIP3     OH2      OT      -0.834000       15.9994           0
     26618 TIP3     767      TIP3     H1       HT       0.417000       1.00800           0
     26619 TIP3     767      TIP3     H2       HT       0.417000       1.00800           0
     26620 TIP3     768      TIP3     OH2      OT      -0.834000       15.9994           0
     26621 TIP3     768      TIP3     H1       HT       0.417000       1.00800           0
     26622 TIP3     768      TIP3     H2       HT       0.417000       1.00800           0
     26623 TIP3     769      TIP3     OH2      OT      -0.834000       15.9994           0
     26624 TIP3     769      TIP3     H1       HT       0.417000       1.00800           0
     26625 TIP3     769      TIP3     H2       HT       0.417000       1.00800           0
     26626 TIP3     770      TIP3     OH2      OT      -0.834000       15.9994           0
     26627 TIP3     770      TIP3     H1       HT       0.417000       1.00800           0
     26628 TIP3     770      TIP3     H2       HT       0.417000       1.00800           0
     26629 TIP3     771      TIP3     OH2      OT      -0.834000       15.9994           0
     26630 TIP3     771      TIP3     H1       HT       0.417000       1.00800           0
     26631 TIP3     771      TIP3     H2       HT       0.417000       1.00800           0
     26632 TIP3     772      TIP3     OH2      OT      -0.834000       15.9994           0
     26633 TIP3     772      TIP3     H1       HT       0.417000       1.00800           0
     26634 TIP3     772      TIP3     H2       HT       0.417000       1.00800           0
     26635 TIP3     773      TIP3     OH2      OT      -0.834000       15.9994           0
     26636 TIP3     773      TIP3     H1       HT       0.417000       1.00800           0
     26637 TIP3     773      TIP3     H2       HT       0.417000       1.00800           0
     26638 TIP3     774      TIP3     OH2      OT      -0.834000       15.9994           0
     26639 TIP3     774      TIP3     H1       HT       0.417000       1.00800           0
     26640 TIP3     774      TIP3     H2       HT       0.417000       1.00800           0
     26641 TIP3     775      TIP3     OH2      OT      -0.834000       15.9994           0
     26642 TIP3     775      TIP3     H1       HT       0.417000       1.00800           0
     26643 TIP3     775      TIP3     H2       HT       0.417000       1.00800           0
     26644 TIP3     776      TIP3     OH2      OT      -0.834000       15.9994           0
     26645 TIP3     776      TIP3     H1       HT       0.417000       1.00800           0
     26646 TIP3     776      TIP3     H2       HT       0.417000       1.00800           0
     26647 TIP3     777      TIP3     OH2      OT      -0.834000       15.9994           0
     26648 TIP3     777      TIP3     H1       HT       0.417000       1.00800           0
     26649 TIP3     777      TIP3     H2       HT       0.417000       1.00800           0
     26650 TIP3     778      TIP3     OH2      OT      -0.834000       15.9994           0
     26651 TIP3     778      TIP3     H1       HT       0.417000       1.00800           0
     26652 TIP3     778      TIP3     H2       HT       0.417000       1.00800           0
     26653 TIP3     779      TIP3     OH2      OT      -0.834000       15.9994           0
     26654 TIP3     779      TIP3     H1       HT       0.417000       1.00800           0
     26655 TIP3     779      TIP3     H2       HT       0.417000       1.00800           0
     26656 TIP3     780      TIP3     OH2      OT      -0.834000       15.9994           0
     26657 TIP3     780      TIP3     H1       HT       0.417000       1.00800           0
     26658 TIP3     780      TIP3     H2       HT       0.417000       1.00800           0
     26659 TIP3     781      TIP3     OH2      OT      -0.834000       15.9994           0
     26660 TIP3     781      TIP3     H1       HT       0.417000       1.00800           0
     26661 TIP3     781      TIP3     H2       HT       0.417000       1.00800           0
     26662 TIP3     782      TIP3     OH2      OT      -0.834000       15.9994           0
     26663 TIP3     782      TIP3     H1       HT       0.417000       1.00800           0
     26664 TIP3     782      TIP3     H2       HT       0.417000       1.00800           0
     26665 TIP3     783      TIP3     OH2      OT      -0.834000       15.9994           0
     26666 TIP3     783      TIP3     H1       HT       0.417000       1.00800           0
     26667 TIP3     783      TIP3     H2       HT       0.417000       1.00800           0
     26668 TIP3     784      TIP3     OH2      OT      -0.834000       15.9994           0
     26669 TIP3     784      TIP3     H1       HT       0.417000       1.00800           0
     26670 TIP3     784      TIP3     H2       HT       0.417000       1.00800           0
     26671 TIP3     785      TIP3     OH2      OT      -0.834000       15.9994           0
     26672 TIP3     785      TIP3     H1       HT       0.417000       1.00800           0
     26673 TIP3     785      TIP3     H2       HT       0.417000       1.00800           0
     26674 TIP3     786      TIP3     OH2      OT      -0.834000       15.9994           0
     26675 TIP3     786      TIP3     H1       HT       0.417000       1.00800           0
     26676 TIP3     786      TIP3     H2       HT       0.417000       1.00800           0
     26677 TIP3     787      TIP3     OH2      OT      -0.834000       15.9994           0
     26678 TIP3     787      TIP3     H1       HT       0.417000       1.00800           0
     26679 TIP3     787      TIP3     H2       HT       0.417000       1.00800           0
     26680 TIP3     788      TIP3     OH2      OT      -0.834000       15.9994           0
     26681 TIP3     788      TIP3     H1       HT       0.417000       1.00800           0
     26682 TIP3     788      TIP3     H2       HT       0.417000       1.00800           0
     26683 TIP3     789      TIP3     OH2      OT      -0.834000       15.9994           0
     26684 TIP3     789      TIP3     H1       HT       0.417000       1.00800           0
     26685 TIP3     789      TIP3     H2       HT       0.417000       1.00800           0
     26686 TIP3     790      TIP3     OH2      OT      -0.834000       15.9994           0
     26687 TIP3     790      TIP3     H1       HT       0.417000       1.00800           0
     26688 TIP3     790      TIP3     H2       HT       0.417000       1.00800           0
     26689 TIP3     791      TIP3     OH2      OT      -0.834000       15.9994           0
     26690 TIP3     791      TIP3     H1       HT       0.417000       1.00800           0
     26691 TIP3     791      TIP3     H2       HT       0.417000       1.00800           0
     26692 TIP3     792      TIP3     OH2      OT      -0.834000       15.9994           0
     26693 TIP3     792      TIP3     H1       HT       0.417000       1.00800           0
     26694 TIP3     792      TIP3     H2       HT       0.417000       1.00800           0
     26695 TIP3     793      TIP3     OH2      OT      -0.834000       15.9994           0
     26696 TIP3     793      TIP3     H1       HT       0.417000       1.00800           0
     26697 TIP3     793      TIP3     H2       HT       0.417000       1.00800           0
     26698 TIP3     794      TIP3     OH2      OT      -0.834000       15.9994           0
     26699 TIP3     794      TIP3     H1       HT       0.417000       1.00800           0
     26700 TIP3     794      TIP3     H2       HT       0.417000       1.00800           0
     26701 TIP3     795      TIP3     OH2      OT      -0.834000       15.9994           0
     26702 TIP3     795      TIP3     H1       HT       0.417000       1.00800           0
     26703 TIP3     795      TIP3     H2       HT       0.417000       1.00800           0
     26704 TIP3     796      TIP3     OH2      OT      -0.834000       15.9994           0
     26705 TIP3     796      TIP3     H1       HT       0.417000       1.00800           0
     26706 TIP3     796      TIP3     H2       HT       0.417000       1.00800           0
     26707 TIP3     797      TIP3     OH2      OT      -0.834000       15.9994           0
     26708 TIP3     797      TIP3     H1       HT       0.417000       1.00800           0
     26709 TIP3     797      TIP3     H2       HT       0.417000       1.00800           0
     26710 TIP3     798      TIP3     OH2      OT      -0.834000       15.9994           0
     26711 TIP3     798      TIP3     H1       HT       0.417000       1.00800           0
     26712 TIP3     798      TIP3     H2       HT       0.417000       1.00800           0
     26713 TIP3     799      TIP3     OH2      OT      -0.834000       15.9994           0
     26714 TIP3     799      TIP3     H1       HT       0.417000       1.00800           0
     26715 TIP3     799      TIP3     H2       HT       0.417000       1.00800           0
     26716 TIP3     800      TIP3     OH2      OT      -0.834000       15.9994           0
     26717 TIP3     800      TIP3     H1       HT       0.417000       1.00800           0
     26718 TIP3     800      TIP3     H2       HT       0.417000       1.00800           0
     26719 TIP3     801      TIP3     OH2      OT      -0.834000       15.9994           0
     26720 TIP3     801      TIP3     H1       HT       0.417000       1.00800           0
     26721 TIP3     801      TIP3     H2       HT       0.417000       1.00800           0
     26722 TIP3     802      TIP3     OH2      OT      -0.834000       15.9994           0
     26723 TIP3     802      TIP3     H1       HT       0.417000       1.00800           0
     26724 TIP3     802      TIP3     H2       HT       0.417000       1.00800           0
     26725 TIP3     803      TIP3     OH2      OT      -0.834000       15.9994           0
     26726 TIP3     803      TIP3     H1       HT       0.417000       1.00800           0
     26727 TIP3     803      TIP3     H2       HT       0.417000       1.00800           0
     26728 TIP3     804      TIP3     OH2      OT      -0.834000       15.9994           0
     26729 TIP3     804      TIP3     H1       HT       0.417000       1.00800           0
     26730 TIP3     804      TIP3     H2       HT       0.417000       1.00800           0
     26731 TIP3     805      TIP3     OH2      OT      -0.834000       15.9994           0
     26732 TIP3     805      TIP3     H1       HT       0.417000       1.00800           0
     26733 TIP3     805      TIP3     H2       HT       0.417000       1.00800           0
     26734 TIP3     806      TIP3     OH2      OT      -0.834000       15.9994           0
     26735 TIP3     806      TIP3     H1       HT       0.417000       1.00800           0
     26736 TIP3     806      TIP3     H2       HT       0.417000       1.00800           0
     26737 TIP3     807      TIP3     OH2      OT      -0.834000       15.9994           0
     26738 TIP3     807      TIP3     H1       HT       0.417000       1.00800           0
     26739 TIP3     807      TIP3     H2       HT       0.417000       1.00800           0
     26740 TIP3     808      TIP3     OH2      OT      -0.834000       15.9994           0
     26741 TIP3     808      TIP3     H1       HT       0.417000       1.00800           0
     26742 TIP3     808      TIP3     H2       HT       0.417000       1.00800           0
     26743 TIP3     809      TIP3     OH2      OT      -0.834000       15.9994           0
     26744 TIP3     809      TIP3     H1       HT       0.417000       1.00800           0
     26745 TIP3     809      TIP3     H2       HT       0.417000       1.00800           0
     26746 TIP3     810      TIP3     OH2      OT      -0.834000       15.9994           0
     26747 TIP3     810      TIP3     H1       HT       0.417000       1.00800           0
     26748 TIP3     810      TIP3     H2       HT       0.417000       1.00800           0
     26749 TIP3     811      TIP3     OH2      OT      -0.834000       15.9994           0
     26750 TIP3     811      TIP3     H1       HT       0.417000       1.00800           0
     26751 TIP3     811      TIP3     H2       HT       0.417000       1.00800           0
     26752 TIP3     812      TIP3     OH2      OT      -0.834000       15.9994           0
     26753 TIP3     812      TIP3     H1       HT       0.417000       1.00800           0
     26754 TIP3     812      TIP3     H2       HT       0.417000       1.00800           0
     26755 TIP3     813      TIP3     OH2      OT      -0.834000       15.9994           0
     26756 TIP3     813      TIP3     H1       HT       0.417000       1.00800           0
     26757 TIP3     813      TIP3     H2       HT       0.417000       1.00800           0
     26758 TIP3     814      TIP3     OH2      OT      -0.834000       15.9994           0
     26759 TIP3     814      TIP3     H1       HT       0.417000       1.00800           0
     26760 TIP3     814      TIP3     H2       HT       0.417000       1.00800           0
     26761 TIP3     815      TIP3     OH2      OT      -0.834000       15.9994           0
     26762 TIP3     815      TIP3     H1       HT       0.417000       1.00800           0
     26763 TIP3     815      TIP3     H2       HT       0.417000       1.00800           0
     26764 TIP3     816      TIP3     OH2      OT      -0.834000       15.9994           0
     26765 TIP3     816      TIP3     H1       HT       0.417000       1.00800           0
     26766 TIP3     816      TIP3     H2       HT       0.417000       1.00800           0
     26767 TIP3     817      TIP3     OH2      OT      -0.834000       15.9994           0
     26768 TIP3     817      TIP3     H1       HT       0.417000       1.00800           0
     26769 TIP3     817      TIP3     H2       HT       0.417000       1.00800           0
     26770 TIP3     818      TIP3     OH2      OT      -0.834000       15.9994           0
     26771 TIP3     818      TIP3     H1       HT       0.417000       1.00800           0
     26772 TIP3     818      TIP3     H2       HT       0.417000       1.00800           0
     26773 TIP3     819      TIP3     OH2      OT      -0.834000       15.9994           0
     26774 TIP3     819      TIP3     H1       HT       0.417000       1.00800           0
     26775 TIP3     819      TIP3     H2       HT       0.417000       1.00800           0
     26776 TIP3     820      TIP3     OH2      OT      -0.834000       15.9994           0
     26777 TIP3     820      TIP3     H1       HT       0.417000       1.00800           0
     26778 TIP3     820      TIP3     H2       HT       0.417000       1.00800           0
     26779 TIP3     821      TIP3     OH2      OT      -0.834000       15.9994           0
     26780 TIP3     821      TIP3     H1       HT       0.417000       1.00800           0
     26781 TIP3     821      TIP3     H2       HT       0.417000       1.00800           0
     26782 TIP3     822      TIP3     OH2      OT      -0.834000       15.9994           0
     26783 TIP3     822      TIP3     H1       HT       0.417000       1.00800           0
     26784 TIP3     822      TIP3     H2       HT       0.417000       1.00800           0
     26785 TIP3     823      TIP3     OH2      OT      -0.834000       15.9994           0
     26786 TIP3     823      TIP3     H1       HT       0.417000       1.00800           0
     26787 TIP3     823      TIP3     H2       HT       0.417000       1.00800           0
     26788 TIP3     824      TIP3     OH2      OT      -0.834000       15.9994           0
     26789 TIP3     824      TIP3     H1       HT       0.417000       1.00800           0
     26790 TIP3     824      TIP3     H2       HT       0.417000       1.00800           0
     26791 TIP3     825      TIP3     OH2      OT      -0.834000       15.9994           0
     26792 TIP3     825      TIP3     H1       HT       0.417000       1.00800           0
     26793 TIP3     825      TIP3     H2       HT       0.417000       1.00800           0
     26794 TIP3     826      TIP3     OH2      OT      -0.834000       15.9994           0
     26795 TIP3     826      TIP3     H1       HT       0.417000       1.00800           0
     26796 TIP3     826      TIP3     H2       HT       0.417000       1.00800           0
     26797 TIP3     827      TIP3     OH2      OT      -0.834000       15.9994           0
     26798 TIP3     827      TIP3     H1       HT       0.417000       1.00800           0
     26799 TIP3     827      TIP3     H2       HT       0.417000       1.00800           0
     26800 TIP3     828      TIP3     OH2      OT      -0.834000       15.9994           0
     26801 TIP3     828      TIP3     H1       HT       0.417000       1.00800           0
     26802 TIP3     828      TIP3     H2       HT       0.417000       1.00800           0
     26803 TIP3     829      TIP3     OH2      OT      -0.834000       15.9994           0
     26804 TIP3     829      TIP3     H1       HT       0.417000       1.00800           0
     26805 TIP3     829      TIP3     H2       HT       0.417000       1.00800           0
     26806 TIP3     830      TIP3     OH2      OT      -0.834000       15.9994           0
     26807 TIP3     830      TIP3     H1       HT       0.417000       1.00800           0
     26808 TIP3     830      TIP3     H2       HT       0.417000       1.00800           0
     26809 TIP3     831      TIP3     OH2      OT      -0.834000       15.9994           0
     26810 TIP3     831      TIP3     H1       HT       0.417000       1.00800           0
     26811 TIP3     831      TIP3     H2       HT       0.417000       1.00800           0
     26812 TIP3     832      TIP3     OH2      OT      -0.834000       15.9994           0
     26813 TIP3     832      TIP3     H1       HT       0.417000       1.00800           0
     26814 TIP3     832      TIP3     H2       HT       0.417000       1.00800           0
     26815 TIP3     833      TIP3     OH2      OT      -0.834000       15.9994           0
     26816 TIP3     833      TIP3     H1       HT       0.417000       1.00800           0
     26817 TIP3     833      TIP3     H2       HT       0.417000       1.00800           0
     26818 TIP3     834      TIP3     OH2      OT      -0.834000       15.9994           0
     26819 TIP3     834      TIP3     H1       HT       0.417000       1.00800           0
     26820 TIP3     834      TIP3     H2       HT       0.417000       1.00800           0
     26821 TIP3     835      TIP3     OH2      OT      -0.834000       15.9994           0
     26822 TIP3     835      TIP3     H1       HT       0.417000       1.00800           0
     26823 TIP3     835      TIP3     H2       HT       0.417000       1.00800           0
     26824 TIP3     836      TIP3     OH2      OT      -0.834000       15.9994           0
     26825 TIP3     836      TIP3     H1       HT       0.417000       1.00800           0
     26826 TIP3     836      TIP3     H2       HT       0.417000       1.00800           0
     26827 TIP3     837      TIP3     OH2      OT      -0.834000       15.9994           0
     26828 TIP3     837      TIP3     H1       HT       0.417000       1.00800           0
     26829 TIP3     837      TIP3     H2       HT       0.417000       1.00800           0
     26830 TIP3     838      TIP3     OH2      OT      -0.834000       15.9994           0
     26831 TIP3     838      TIP3     H1       HT       0.417000       1.00800           0
     26832 TIP3     838      TIP3     H2       HT       0.417000       1.00800           0
     26833 TIP3     839      TIP3     OH2      OT      -0.834000       15.9994           0
     26834 TIP3     839      TIP3     H1       HT       0.417000       1.00800           0
     26835 TIP3     839      TIP3     H2       HT       0.417000       1.00800           0
     26836 TIP3     840      TIP3     OH2      OT      -0.834000       15.9994           0
     26837 TIP3     840      TIP3     H1       HT       0.417000       1.00800           0
     26838 TIP3     840      TIP3     H2       HT       0.417000       1.00800           0
     26839 TIP3     841      TIP3     OH2      OT      -0.834000       15.9994           0
     26840 TIP3     841      TIP3     H1       HT       0.417000       1.00800           0
     26841 TIP3     841      TIP3     H2       HT       0.417000       1.00800           0
     26842 TIP3     842      TIP3     OH2      OT      -0.834000       15.9994           0
     26843 TIP3     842      TIP3     H1       HT       0.417000       1.00800           0
     26844 TIP3     842      TIP3     H2       HT       0.417000       1.00800           0
     26845 TIP3     843      TIP3     OH2      OT      -0.834000       15.9994           0
     26846 TIP3     843      TIP3     H1       HT       0.417000       1.00800           0
     26847 TIP3     843      TIP3     H2       HT       0.417000       1.00800           0
     26848 TIP3     844      TIP3     OH2      OT      -0.834000       15.9994           0
     26849 TIP3     844      TIP3     H1       HT       0.417000       1.00800           0
     26850 TIP3     844      TIP3     H2       HT       0.417000       1.00800           0
     26851 TIP3     845      TIP3     OH2      OT      -0.834000       15.9994           0
     26852 TIP3     845      TIP3     H1       HT       0.417000       1.00800           0
     26853 TIP3     845      TIP3     H2       HT       0.417000       1.00800           0
     26854 TIP3     846      TIP3     OH2      OT      -0.834000       15.9994           0
     26855 TIP3     846      TIP3     H1       HT       0.417000       1.00800           0
     26856 TIP3     846      TIP3     H2       HT       0.417000       1.00800           0
     26857 TIP3     847      TIP3     OH2      OT      -0.834000       15.9994           0
     26858 TIP3     847      TIP3     H1       HT       0.417000       1.00800           0
     26859 TIP3     847      TIP3     H2       HT       0.417000       1.00800           0
     26860 TIP3     848      TIP3     OH2      OT      -0.834000       15.9994           0
     26861 TIP3     848      TIP3     H1       HT       0.417000       1.00800           0
     26862 TIP3     848      TIP3     H2       HT       0.417000       1.00800           0
     26863 TIP3     849      TIP3     OH2      OT      -0.834000       15.9994           0
     26864 TIP3     849      TIP3     H1       HT       0.417000       1.00800           0
     26865 TIP3     849      TIP3     H2       HT       0.417000       1.00800           0
     26866 TIP3     850      TIP3     OH2      OT      -0.834000       15.9994           0
     26867 TIP3     850      TIP3     H1       HT       0.417000       1.00800           0
     26868 TIP3     850      TIP3     H2       HT       0.417000       1.00800           0
     26869 TIP3     851      TIP3     OH2      OT      -0.834000       15.9994           0
     26870 TIP3     851      TIP3     H1       HT       0.417000       1.00800           0
     26871 TIP3     851      TIP3     H2       HT       0.417000       1.00800           0
     26872 TIP3     852      TIP3     OH2      OT      -0.834000       15.9994           0
     26873 TIP3     852      TIP3     H1       HT       0.417000       1.00800           0
     26874 TIP3     852      TIP3     H2       HT       0.417000       1.00800           0
     26875 TIP3     853      TIP3     OH2      OT      -0.834000       15.9994           0
     26876 TIP3     853      TIP3     H1       HT       0.417000       1.00800           0
     26877 TIP3     853      TIP3     H2       HT       0.417000       1.00800           0
     26878 TIP3     854      TIP3     OH2      OT      -0.834000       15.9994           0
     26879 TIP3     854      TIP3     H1       HT       0.417000       1.00800           0
     26880 TIP3     854      TIP3     H2       HT       0.417000       1.00800           0
     26881 TIP3     855      TIP3     OH2      OT      -0.834000       15.9994           0
     26882 TIP3     855      TIP3     H1       HT       0.417000       1.00800           0
     26883 TIP3     855      TIP3     H2       HT       0.417000       1.00800           0
     26884 TIP3     856      TIP3     OH2      OT      -0.834000       15.9994           0
     26885 TIP3     856      TIP3     H1       HT       0.417000       1.00800           0
     26886 TIP3     856      TIP3     H2       HT       0.417000       1.00800           0
     26887 TIP3     857      TIP3     OH2      OT      -0.834000       15.9994           0
     26888 TIP3     857      TIP3     H1       HT       0.417000       1.00800           0
     26889 TIP3     857      TIP3     H2       HT       0.417000       1.00800           0
     26890 TIP3     858      TIP3     OH2      OT      -0.834000       15.9994           0
     26891 TIP3     858      TIP3     H1       HT       0.417000       1.00800           0
     26892 TIP3     858      TIP3     H2       HT       0.417000       1.00800           0
     26893 TIP3     859      TIP3     OH2      OT      -0.834000       15.9994           0
     26894 TIP3     859      TIP3     H1       HT       0.417000       1.00800           0
     26895 TIP3     859      TIP3     H2       HT       0.417000       1.00800           0
     26896 TIP3     860      TIP3     OH2      OT      -0.834000       15.9994           0
     26897 TIP3     860      TIP3     H1       HT       0.417000       1.00800           0
     26898 TIP3     860      TIP3     H2       HT       0.417000       1.00800           0
     26899 TIP3     861      TIP3     OH2      OT      -0.834000       15.9994           0
     26900 TIP3     861      TIP3     H1       HT       0.417000       1.00800           0
     26901 TIP3     861      TIP3     H2       HT       0.417000       1.00800           0
     26902 TIP3     862      TIP3     OH2      OT      -0.834000       15.9994           0
     26903 TIP3     862      TIP3     H1       HT       0.417000       1.00800           0
     26904 TIP3     862      TIP3     H2       HT       0.417000       1.00800           0
     26905 TIP3     863      TIP3     OH2      OT      -0.834000       15.9994           0
     26906 TIP3     863      TIP3     H1       HT       0.417000       1.00800           0
     26907 TIP3     863      TIP3     H2       HT       0.417000       1.00800           0
     26908 TIP3     864      TIP3     OH2      OT      -0.834000       15.9994           0
     26909 TIP3     864      TIP3     H1       HT       0.417000       1.00800           0
     26910 TIP3     864      TIP3     H2       HT       0.417000       1.00800           0
     26911 TIP3     865      TIP3     OH2      OT      -0.834000       15.9994           0
     26912 TIP3     865      TIP3     H1       HT       0.417000       1.00800           0
     26913 TIP3     865      TIP3     H2       HT       0.417000       1.00800           0
     26914 TIP3     866      TIP3     OH2      OT      -0.834000       15.9994           0
     26915 TIP3     866      TIP3     H1       HT       0.417000       1.00800           0
     26916 TIP3     866      TIP3     H2       HT       0.417000       1.00800           0
     26917 TIP3     867      TIP3     OH2      OT      -0.834000       15.9994           0
     26918 TIP3     867      TIP3     H1       HT       0.417000       1.00800           0
     26919 TIP3     867      TIP3     H2       HT       0.417000       1.00800           0
     26920 TIP3     868      TIP3     OH2      OT      -0.834000       15.9994           0
     26921 TIP3     868      TIP3     H1       HT       0.417000       1.00800           0
     26922 TIP3     868      TIP3     H2       HT       0.417000       1.00800           0
     26923 TIP3     869      TIP3     OH2      OT      -0.834000       15.9994           0
     26924 TIP3     869      TIP3     H1       HT       0.417000       1.00800           0
     26925 TIP3     869      TIP3     H2       HT       0.417000       1.00800           0
     26926 TIP3     870      TIP3     OH2      OT      -0.834000       15.9994           0
     26927 TIP3     870      TIP3     H1       HT       0.417000       1.00800           0
     26928 TIP3     870      TIP3     H2       HT       0.417000       1.00800           0
     26929 TIP3     871      TIP3     OH2      OT      -0.834000       15.9994           0
     26930 TIP3     871      TIP3     H1       HT       0.417000       1.00800           0
     26931 TIP3     871      TIP3     H2       HT       0.417000       1.00800           0
     26932 TIP3     872      TIP3     OH2      OT      -0.834000       15.9994           0
     26933 TIP3     872      TIP3     H1       HT       0.417000       1.00800           0
     26934 TIP3     872      TIP3     H2       HT       0.417000       1.00800           0
     26935 TIP3     873      TIP3     OH2      OT      -0.834000       15.9994           0
     26936 TIP3     873      TIP3     H1       HT       0.417000       1.00800           0
     26937 TIP3     873      TIP3     H2       HT       0.417000       1.00800           0
     26938 TIP3     874      TIP3     OH2      OT      -0.834000       15.9994           0
     26939 TIP3     874      TIP3     H1       HT       0.417000       1.00800           0
     26940 TIP3     874      TIP3     H2       HT       0.417000       1.00800           0
     26941 TIP3     875      TIP3     OH2      OT      -0.834000       15.9994           0
     26942 TIP3     875      TIP3     H1       HT       0.417000       1.00800           0
     26943 TIP3     875      TIP3     H2       HT       0.417000       1.00800           0
     26944 TIP3     876      TIP3     OH2      OT      -0.834000       15.9994           0
     26945 TIP3     876      TIP3     H1       HT       0.417000       1.00800           0
     26946 TIP3     876      TIP3     H2       HT       0.417000       1.00800           0
     26947 TIP3     877      TIP3     OH2      OT      -0.834000       15.9994           0
     26948 TIP3     877      TIP3     H1       HT       0.417000       1.00800           0
     26949 TIP3     877      TIP3     H2       HT       0.417000       1.00800           0
     26950 TIP3     878      TIP3     OH2      OT      -0.834000       15.9994           0
     26951 TIP3     878      TIP3     H1       HT       0.417000       1.00800           0
     26952 TIP3     878      TIP3     H2       HT       0.417000       1.00800           0
     26953 TIP3     879      TIP3     OH2      OT      -0.834000       15.9994           0
     26954 TIP3     879      TIP3     H1       HT       0.417000       1.00800           0
     26955 TIP3     879      TIP3     H2       HT       0.417000       1.00800           0
     26956 TIP3     880      TIP3     OH2      OT      -0.834000       15.9994           0
     26957 TIP3     880      TIP3     H1       HT       0.417000       1.00800           0
     26958 TIP3     880      TIP3     H2       HT       0.417000       1.00800           0
     26959 TIP3     881      TIP3     OH2      OT      -0.834000       15.9994           0
     26960 TIP3     881      TIP3     H1       HT       0.417000       1.00800           0
     26961 TIP3     881      TIP3     H2       HT       0.417000       1.00800           0
     26962 TIP3     882      TIP3     OH2      OT      -0.834000       15.9994           0
     26963 TIP3     882      TIP3     H1       HT       0.417000       1.00800           0
     26964 TIP3     882      TIP3     H2       HT       0.417000       1.00800           0
     26965 TIP3     883      TIP3     OH2      OT      -0.834000       15.9994           0
     26966 TIP3     883      TIP3     H1       HT       0.417000       1.00800           0
     26967 TIP3     883      TIP3     H2       HT       0.417000       1.00800           0
     26968 TIP3     884      TIP3     OH2      OT      -0.834000       15.9994           0
     26969 TIP3     884      TIP3     H1       HT       0.417000       1.00800           0
     26970 TIP3     884      TIP3     H2       HT       0.417000       1.00800           0
     26971 TIP3     885      TIP3     OH2      OT      -0.834000       15.9994           0
     26972 TIP3     885      TIP3     H1       HT       0.417000       1.00800           0
     26973 TIP3     885      TIP3     H2       HT       0.417000       1.00800           0
     26974 TIP3     886      TIP3     OH2      OT      -0.834000       15.9994           0
     26975 TIP3     886      TIP3     H1       HT       0.417000       1.00800           0
     26976 TIP3     886      TIP3     H2       HT       0.417000       1.00800           0
     26977 TIP3     887      TIP3     OH2      OT      -0.834000       15.9994           0
     26978 TIP3     887      TIP3     H1       HT       0.417000       1.00800           0
     26979 TIP3     887      TIP3     H2       HT       0.417000       1.00800           0
     26980 TIP3     888      TIP3     OH2      OT      -0.834000       15.9994           0
     26981 TIP3     888      TIP3     H1       HT       0.417000       1.00800           0
     26982 TIP3     888      TIP3     H2       HT       0.417000       1.00800           0
     26983 TIP3     889      TIP3     OH2      OT      -0.834000       15.9994           0
     26984 TIP3     889      TIP3     H1       HT       0.417000       1.00800           0
     26985 TIP3     889      TIP3     H2       HT       0.417000       1.00800           0
     26986 TIP3     890      TIP3     OH2      OT      -0.834000       15.9994           0
     26987 TIP3     890      TIP3     H1       HT       0.417000       1.00800           0
     26988 TIP3     890      TIP3     H2       HT       0.417000       1.00800           0
     26989 TIP3     891      TIP3     OH2      OT      -0.834000       15.9994           0
     26990 TIP3     891      TIP3     H1       HT       0.417000       1.00800           0
     26991 TIP3     891      TIP3     H2       HT       0.417000       1.00800           0
     26992 TIP3     892      TIP3     OH2      OT      -0.834000       15.9994           0
     26993 TIP3     892      TIP3     H1       HT       0.417000       1.00800           0
     26994 TIP3     892      TIP3     H2       HT       0.417000       1.00800           0
     26995 TIP3     893      TIP3     OH2      OT      -0.834000       15.9994           0
     26996 TIP3     893      TIP3     H1       HT       0.417000       1.00800           0
     26997 TIP3     893      TIP3     H2       HT       0.417000       1.00800           0
     26998 TIP3     894      TIP3     OH2      OT      -0.834000       15.9994           0
     26999 TIP3     894      TIP3     H1       HT       0.417000       1.00800           0
     27000 TIP3     894      TIP3     H2       HT       0.417000       1.00800           0
     27001 TIP3     895      TIP3     OH2      OT      -0.834000       15.9994           0
     27002 TIP3     895      TIP3     H1       HT       0.417000       1.00800           0
     27003 TIP3     895      TIP3     H2       HT       0.417000       1.00800           0
     27004 TIP3     896      TIP3     OH2      OT      -0.834000       15.9994           0
     27005 TIP3     896      TIP3     H1       HT       0.417000       1.00800           0
     27006 TIP3     896      TIP3     H2       HT       0.417000       1.00800           0
     27007 TIP3     897      TIP3     OH2      OT      -0.834000       15.9994           0
     27008 TIP3     897      TIP3     H1       HT       0.417000       1.00800           0
     27009 TIP3     897      TIP3     H2       HT       0.417000       1.00800           0
     27010 TIP3     898      TIP3     OH2      OT      -0.834000       15.9994           0
     27011 TIP3     898      TIP3     H1       HT       0.417000       1.00800           0
     27012 TIP3     898      TIP3     H2       HT       0.417000       1.00800           0
     27013 TIP3     899      TIP3     OH2      OT      -0.834000       15.9994           0
     27014 TIP3     899      TIP3     H1       HT       0.417000       1.00800           0
     27015 TIP3     899      TIP3     H2       HT       0.417000       1.00800           0
     27016 TIP3     900      TIP3     OH2      OT      -0.834000       15.9994           0
     27017 TIP3     900      TIP3     H1       HT       0.417000       1.00800           0
     27018 TIP3     900      TIP3     H2       HT       0.417000       1.00800           0
     27019 TIP3     901      TIP3     OH2      OT      -0.834000       15.9994           0
     27020 TIP3     901      TIP3     H1       HT       0.417000       1.00800           0
     27021 TIP3     901      TIP3     H2       HT       0.417000       1.00800           0
     27022 TIP3     902      TIP3     OH2      OT      -0.834000       15.9994           0
     27023 TIP3     902      TIP3     H1       HT       0.417000       1.00800           0
     27024 TIP3     902      TIP3     H2       HT       0.417000       1.00800           0
     27025 TIP3     903      TIP3     OH2      OT      -0.834000       15.9994           0
     27026 TIP3     903      TIP3     H1       HT       0.417000       1.00800           0
     27027 TIP3     903      TIP3     H2       HT       0.417000       1.00800           0
     27028 TIP3     904      TIP3     OH2      OT      -0.834000       15.9994           0
     27029 TIP3     904      TIP3     H1       HT       0.417000       1.00800           0
     27030 TIP3     904      TIP3     H2       HT       0.417000       1.00800           0
     27031 TIP3     905      TIP3     OH2      OT      -0.834000       15.9994           0
     27032 TIP3     905      TIP3     H1       HT       0.417000       1.00800           0
     27033 TIP3     905      TIP3     H2       HT       0.417000       1.00800           0
     27034 TIP3     906      TIP3     OH2      OT      -0.834000       15.9994           0
     27035 TIP3     906      TIP3     H1       HT       0.417000       1.00800           0
     27036 TIP3     906      TIP3     H2       HT       0.417000       1.00800           0
     27037 TIP3     907      TIP3     OH2      OT      -0.834000       15.9994           0
     27038 TIP3     907      TIP3     H1       HT       0.417000       1.00800           0
     27039 TIP3     907      TIP3     H2       HT       0.417000       1.00800           0
     27040 TIP3     908      TIP3     OH2      OT      -0.834000       15.9994           0
     27041 TIP3     908      TIP3     H1       HT       0.417000       1.00800           0
     27042 TIP3     908      TIP3     H2       HT       0.417000       1.00800           0
     27043 TIP3     909      TIP3     OH2      OT      -0.834000       15.9994           0
     27044 TIP3     909      TIP3     H1       HT       0.417000       1.00800           0
     27045 TIP3     909      TIP3     H2       HT       0.417000       1.00800           0
     27046 TIP3     910      TIP3     OH2      OT      -0.834000       15.9994           0
     27047 TIP3     910      TIP3     H1       HT       0.417000       1.00800           0
     27048 TIP3     910      TIP3     H2       HT       0.417000       1.00800           0
     27049 TIP3     911      TIP3     OH2      OT      -0.834000       15.9994           0
     27050 TIP3     911      TIP3     H1       HT       0.417000       1.00800           0
     27051 TIP3     911      TIP3     H2       HT       0.417000       1.00800           0
     27052 TIP3     912      TIP3     OH2      OT      -0.834000       15.9994           0
     27053 TIP3     912      TIP3     H1       HT       0.417000       1.00800           0
     27054 TIP3     912      TIP3     H2       HT       0.417000       1.00800           0
     27055 TIP3     913      TIP3     OH2      OT      -0.834000       15.9994           0
     27056 TIP3     913      TIP3     H1       HT       0.417000       1.00800           0
     27057 TIP3     913      TIP3     H2       HT       0.417000       1.00800           0
     27058 TIP3     914      TIP3     OH2      OT      -0.834000       15.9994           0
     27059 TIP3     914      TIP3     H1       HT       0.417000       1.00800           0
     27060 TIP3     914      TIP3     H2       HT       0.417000       1.00800           0
     27061 TIP3     915      TIP3     OH2      OT      -0.834000       15.9994           0
     27062 TIP3     915      TIP3     H1       HT       0.417000       1.00800           0
     27063 TIP3     915      TIP3     H2       HT       0.417000       1.00800           0
     27064 TIP3     916      TIP3     OH2      OT      -0.834000       15.9994           0
     27065 TIP3     916      TIP3     H1       HT       0.417000       1.00800           0
     27066 TIP3     916      TIP3     H2       HT       0.417000       1.00800           0
     27067 TIP3     917      TIP3     OH2      OT      -0.834000       15.9994           0
     27068 TIP3     917      TIP3     H1       HT       0.417000       1.00800           0
     27069 TIP3     917      TIP3     H2       HT       0.417000       1.00800           0
     27070 TIP3     918      TIP3     OH2      OT      -0.834000       15.9994           0
     27071 TIP3     918      TIP3     H1       HT       0.417000       1.00800           0
     27072 TIP3     918      TIP3     H2       HT       0.417000       1.00800           0
     27073 TIP3     919      TIP3     OH2      OT      -0.834000       15.9994           0
     27074 TIP3     919      TIP3     H1       HT       0.417000       1.00800           0
     27075 TIP3     919      TIP3     H2       HT       0.417000       1.00800           0
     27076 TIP3     920      TIP3     OH2      OT      -0.834000       15.9994           0
     27077 TIP3     920      TIP3     H1       HT       0.417000       1.00800           0
     27078 TIP3     920      TIP3     H2       HT       0.417000       1.00800           0
     27079 TIP3     921      TIP3     OH2      OT      -0.834000       15.9994           0
     27080 TIP3     921      TIP3     H1       HT       0.417000       1.00800           0
     27081 TIP3     921      TIP3     H2       HT       0.417000       1.00800           0
     27082 TIP3     922      TIP3     OH2      OT      -0.834000       15.9994           0
     27083 TIP3     922      TIP3     H1       HT       0.417000       1.00800           0
     27084 TIP3     922      TIP3     H2       HT       0.417000       1.00800           0
     27085 TIP3     923      TIP3     OH2      OT      -0.834000       15.9994           0
     27086 TIP3     923      TIP3     H1       HT       0.417000       1.00800           0
     27087 TIP3     923      TIP3     H2       HT       0.417000       1.00800           0
     27088 TIP3     924      TIP3     OH2      OT      -0.834000       15.9994           0
     27089 TIP3     924      TIP3     H1       HT       0.417000       1.00800           0
     27090 TIP3     924      TIP3     H2       HT       0.417000       1.00800           0
     27091 TIP3     925      TIP3     OH2      OT      -0.834000       15.9994           0
     27092 TIP3     925      TIP3     H1       HT       0.417000       1.00800           0
     27093 TIP3     925      TIP3     H2       HT       0.417000       1.00800           0
     27094 TIP3     926      TIP3     OH2      OT      -0.834000       15.9994           0
     27095 TIP3     926      TIP3     H1       HT       0.417000       1.00800           0
     27096 TIP3     926      TIP3     H2       HT       0.417000       1.00800           0
     27097 TIP3     927      TIP3     OH2      OT      -0.834000       15.9994           0
     27098 TIP3     927      TIP3     H1       HT       0.417000       1.00800           0
     27099 TIP3     927      TIP3     H2       HT       0.417000       1.00800           0
     27100 TIP3     928      TIP3     OH2      OT      -0.834000       15.9994           0
     27101 TIP3     928      TIP3     H1       HT       0.417000       1.00800           0
     27102 TIP3     928      TIP3     H2       HT       0.417000       1.00800           0
     27103 TIP3     929      TIP3     OH2      OT      -0.834000       15.9994           0
     27104 TIP3     929      TIP3     H1       HT       0.417000       1.00800           0
     27105 TIP3     929      TIP3     H2       HT       0.417000       1.00800           0
     27106 TIP3     930      TIP3     OH2      OT      -0.834000       15.9994           0
     27107 TIP3     930      TIP3     H1       HT       0.417000       1.00800           0
     27108 TIP3     930      TIP3     H2       HT       0.417000       1.00800           0
     27109 TIP3     931      TIP3     OH2      OT      -0.834000       15.9994           0
     27110 TIP3     931      TIP3     H1       HT       0.417000       1.00800           0
     27111 TIP3     931      TIP3     H2       HT       0.417000       1.00800           0
     27112 TIP3     932      TIP3     OH2      OT      -0.834000       15.9994           0
     27113 TIP3     932      TIP3     H1       HT       0.417000       1.00800           0
     27114 TIP3     932      TIP3     H2       HT       0.417000       1.00800           0
     27115 TIP3     933      TIP3     OH2      OT      -0.834000       15.9994           0
     27116 TIP3     933      TIP3     H1       HT       0.417000       1.00800           0
     27117 TIP3     933      TIP3     H2       HT       0.417000       1.00800           0
     27118 TIP3     934      TIP3     OH2      OT      -0.834000       15.9994           0
     27119 TIP3     934      TIP3     H1       HT       0.417000       1.00800           0
     27120 TIP3     934      TIP3     H2       HT       0.417000       1.00800           0
     27121 TIP3     935      TIP3     OH2      OT      -0.834000       15.9994           0
     27122 TIP3     935      TIP3     H1       HT       0.417000       1.00800           0
     27123 TIP3     935      TIP3     H2       HT       0.417000       1.00800           0
     27124 TIP3     936      TIP3     OH2      OT      -0.834000       15.9994           0
     27125 TIP3     936      TIP3     H1       HT       0.417000       1.00800           0
     27126 TIP3     936      TIP3     H2       HT       0.417000       1.00800           0
     27127 TIP3     937      TIP3     OH2      OT      -0.834000       15.9994           0
     27128 TIP3     937      TIP3     H1       HT       0.417000       1.00800           0
     27129 TIP3     937      TIP3     H2       HT       0.417000       1.00800           0
     27130 TIP3     938      TIP3     OH2      OT      -0.834000       15.9994           0
     27131 TIP3     938      TIP3     H1       HT       0.417000       1.00800           0
     27132 TIP3     938      TIP3     H2       HT       0.417000       1.00800           0
     27133 TIP3     939      TIP3     OH2      OT      -0.834000       15.9994           0
     27134 TIP3     939      TIP3     H1       HT       0.417000       1.00800           0
     27135 TIP3     939      TIP3     H2       HT       0.417000       1.00800           0
     27136 TIP3     940      TIP3     OH2      OT      -0.834000       15.9994           0
     27137 TIP3     940      TIP3     H1       HT       0.417000       1.00800           0
     27138 TIP3     940      TIP3     H2       HT       0.417000       1.00800           0
     27139 TIP3     941      TIP3     OH2      OT      -0.834000       15.9994           0
     27140 TIP3     941      TIP3     H1       HT       0.417000       1.00800           0
     27141 TIP3     941      TIP3     H2       HT       0.417000       1.00800           0
     27142 TIP3     942      TIP3     OH2      OT      -0.834000       15.9994           0
     27143 TIP3     942      TIP3     H1       HT       0.417000       1.00800           0
     27144 TIP3     942      TIP3     H2       HT       0.417000       1.00800           0
     27145 TIP3     943      TIP3     OH2      OT      -0.834000       15.9994           0
     27146 TIP3     943      TIP3     H1       HT       0.417000       1.00800           0
     27147 TIP3     943      TIP3     H2       HT       0.417000       1.00800           0
     27148 TIP3     944      TIP3     OH2      OT      -0.834000       15.9994           0
     27149 TIP3     944      TIP3     H1       HT       0.417000       1.00800           0
     27150 TIP3     944      TIP3     H2       HT       0.417000       1.00800           0
     27151 TIP3     945      TIP3     OH2      OT      -0.834000       15.9994           0
     27152 TIP3     945      TIP3     H1       HT       0.417000       1.00800           0
     27153 TIP3     945      TIP3     H2       HT       0.417000       1.00800           0
     27154 TIP3     946      TIP3     OH2      OT      -0.834000       15.9994           0
     27155 TIP3     946      TIP3     H1       HT       0.417000       1.00800           0
     27156 TIP3     946      TIP3     H2       HT       0.417000       1.00800           0
     27157 TIP3     947      TIP3     OH2      OT      -0.834000       15.9994           0
     27158 TIP3     947      TIP3     H1       HT       0.417000       1.00800           0
     27159 TIP3     947      TIP3     H2       HT       0.417000       1.00800           0
     27160 TIP3     948      TIP3     OH2      OT      -0.834000       15.9994           0
     27161 TIP3     948      TIP3     H1       HT       0.417000       1.00800           0
     27162 TIP3     948      TIP3     H2       HT       0.417000       1.00800           0
     27163 TIP3     949      TIP3     OH2      OT      -0.834000       15.9994           0
     27164 TIP3     949      TIP3     H1       HT       0.417000       1.00800           0
     27165 TIP3     949      TIP3     H2       HT       0.417000       1.00800           0
     27166 TIP3     950      TIP3     OH2      OT      -0.834000       15.9994           0
     27167 TIP3     950      TIP3     H1       HT       0.417000       1.00800           0
     27168 TIP3     950      TIP3     H2       HT       0.417000       1.00800           0
     27169 TIP3     951      TIP3     OH2      OT      -0.834000       15.9994           0
     27170 TIP3     951      TIP3     H1       HT       0.417000       1.00800           0
     27171 TIP3     951      TIP3     H2       HT       0.417000       1.00800           0
     27172 TIP3     952      TIP3     OH2      OT      -0.834000       15.9994           0
     27173 TIP3     952      TIP3     H1       HT       0.417000       1.00800           0
     27174 TIP3     952      TIP3     H2       HT       0.417000       1.00800           0
     27175 TIP3     953      TIP3     OH2      OT      -0.834000       15.9994           0
     27176 TIP3     953      TIP3     H1       HT       0.417000       1.00800           0
     27177 TIP3     953      TIP3     H2       HT       0.417000       1.00800           0
     27178 TIP3     954      TIP3     OH2      OT      -0.834000       15.9994           0
     27179 TIP3     954      TIP3     H1       HT       0.417000       1.00800           0
     27180 TIP3     954      TIP3     H2       HT       0.417000       1.00800           0
     27181 TIP3     955      TIP3     OH2      OT      -0.834000       15.9994           0
     27182 TIP3     955      TIP3     H1       HT       0.417000       1.00800           0
     27183 TIP3     955      TIP3     H2       HT       0.417000       1.00800           0
     27184 TIP3     956      TIP3     OH2      OT      -0.834000       15.9994           0
     27185 TIP3     956      TIP3     H1       HT       0.417000       1.00800           0
     27186 TIP3     956      TIP3     H2       HT       0.417000       1.00800           0
     27187 TIP3     957      TIP3     OH2      OT      -0.834000       15.9994           0
     27188 TIP3     957      TIP3     H1       HT       0.417000       1.00800           0
     27189 TIP3     957      TIP3     H2       HT       0.417000       1.00800           0
     27190 TIP3     958      TIP3     OH2      OT      -0.834000       15.9994           0
     27191 TIP3     958      TIP3     H1       HT       0.417000       1.00800           0
     27192 TIP3     958      TIP3     H2       HT       0.417000       1.00800           0
     27193 TIP3     959      TIP3     OH2      OT      -0.834000       15.9994           0
     27194 TIP3     959      TIP3     H1       HT       0.417000       1.00800           0
     27195 TIP3     959      TIP3     H2       HT       0.417000       1.00800           0
     27196 TIP3     960      TIP3     OH2      OT      -0.834000       15.9994           0
     27197 TIP3     960      TIP3     H1       HT       0.417000       1.00800           0
     27198 TIP3     960      TIP3     H2       HT       0.417000       1.00800           0
     27199 TIP3     961      TIP3     OH2      OT      -0.834000       15.9994           0
     27200 TIP3     961      TIP3     H1       HT       0.417000       1.00800           0
     27201 TIP3     961      TIP3     H2       HT       0.417000       1.00800           0
     27202 TIP3     962      TIP3     OH2      OT      -0.834000       15.9994           0
     27203 TIP3     962      TIP3     H1       HT       0.417000       1.00800           0
     27204 TIP3     962      TIP3     H2       HT       0.417000       1.00800           0
     27205 TIP3     963      TIP3     OH2      OT      -0.834000       15.9994           0
     27206 TIP3     963      TIP3     H1       HT       0.417000       1.00800           0
     27207 TIP3     963      TIP3     H2       HT       0.417000       1.00800           0
     27208 TIP3     964      TIP3     OH2      OT      -0.834000       15.9994           0
     27209 TIP3     964      TIP3     H1       HT       0.417000       1.00800           0
     27210 TIP3     964      TIP3     H2       HT       0.417000       1.00800           0
     27211 TIP3     965      TIP3     OH2      OT      -0.834000       15.9994           0
     27212 TIP3     965      TIP3     H1       HT       0.417000       1.00800           0
     27213 TIP3     965      TIP3     H2       HT       0.417000       1.00800           0
     27214 TIP3     966      TIP3     OH2      OT      -0.834000       15.9994           0
     27215 TIP3     966      TIP3     H1       HT       0.417000       1.00800           0
     27216 TIP3     966      TIP3     H2       HT       0.417000       1.00800           0
     27217 TIP3     967      TIP3     OH2      OT      -0.834000       15.9994           0
     27218 TIP3     967      TIP3     H1       HT       0.417000       1.00800           0
     27219 TIP3     967      TIP3     H2       HT       0.417000       1.00800           0
     27220 TIP3     968      TIP3     OH2      OT      -0.834000       15.9994           0
     27221 TIP3     968      TIP3     H1       HT       0.417000       1.00800           0
     27222 TIP3     968      TIP3     H2       HT       0.417000       1.00800           0
     27223 TIP3     969      TIP3     OH2      OT      -0.834000       15.9994           0
     27224 TIP3     969      TIP3     H1       HT       0.417000       1.00800           0
     27225 TIP3     969      TIP3     H2       HT       0.417000       1.00800           0
     27226 TIP3     970      TIP3     OH2      OT      -0.834000       15.9994           0
     27227 TIP3     970      TIP3     H1       HT       0.417000       1.00800           0
     27228 TIP3     970      TIP3     H2       HT       0.417000       1.00800           0
     27229 TIP3     971      TIP3     OH2      OT      -0.834000       15.9994           0
     27230 TIP3     971      TIP3     H1       HT       0.417000       1.00800           0
     27231 TIP3     971      TIP3     H2       HT       0.417000       1.00800           0
     27232 TIP3     972      TIP3     OH2      OT      -0.834000       15.9994           0
     27233 TIP3     972      TIP3     H1       HT       0.417000       1.00800           0
     27234 TIP3     972      TIP3     H2       HT       0.417000       1.00800           0
     27235 TIP3     973      TIP3     OH2      OT      -0.834000       15.9994           0
     27236 TIP3     973      TIP3     H1       HT       0.417000       1.00800           0
     27237 TIP3     973      TIP3     H2       HT       0.417000       1.00800           0
     27238 TIP3     974      TIP3     OH2      OT      -0.834000       15.9994           0
     27239 TIP3     974      TIP3     H1       HT       0.417000       1.00800           0
     27240 TIP3     974      TIP3     H2       HT       0.417000       1.00800           0
     27241 TIP3     975      TIP3     OH2      OT      -0.834000       15.9994           0
     27242 TIP3     975      TIP3     H1       HT       0.417000       1.00800           0
     27243 TIP3     975      TIP3     H2       HT       0.417000       1.00800           0
     27244 TIP3     976      TIP3     OH2      OT      -0.834000       15.9994           0
     27245 TIP3     976      TIP3     H1       HT       0.417000       1.00800           0
     27246 TIP3     976      TIP3     H2       HT       0.417000       1.00800           0
     27247 TIP3     977      TIP3     OH2      OT      -0.834000       15.9994           0
     27248 TIP3     977      TIP3     H1       HT       0.417000       1.00800           0
     27249 TIP3     977      TIP3     H2       HT       0.417000       1.00800           0
     27250 TIP3     978      TIP3     OH2      OT      -0.834000       15.9994           0
     27251 TIP3     978      TIP3     H1       HT       0.417000       1.00800           0
     27252 TIP3     978      TIP3     H2       HT       0.417000       1.00800           0
     27253 TIP3     979      TIP3     OH2      OT      -0.834000       15.9994           0
     27254 TIP3     979      TIP3     H1       HT       0.417000       1.00800           0
     27255 TIP3     979      TIP3     H2       HT       0.417000       1.00800           0
     27256 TIP3     980      TIP3     OH2      OT      -0.834000       15.9994           0
     27257 TIP3     980      TIP3     H1       HT       0.417000       1.00800           0
     27258 TIP3     980      TIP3     H2       HT       0.417000       1.00800           0
     27259 TIP3     981      TIP3     OH2      OT      -0.834000       15.9994           0
     27260 TIP3     981      TIP3     H1       HT       0.417000       1.00800           0
     27261 TIP3     981      TIP3     H2       HT       0.417000       1.00800           0
     27262 TIP3     982      TIP3     OH2      OT      -0.834000       15.9994           0
     27263 TIP3     982      TIP3     H1       HT       0.417000       1.00800           0
     27264 TIP3     982      TIP3     H2       HT       0.417000       1.00800           0
     27265 TIP3     983      TIP3     OH2      OT      -0.834000       15.9994           0
     27266 TIP3     983      TIP3     H1       HT       0.417000       1.00800           0
     27267 TIP3     983      TIP3     H2       HT       0.417000       1.00800           0
     27268 TIP3     984      TIP3     OH2      OT      -0.834000       15.9994           0
     27269 TIP3     984      TIP3     H1       HT       0.417000       1.00800           0
     27270 TIP3     984      TIP3     H2       HT       0.417000       1.00800           0
     27271 TIP3     985      TIP3     OH2      OT      -0.834000       15.9994           0
     27272 TIP3     985      TIP3     H1       HT       0.417000       1.00800           0
     27273 TIP3     985      TIP3     H2       HT       0.417000       1.00800           0
     27274 TIP3     986      TIP3     OH2      OT      -0.834000       15.9994           0
     27275 TIP3     986      TIP3     H1       HT       0.417000       1.00800           0
     27276 TIP3     986      TIP3     H2       HT       0.417000       1.00800           0
     27277 TIP3     987      TIP3     OH2      OT      -0.834000       15.9994           0
     27278 TIP3     987      TIP3     H1       HT       0.417000       1.00800           0
     27279 TIP3     987      TIP3     H2       HT       0.417000       1.00800           0
     27280 TIP3     988      TIP3     OH2      OT      -0.834000       15.9994           0
     27281 TIP3     988      TIP3     H1       HT       0.417000       1.00800           0
     27282 TIP3     988      TIP3     H2       HT       0.417000       1.00800           0
     27283 TIP3     989      TIP3     OH2      OT      -0.834000       15.9994           0
     27284 TIP3     989      TIP3     H1       HT       0.417000       1.00800           0
     27285 TIP3     989      TIP3     H2       HT       0.417000       1.00800           0
     27286 TIP3     990      TIP3     OH2      OT      -0.834000       15.9994           0
     27287 TIP3     990      TIP3     H1       HT       0.417000       1.00800           0
     27288 TIP3     990      TIP3     H2       HT       0.417000       1.00800           0
     27289 TIP3     991      TIP3     OH2      OT      -0.834000       15.9994           0
     27290 TIP3     991      TIP3     H1       HT       0.417000       1.00800           0
     27291 TIP3     991      TIP3     H2       HT       0.417000       1.00800           0
     27292 TIP3     992      TIP3     OH2      OT      -0.834000       15.9994           0
     27293 TIP3     992      TIP3     H1       HT       0.417000       1.00800           0
     27294 TIP3     992      TIP3     H2       HT       0.417000       1.00800           0
     27295 TIP3     993      TIP3     OH2      OT      -0.834000       15.9994           0
     27296 TIP3     993      TIP3     H1       HT       0.417000       1.00800           0
     27297 TIP3     993      TIP3     H2       HT       0.417000       1.00800           0
     27298 TIP3     994      TIP3     OH2      OT      -0.834000       15.9994           0
     27299 TIP3     994      TIP3     H1       HT       0.417000       1.00800           0
     27300 TIP3     994      TIP3     H2       HT       0.417000       1.00800           0
     27301 TIP3     995      TIP3     OH2      OT      -0.834000       15.9994           0
     27302 TIP3     995      TIP3     H1       HT       0.417000       1.00800           0
     27303 TIP3     995      TIP3     H2       HT       0.417000       1.00800           0
     27304 TIP3     996      TIP3     OH2      OT      -0.834000       15.9994           0
     27305 TIP3     996      TIP3     H1       HT       0.417000       1.00800           0
     27306 TIP3     996      TIP3     H2       HT       0.417000       1.00800           0
     27307 TIP3     997      TIP3     OH2      OT      -0.834000       15.9994           0
     27308 TIP3     997      TIP3     H1       HT       0.417000       1.00800           0
     27309 TIP3     997      TIP3     H2       HT       0.417000       1.00800           0
     27310 TIP3     998      TIP3     OH2      OT      -0.834000       15.9994           0
     27311 TIP3     998      TIP3     H1       HT       0.417000       1.00800           0
     27312 TIP3     998      TIP3     H2       HT       0.417000       1.00800           0
     27313 TIP3     999      TIP3     OH2      OT      -0.834000       15.9994           0
     27314 TIP3     999      TIP3     H1       HT       0.417000       1.00800           0
     27315 TIP3     999      TIP3     H2       HT       0.417000       1.00800           0
     27316 TIP3     1000     TIP3     OH2      OT      -0.834000       15.9994           0
     27317 TIP3     1000     TIP3     H1       HT       0.417000       1.00800           0
     27318 TIP3     1000     TIP3     H2       HT       0.417000       1.00800           0
     27319 TIP3     1001     TIP3     OH2      OT      -0.834000       15.9994           0
     27320 TIP3     1001     TIP3     H1       HT       0.417000       1.00800           0
     27321 TIP3     1001     TIP3     H2       HT       0.417000       1.00800           0
     27322 TIP3     1002     TIP3     OH2      OT      -0.834000       15.9994           0
     27323 TIP3     1002     TIP3     H1       HT       0.417000       1.00800           0
     27324 TIP3     1002     TIP3     H2       HT       0.417000       1.00800           0
     27325 TIP3     1003     TIP3     OH2      OT      -0.834000       15.9994           0
     27326 TIP3     1003     TIP3     H1       HT       0.417000       1.00800           0
     27327 TIP3     1003     TIP3     H2       HT       0.417000       1.00800           0
     27328 TIP3     1004     TIP3     OH2      OT      -0.834000       15.9994           0
     27329 TIP3     1004     TIP3     H1       HT       0.417000       1.00800           0
     27330 TIP3     1004     TIP3     H2       HT       0.417000       1.00800           0
     27331 TIP3     1005     TIP3     OH2      OT      -0.834000       15.9994           0
     27332 TIP3     1005     TIP3     H1       HT       0.417000       1.00800           0
     27333 TIP3     1005     TIP3     H2       HT       0.417000       1.00800           0
     27334 TIP3     1006     TIP3     OH2      OT      -0.834000       15.9994           0
     27335 TIP3     1006     TIP3     H1       HT       0.417000       1.00800           0
     27336 TIP3     1006     TIP3     H2       HT       0.417000       1.00800           0
     27337 TIP3     1007     TIP3     OH2      OT      -0.834000       15.9994           0
     27338 TIP3     1007     TIP3     H1       HT       0.417000       1.00800           0
     27339 TIP3     1007     TIP3     H2       HT       0.417000       1.00800           0
     27340 TIP3     1008     TIP3     OH2      OT      -0.834000       15.9994           0
     27341 TIP3     1008     TIP3     H1       HT       0.417000       1.00800           0
     27342 TIP3     1008     TIP3     H2       HT       0.417000       1.00800           0
     27343 TIP3     1009     TIP3     OH2      OT      -0.834000       15.9994           0
     27344 TIP3     1009     TIP3     H1       HT       0.417000       1.00800           0
     27345 TIP3     1009     TIP3     H2       HT       0.417000       1.00800           0
     27346 TIP3     1010     TIP3     OH2      OT      -0.834000       15.9994           0
     27347 TIP3     1010     TIP3     H1       HT       0.417000       1.00800           0
     27348 TIP3     1010     TIP3     H2       HT       0.417000       1.00800           0
     27349 TIP3     1011     TIP3     OH2      OT      -0.834000       15.9994           0
     27350 TIP3     1011     TIP3     H1       HT       0.417000       1.00800           0
     27351 TIP3     1011     TIP3     H2       HT       0.417000       1.00800           0
     27352 TIP3     1012     TIP3     OH2      OT      -0.834000       15.9994           0
     27353 TIP3     1012     TIP3     H1       HT       0.417000       1.00800           0
     27354 TIP3     1012     TIP3     H2       HT       0.417000       1.00800           0
     27355 TIP3     1013     TIP3     OH2      OT      -0.834000       15.9994           0
     27356 TIP3     1013     TIP3     H1       HT       0.417000       1.00800           0
     27357 TIP3     1013     TIP3     H2       HT       0.417000       1.00800           0
     27358 TIP3     1014     TIP3     OH2      OT      -0.834000       15.9994           0
     27359 TIP3     1014     TIP3     H1       HT       0.417000       1.00800           0
     27360 TIP3     1014     TIP3     H2       HT       0.417000       1.00800           0
     27361 TIP3     1015     TIP3     OH2      OT      -0.834000       15.9994           0
     27362 TIP3     1015     TIP3     H1       HT       0.417000       1.00800           0
     27363 TIP3     1015     TIP3     H2       HT       0.417000       1.00800           0
     27364 TIP3     1016     TIP3     OH2      OT      -0.834000       15.9994           0
     27365 TIP3     1016     TIP3     H1       HT       0.417000       1.00800           0
     27366 TIP3     1016     TIP3     H2       HT       0.417000       1.00800           0
     27367 TIP3     1017     TIP3     OH2      OT      -0.834000       15.9994           0
     27368 TIP3     1017     TIP3     H1       HT       0.417000       1.00800           0
     27369 TIP3     1017     TIP3     H2       HT       0.417000       1.00800           0
     27370 TIP3     1018     TIP3     OH2      OT      -0.834000       15.9994           0
     27371 TIP3     1018     TIP3     H1       HT       0.417000       1.00800           0
     27372 TIP3     1018     TIP3     H2       HT       0.417000       1.00800           0
     27373 TIP3     1019     TIP3     OH2      OT      -0.834000       15.9994           0
     27374 TIP3     1019     TIP3     H1       HT       0.417000       1.00800           0
     27375 TIP3     1019     TIP3     H2       HT       0.417000       1.00800           0
     27376 TIP3     1020     TIP3     OH2      OT      -0.834000       15.9994           0
     27377 TIP3     1020     TIP3     H1       HT       0.417000       1.00800           0
     27378 TIP3     1020     TIP3     H2       HT       0.417000       1.00800           0
     27379 TIP3     1021     TIP3     OH2      OT      -0.834000       15.9994           0
     27380 TIP3     1021     TIP3     H1       HT       0.417000       1.00800           0
     27381 TIP3     1021     TIP3     H2       HT       0.417000       1.00800           0
     27382 TIP3     1022     TIP3     OH2      OT      -0.834000       15.9994           0
     27383 TIP3     1022     TIP3     H1       HT       0.417000       1.00800           0
     27384 TIP3     1022     TIP3     H2       HT       0.417000       1.00800           0
     27385 TIP3     1023     TIP3     OH2      OT      -0.834000       15.9994           0
     27386 TIP3     1023     TIP3     H1       HT       0.417000       1.00800           0
     27387 TIP3     1023     TIP3     H2       HT       0.417000       1.00800           0
     27388 TIP3     1024     TIP3     OH2      OT      -0.834000       15.9994           0
     27389 TIP3     1024     TIP3     H1       HT       0.417000       1.00800           0
     27390 TIP3     1024     TIP3     H2       HT       0.417000       1.00800           0
     27391 TIP3     1025     TIP3     OH2      OT      -0.834000       15.9994           0
     27392 TIP3     1025     TIP3     H1       HT       0.417000       1.00800           0
     27393 TIP3     1025     TIP3     H2       HT       0.417000       1.00800           0
     27394 TIP3     1026     TIP3     OH2      OT      -0.834000       15.9994           0
     27395 TIP3     1026     TIP3     H1       HT       0.417000       1.00800           0
     27396 TIP3     1026     TIP3     H2       HT       0.417000       1.00800           0
     27397 TIP3     1027     TIP3     OH2      OT      -0.834000       15.9994           0
     27398 TIP3     1027     TIP3     H1       HT       0.417000       1.00800           0
     27399 TIP3     1027     TIP3     H2       HT       0.417000       1.00800           0
     27400 TIP3     1028     TIP3     OH2      OT      -0.834000       15.9994           0
     27401 TIP3     1028     TIP3     H1       HT       0.417000       1.00800           0
     27402 TIP3     1028     TIP3     H2       HT       0.417000       1.00800           0
     27403 TIP3     1029     TIP3     OH2      OT      -0.834000       15.9994           0
     27404 TIP3     1029     TIP3     H1       HT       0.417000       1.00800           0
     27405 TIP3     1029     TIP3     H2       HT       0.417000       1.00800           0
     27406 TIP3     1030     TIP3     OH2      OT      -0.834000       15.9994           0
     27407 TIP3     1030     TIP3     H1       HT       0.417000       1.00800           0
     27408 TIP3     1030     TIP3     H2       HT       0.417000       1.00800           0
     27409 TIP3     1031     TIP3     OH2      OT      -0.834000       15.9994           0
     27410 TIP3     1031     TIP3     H1       HT       0.417000       1.00800           0
     27411 TIP3     1031     TIP3     H2       HT       0.417000       1.00800           0
     27412 TIP3     1032     TIP3     OH2      OT      -0.834000       15.9994           0
     27413 TIP3     1032     TIP3     H1       HT       0.417000       1.00800           0
     27414 TIP3     1032     TIP3     H2       HT       0.417000       1.00800           0
     27415 TIP3     1033     TIP3     OH2      OT      -0.834000       15.9994           0
     27416 TIP3     1033     TIP3     H1       HT       0.417000       1.00800           0
     27417 TIP3     1033     TIP3     H2       HT       0.417000       1.00800           0
     27418 TIP3     1034     TIP3     OH2      OT      -0.834000       15.9994           0
     27419 TIP3     1034     TIP3     H1       HT       0.417000       1.00800           0
     27420 TIP3     1034     TIP3     H2       HT       0.417000       1.00800           0
     27421 TIP3     1035     TIP3     OH2      OT      -0.834000       15.9994           0
     27422 TIP3     1035     TIP3     H1       HT       0.417000       1.00800           0
     27423 TIP3     1035     TIP3     H2       HT       0.417000       1.00800           0
     27424 TIP3     1036     TIP3     OH2      OT      -0.834000       15.9994           0
     27425 TIP3     1036     TIP3     H1       HT       0.417000       1.00800           0
     27426 TIP3     1036     TIP3     H2       HT       0.417000       1.00800           0
     27427 TIP3     1037     TIP3     OH2      OT      -0.834000       15.9994           0
     27428 TIP3     1037     TIP3     H1       HT       0.417000       1.00800           0
     27429 TIP3     1037     TIP3     H2       HT       0.417000       1.00800           0
     27430 TIP3     1038     TIP3     OH2      OT      -0.834000       15.9994           0
     27431 TIP3     1038     TIP3     H1       HT       0.417000       1.00800           0
     27432 TIP3     1038     TIP3     H2       HT       0.417000       1.00800           0
     27433 TIP3     1039     TIP3     OH2      OT      -0.834000       15.9994           0
     27434 TIP3     1039     TIP3     H1       HT       0.417000       1.00800           0
     27435 TIP3     1039     TIP3     H2       HT       0.417000       1.00800           0
     27436 TIP3     1040     TIP3     OH2      OT      -0.834000       15.9994           0
     27437 TIP3     1040     TIP3     H1       HT       0.417000       1.00800           0
     27438 TIP3     1040     TIP3     H2       HT       0.417000       1.00800           0
     27439 TIP3     1041     TIP3     OH2      OT      -0.834000       15.9994           0
     27440 TIP3     1041     TIP3     H1       HT       0.417000       1.00800           0
     27441 TIP3     1041     TIP3     H2       HT       0.417000       1.00800           0
     27442 TIP3     1042     TIP3     OH2      OT      -0.834000       15.9994           0
     27443 TIP3     1042     TIP3     H1       HT       0.417000       1.00800           0
     27444 TIP3     1042     TIP3     H2       HT       0.417000       1.00800           0
     27445 TIP3     1043     TIP3     OH2      OT      -0.834000       15.9994           0
     27446 TIP3     1043     TIP3     H1       HT       0.417000       1.00800           0
     27447 TIP3     1043     TIP3     H2       HT       0.417000       1.00800           0
     27448 TIP3     1044     TIP3     OH2      OT      -0.834000       15.9994           0
     27449 TIP3     1044     TIP3     H1       HT       0.417000       1.00800           0
     27450 TIP3     1044     TIP3     H2       HT       0.417000       1.00800           0
     27451 TIP3     1045     TIP3     OH2      OT      -0.834000       15.9994           0
     27452 TIP3     1045     TIP3     H1       HT       0.417000       1.00800           0
     27453 TIP3     1045     TIP3     H2       HT       0.417000       1.00800           0
     27454 TIP3     1046     TIP3     OH2      OT      -0.834000       15.9994           0
     27455 TIP3     1046     TIP3     H1       HT       0.417000       1.00800           0
     27456 TIP3     1046     TIP3     H2       HT       0.417000       1.00800           0
     27457 TIP3     1047     TIP3     OH2      OT      -0.834000       15.9994           0
     27458 TIP3     1047     TIP3     H1       HT       0.417000       1.00800           0
     27459 TIP3     1047     TIP3     H2       HT       0.417000       1.00800           0
     27460 TIP3     1048     TIP3     OH2      OT      -0.834000       15.9994           0
     27461 TIP3     1048     TIP3     H1       HT       0.417000       1.00800           0
     27462 TIP3     1048     TIP3     H2       HT       0.417000       1.00800           0
     27463 TIP3     1049     TIP3     OH2      OT      -0.834000       15.9994           0
     27464 TIP3     1049     TIP3     H1       HT       0.417000       1.00800           0
     27465 TIP3     1049     TIP3     H2       HT       0.417000       1.00800           0
     27466 TIP3     1050     TIP3     OH2      OT      -0.834000       15.9994           0
     27467 TIP3     1050     TIP3     H1       HT       0.417000       1.00800           0
     27468 TIP3     1050     TIP3     H2       HT       0.417000       1.00800           0
     27469 TIP3     1051     TIP3     OH2      OT      -0.834000       15.9994           0
     27470 TIP3     1051     TIP3     H1       HT       0.417000       1.00800           0
     27471 TIP3     1051     TIP3     H2       HT       0.417000       1.00800           0
     27472 TIP3     1052     TIP3     OH2      OT      -0.834000       15.9994           0
     27473 TIP3     1052     TIP3     H1       HT       0.417000       1.00800           0
     27474 TIP3     1052     TIP3     H2       HT       0.417000       1.00800           0
     27475 TIP3     1053     TIP3     OH2      OT      -0.834000       15.9994           0
     27476 TIP3     1053     TIP3     H1       HT       0.417000       1.00800           0
     27477 TIP3     1053     TIP3     H2       HT       0.417000       1.00800           0
     27478 TIP3     1054     TIP3     OH2      OT      -0.834000       15.9994           0
     27479 TIP3     1054     TIP3     H1       HT       0.417000       1.00800           0
     27480 TIP3     1054     TIP3     H2       HT       0.417000       1.00800           0
     27481 TIP3     1055     TIP3     OH2      OT      -0.834000       15.9994           0
     27482 TIP3     1055     TIP3     H1       HT       0.417000       1.00800           0
     27483 TIP3     1055     TIP3     H2       HT       0.417000       1.00800           0
     27484 TIP3     1056     TIP3     OH2      OT      -0.834000       15.9994           0
     27485 TIP3     1056     TIP3     H1       HT       0.417000       1.00800           0
     27486 TIP3     1056     TIP3     H2       HT       0.417000       1.00800           0
     27487 TIP3     1057     TIP3     OH2      OT      -0.834000       15.9994           0
     27488 TIP3     1057     TIP3     H1       HT       0.417000       1.00800           0
     27489 TIP3     1057     TIP3     H2       HT       0.417000       1.00800           0
     27490 TIP3     1058     TIP3     OH2      OT      -0.834000       15.9994           0
     27491 TIP3     1058     TIP3     H1       HT       0.417000       1.00800           0
     27492 TIP3     1058     TIP3     H2       HT       0.417000       1.00800           0
     27493 TIP3     1059     TIP3     OH2      OT      -0.834000       15.9994           0
     27494 TIP3     1059     TIP3     H1       HT       0.417000       1.00800           0
     27495 TIP3     1059     TIP3     H2       HT       0.417000       1.00800           0
     27496 TIP3     1060     TIP3     OH2      OT      -0.834000       15.9994           0
     27497 TIP3     1060     TIP3     H1       HT       0.417000       1.00800           0
     27498 TIP3     1060     TIP3     H2       HT       0.417000       1.00800           0
     27499 TIP3     1061     TIP3     OH2      OT      -0.834000       15.9994           0
     27500 TIP3     1061     TIP3     H1       HT       0.417000       1.00800           0
     27501 TIP3     1061     TIP3     H2       HT       0.417000       1.00800           0
     27502 TIP3     1062     TIP3     OH2      OT      -0.834000       15.9994           0
     27503 TIP3     1062     TIP3     H1       HT       0.417000       1.00800           0
     27504 TIP3     1062     TIP3     H2       HT       0.417000       1.00800           0
     27505 TIP3     1063     TIP3     OH2      OT      -0.834000       15.9994           0
     27506 TIP3     1063     TIP3     H1       HT       0.417000       1.00800           0
     27507 TIP3     1063     TIP3     H2       HT       0.417000       1.00800           0
     27508 TIP3     1064     TIP3     OH2      OT      -0.834000       15.9994           0
     27509 TIP3     1064     TIP3     H1       HT       0.417000       1.00800           0
     27510 TIP3     1064     TIP3     H2       HT       0.417000       1.00800           0
     27511 TIP3     1065     TIP3     OH2      OT      -0.834000       15.9994           0
     27512 TIP3     1065     TIP3     H1       HT       0.417000       1.00800           0
     27513 TIP3     1065     TIP3     H2       HT       0.417000       1.00800           0
     27514 TIP3     1066     TIP3     OH2      OT      -0.834000       15.9994           0
     27515 TIP3     1066     TIP3     H1       HT       0.417000       1.00800           0
     27516 TIP3     1066     TIP3     H2       HT       0.417000       1.00800           0
     27517 TIP3     1067     TIP3     OH2      OT      -0.834000       15.9994           0
     27518 TIP3     1067     TIP3     H1       HT       0.417000       1.00800           0
     27519 TIP3     1067     TIP3     H2       HT       0.417000       1.00800           0
     27520 TIP3     1068     TIP3     OH2      OT      -0.834000       15.9994           0
     27521 TIP3     1068     TIP3     H1       HT       0.417000       1.00800           0
     27522 TIP3     1068     TIP3     H2       HT       0.417000       1.00800           0
     27523 TIP3     1069     TIP3     OH2      OT      -0.834000       15.9994           0
     27524 TIP3     1069     TIP3     H1       HT       0.417000       1.00800           0
     27525 TIP3     1069     TIP3     H2       HT       0.417000       1.00800           0
     27526 TIP3     1070     TIP3     OH2      OT      -0.834000       15.9994           0
     27527 TIP3     1070     TIP3     H1       HT       0.417000       1.00800           0
     27528 TIP3     1070     TIP3     H2       HT       0.417000       1.00800           0
     27529 TIP3     1071     TIP3     OH2      OT      -0.834000       15.9994           0
     27530 TIP3     1071     TIP3     H1       HT       0.417000       1.00800           0
     27531 TIP3     1071     TIP3     H2       HT       0.417000       1.00800           0
     27532 TIP3     1072     TIP3     OH2      OT      -0.834000       15.9994           0
     27533 TIP3     1072     TIP3     H1       HT       0.417000       1.00800           0
     27534 TIP3     1072     TIP3     H2       HT       0.417000       1.00800           0
     27535 TIP3     1073     TIP3     OH2      OT      -0.834000       15.9994           0
     27536 TIP3     1073     TIP3     H1       HT       0.417000       1.00800           0
     27537 TIP3     1073     TIP3     H2       HT       0.417000       1.00800           0
     27538 TIP3     1074     TIP3     OH2      OT      -0.834000       15.9994           0
     27539 TIP3     1074     TIP3     H1       HT       0.417000       1.00800           0
     27540 TIP3     1074     TIP3     H2       HT       0.417000       1.00800           0
     27541 TIP3     1075     TIP3     OH2      OT      -0.834000       15.9994           0
     27542 TIP3     1075     TIP3     H1       HT       0.417000       1.00800           0
     27543 TIP3     1075     TIP3     H2       HT       0.417000       1.00800           0
     27544 TIP3     1076     TIP3     OH2      OT      -0.834000       15.9994           0
     27545 TIP3     1076     TIP3     H1       HT       0.417000       1.00800           0
     27546 TIP3     1076     TIP3     H2       HT       0.417000       1.00800           0
     27547 TIP3     1077     TIP3     OH2      OT      -0.834000       15.9994           0
     27548 TIP3     1077     TIP3     H1       HT       0.417000       1.00800           0
     27549 TIP3     1077     TIP3     H2       HT       0.417000       1.00800           0
     27550 TIP3     1078     TIP3     OH2      OT      -0.834000       15.9994           0
     27551 TIP3     1078     TIP3     H1       HT       0.417000       1.00800           0
     27552 TIP3     1078     TIP3     H2       HT       0.417000       1.00800           0
     27553 TIP3     1079     TIP3     OH2      OT      -0.834000       15.9994           0
     27554 TIP3     1079     TIP3     H1       HT       0.417000       1.00800           0
     27555 TIP3     1079     TIP3     H2       HT       0.417000       1.00800           0
     27556 TIP3     1080     TIP3     OH2      OT      -0.834000       15.9994           0
     27557 TIP3     1080     TIP3     H1       HT       0.417000       1.00800           0
     27558 TIP3     1080     TIP3     H2       HT       0.417000       1.00800           0
     27559 TIP3     1081     TIP3     OH2      OT      -0.834000       15.9994           0
     27560 TIP3     1081     TIP3     H1       HT       0.417000       1.00800           0
     27561 TIP3     1081     TIP3     H2       HT       0.417000       1.00800           0
     27562 TIP3     1082     TIP3     OH2      OT      -0.834000       15.9994           0
     27563 TIP3     1082     TIP3     H1       HT       0.417000       1.00800           0
     27564 TIP3     1082     TIP3     H2       HT       0.417000       1.00800           0
     27565 TIP3     1083     TIP3     OH2      OT      -0.834000       15.9994           0
     27566 TIP3     1083     TIP3     H1       HT       0.417000       1.00800           0
     27567 TIP3     1083     TIP3     H2       HT       0.417000       1.00800           0
     27568 TIP3     1084     TIP3     OH2      OT      -0.834000       15.9994           0
     27569 TIP3     1084     TIP3     H1       HT       0.417000       1.00800           0
     27570 TIP3     1084     TIP3     H2       HT       0.417000       1.00800           0
     27571 TIP3     1085     TIP3     OH2      OT      -0.834000       15.9994           0
     27572 TIP3     1085     TIP3     H1       HT       0.417000       1.00800           0
     27573 TIP3     1085     TIP3     H2       HT       0.417000       1.00800           0
     27574 TIP3     1086     TIP3     OH2      OT      -0.834000       15.9994           0
     27575 TIP3     1086     TIP3     H1       HT       0.417000       1.00800           0
     27576 TIP3     1086     TIP3     H2       HT       0.417000       1.00800           0
     27577 TIP3     1087     TIP3     OH2      OT      -0.834000       15.9994           0
     27578 TIP3     1087     TIP3     H1       HT       0.417000       1.00800           0
     27579 TIP3     1087     TIP3     H2       HT       0.417000       1.00800           0
     27580 TIP3     1088     TIP3     OH2      OT      -0.834000       15.9994           0
     27581 TIP3     1088     TIP3     H1       HT       0.417000       1.00800           0
     27582 TIP3     1088     TIP3     H2       HT       0.417000       1.00800           0
     27583 TIP3     1089     TIP3     OH2      OT      -0.834000       15.9994           0
     27584 TIP3     1089     TIP3     H1       HT       0.417000       1.00800           0
     27585 TIP3     1089     TIP3     H2       HT       0.417000       1.00800           0
     27586 TIP3     1090     TIP3     OH2      OT      -0.834000       15.9994           0
     27587 TIP3     1090     TIP3     H1       HT       0.417000       1.00800           0
     27588 TIP3     1090     TIP3     H2       HT       0.417000       1.00800           0
     27589 TIP3     1091     TIP3     OH2      OT      -0.834000       15.9994           0
     27590 TIP3     1091     TIP3     H1       HT       0.417000       1.00800           0
     27591 TIP3     1091     TIP3     H2       HT       0.417000       1.00800           0
     27592 TIP3     1092     TIP3     OH2      OT      -0.834000       15.9994           0
     27593 TIP3     1092     TIP3     H1       HT       0.417000       1.00800           0
     27594 TIP3     1092     TIP3     H2       HT       0.417000       1.00800           0
     27595 TIP3     1093     TIP3     OH2      OT      -0.834000       15.9994           0
     27596 TIP3     1093     TIP3     H1       HT       0.417000       1.00800           0
     27597 TIP3     1093     TIP3     H2       HT       0.417000       1.00800           0
     27598 TIP3     1094     TIP3     OH2      OT      -0.834000       15.9994           0
     27599 TIP3     1094     TIP3     H1       HT       0.417000       1.00800           0
     27600 TIP3     1094     TIP3     H2       HT       0.417000       1.00800           0
     27601 TIP3     1095     TIP3     OH2      OT      -0.834000       15.9994           0
     27602 TIP3     1095     TIP3     H1       HT       0.417000       1.00800           0
     27603 TIP3     1095     TIP3     H2       HT       0.417000       1.00800           0
     27604 TIP3     1096     TIP3     OH2      OT      -0.834000       15.9994           0
     27605 TIP3     1096     TIP3     H1       HT       0.417000       1.00800           0
     27606 TIP3     1096     TIP3     H2       HT       0.417000       1.00800           0
     27607 TIP3     1097     TIP3     OH2      OT      -0.834000       15.9994           0
     27608 TIP3     1097     TIP3     H1       HT       0.417000       1.00800           0
     27609 TIP3     1097     TIP3     H2       HT       0.417000       1.00800           0
     27610 TIP3     1098     TIP3     OH2      OT      -0.834000       15.9994           0
     27611 TIP3     1098     TIP3     H1       HT       0.417000       1.00800           0
     27612 TIP3     1098     TIP3     H2       HT       0.417000       1.00800           0
     27613 TIP3     1099     TIP3     OH2      OT      -0.834000       15.9994           0
     27614 TIP3     1099     TIP3     H1       HT       0.417000       1.00800           0
     27615 TIP3     1099     TIP3     H2       HT       0.417000       1.00800           0
     27616 TIP3     1100     TIP3     OH2      OT      -0.834000       15.9994           0
     27617 TIP3     1100     TIP3     H1       HT       0.417000       1.00800           0
     27618 TIP3     1100     TIP3     H2       HT       0.417000       1.00800           0
     27619 TIP3     1101     TIP3     OH2      OT      -0.834000       15.9994           0
     27620 TIP3     1101     TIP3     H1       HT       0.417000       1.00800           0
     27621 TIP3     1101     TIP3     H2       HT       0.417000       1.00800           0
     27622 TIP3     1102     TIP3     OH2      OT      -0.834000       15.9994           0
     27623 TIP3     1102     TIP3     H1       HT       0.417000       1.00800           0
     27624 TIP3     1102     TIP3     H2       HT       0.417000       1.00800           0
     27625 TIP3     1103     TIP3     OH2      OT      -0.834000       15.9994           0
     27626 TIP3     1103     TIP3     H1       HT       0.417000       1.00800           0
     27627 TIP3     1103     TIP3     H2       HT       0.417000       1.00800           0
     27628 TIP3     1104     TIP3     OH2      OT      -0.834000       15.9994           0
     27629 TIP3     1104     TIP3     H1       HT       0.417000       1.00800           0
     27630 TIP3     1104     TIP3     H2       HT       0.417000       1.00800           0
     27631 TIP3     1105     TIP3     OH2      OT      -0.834000       15.9994           0
     27632 TIP3     1105     TIP3     H1       HT       0.417000       1.00800           0
     27633 TIP3     1105     TIP3     H2       HT       0.417000       1.00800           0
     27634 TIP3     1106     TIP3     OH2      OT      -0.834000       15.9994           0
     27635 TIP3     1106     TIP3     H1       HT       0.417000       1.00800           0
     27636 TIP3     1106     TIP3     H2       HT       0.417000       1.00800           0
     27637 TIP3     1107     TIP3     OH2      OT      -0.834000       15.9994           0
     27638 TIP3     1107     TIP3     H1       HT       0.417000       1.00800           0
     27639 TIP3     1107     TIP3     H2       HT       0.417000       1.00800           0
     27640 TIP3     1108     TIP3     OH2      OT      -0.834000       15.9994           0
     27641 TIP3     1108     TIP3     H1       HT       0.417000       1.00800           0
     27642 TIP3     1108     TIP3     H2       HT       0.417000       1.00800           0
     27643 TIP3     1109     TIP3     OH2      OT      -0.834000       15.9994           0
     27644 TIP3     1109     TIP3     H1       HT       0.417000       1.00800           0
     27645 TIP3     1109     TIP3     H2       HT       0.417000       1.00800           0
     27646 TIP3     1110     TIP3     OH2      OT      -0.834000       15.9994           0
     27647 TIP3     1110     TIP3     H1       HT       0.417000       1.00800           0
     27648 TIP3     1110     TIP3     H2       HT       0.417000       1.00800           0
     27649 TIP3     1111     TIP3     OH2      OT      -0.834000       15.9994           0
     27650 TIP3     1111     TIP3     H1       HT       0.417000       1.00800           0
     27651 TIP3     1111     TIP3     H2       HT       0.417000       1.00800           0
     27652 TIP3     1112     TIP3     OH2      OT      -0.834000       15.9994           0
     27653 TIP3     1112     TIP3     H1       HT       0.417000       1.00800           0
     27654 TIP3     1112     TIP3     H2       HT       0.417000       1.00800           0
     27655 TIP3     1113     TIP3     OH2      OT      -0.834000       15.9994           0
     27656 TIP3     1113     TIP3     H1       HT       0.417000       1.00800           0
     27657 TIP3     1113     TIP3     H2       HT       0.417000       1.00800           0
     27658 TIP3     1114     TIP3     OH2      OT      -0.834000       15.9994           0
     27659 TIP3     1114     TIP3     H1       HT       0.417000       1.00800           0
     27660 TIP3     1114     TIP3     H2       HT       0.417000       1.00800           0
     27661 TIP3     1115     TIP3     OH2      OT      -0.834000       15.9994           0
     27662 TIP3     1115     TIP3     H1       HT       0.417000       1.00800           0
     27663 TIP3     1115     TIP3     H2       HT       0.417000       1.00800           0
     27664 TIP3     1116     TIP3     OH2      OT      -0.834000       15.9994           0
     27665 TIP3     1116     TIP3     H1       HT       0.417000       1.00800           0
     27666 TIP3     1116     TIP3     H2       HT       0.417000       1.00800           0
     27667 TIP3     1117     TIP3     OH2      OT      -0.834000       15.9994           0
     27668 TIP3     1117     TIP3     H1       HT       0.417000       1.00800           0
     27669 TIP3     1117     TIP3     H2       HT       0.417000       1.00800           0
     27670 TIP3     1118     TIP3     OH2      OT      -0.834000       15.9994           0
     27671 TIP3     1118     TIP3     H1       HT       0.417000       1.00800           0
     27672 TIP3     1118     TIP3     H2       HT       0.417000       1.00800           0
     27673 TIP3     1119     TIP3     OH2      OT      -0.834000       15.9994           0
     27674 TIP3     1119     TIP3     H1       HT       0.417000       1.00800           0
     27675 TIP3     1119     TIP3     H2       HT       0.417000       1.00800           0
     27676 TIP3     1120     TIP3     OH2      OT      -0.834000       15.9994           0
     27677 TIP3     1120     TIP3     H1       HT       0.417000       1.00800           0
     27678 TIP3     1120     TIP3     H2       HT       0.417000       1.00800           0
     27679 TIP3     1121     TIP3     OH2      OT      -0.834000       15.9994           0
     27680 TIP3     1121     TIP3     H1       HT       0.417000       1.00800           0
     27681 TIP3     1121     TIP3     H2       HT       0.417000       1.00800           0
     27682 TIP3     1122     TIP3     OH2      OT      -0.834000       15.9994           0
     27683 TIP3     1122     TIP3     H1       HT       0.417000       1.00800           0
     27684 TIP3     1122     TIP3     H2       HT       0.417000       1.00800           0
     27685 TIP3     1123     TIP3     OH2      OT      -0.834000       15.9994           0
     27686 TIP3     1123     TIP3     H1       HT       0.417000       1.00800           0
     27687 TIP3     1123     TIP3     H2       HT       0.417000       1.00800           0
     27688 TIP3     1124     TIP3     OH2      OT      -0.834000       15.9994           0
     27689 TIP3     1124     TIP3     H1       HT       0.417000       1.00800           0
     27690 TIP3     1124     TIP3     H2       HT       0.417000       1.00800           0
     27691 TIP3     1125     TIP3     OH2      OT      -0.834000       15.9994           0
     27692 TIP3     1125     TIP3     H1       HT       0.417000       1.00800           0
     27693 TIP3     1125     TIP3     H2       HT       0.417000       1.00800           0
     27694 TIP3     1126     TIP3     OH2      OT      -0.834000       15.9994           0
     27695 TIP3     1126     TIP3     H1       HT       0.417000       1.00800           0
     27696 TIP3     1126     TIP3     H2       HT       0.417000       1.00800           0
     27697 TIP3     1127     TIP3     OH2      OT      -0.834000       15.9994           0
     27698 TIP3     1127     TIP3     H1       HT       0.417000       1.00800           0
     27699 TIP3     1127     TIP3     H2       HT       0.417000       1.00800           0
     27700 TIP3     1128     TIP3     OH2      OT      -0.834000       15.9994           0
     27701 TIP3     1128     TIP3     H1       HT       0.417000       1.00800           0
     27702 TIP3     1128     TIP3     H2       HT       0.417000       1.00800           0
     27703 TIP3     1129     TIP3     OH2      OT      -0.834000       15.9994           0
     27704 TIP3     1129     TIP3     H1       HT       0.417000       1.00800           0
     27705 TIP3     1129     TIP3     H2       HT       0.417000       1.00800           0
     27706 TIP3     1130     TIP3     OH2      OT      -0.834000       15.9994           0
     27707 TIP3     1130     TIP3     H1       HT       0.417000       1.00800           0
     27708 TIP3     1130     TIP3     H2       HT       0.417000       1.00800           0
     27709 TIP3     1131     TIP3     OH2      OT      -0.834000       15.9994           0
     27710 TIP3     1131     TIP3     H1       HT       0.417000       1.00800           0
     27711 TIP3     1131     TIP3     H2       HT       0.417000       1.00800           0
     27712 TIP3     1132     TIP3     OH2      OT      -0.834000       15.9994           0
     27713 TIP3     1132     TIP3     H1       HT       0.417000       1.00800           0
     27714 TIP3     1132     TIP3     H2       HT       0.417000       1.00800           0
     27715 TIP3     1133     TIP3     OH2      OT      -0.834000       15.9994           0
     27716 TIP3     1133     TIP3     H1       HT       0.417000       1.00800           0
     27717 TIP3     1133     TIP3     H2       HT       0.417000       1.00800           0
     27718 TIP3     1134     TIP3     OH2      OT      -0.834000       15.9994           0
     27719 TIP3     1134     TIP3     H1       HT       0.417000       1.00800           0
     27720 TIP3     1134     TIP3     H2       HT       0.417000       1.00800           0
     27721 TIP3     1135     TIP3     OH2      OT      -0.834000       15.9994           0
     27722 TIP3     1135     TIP3     H1       HT       0.417000       1.00800           0
     27723 TIP3     1135     TIP3     H2       HT       0.417000       1.00800           0
     27724 TIP3     1136     TIP3     OH2      OT      -0.834000       15.9994           0
     27725 TIP3     1136     TIP3     H1       HT       0.417000       1.00800           0
     27726 TIP3     1136     TIP3     H2       HT       0.417000       1.00800           0
     27727 TIP3     1137     TIP3     OH2      OT      -0.834000       15.9994           0
     27728 TIP3     1137     TIP3     H1       HT       0.417000       1.00800           0
     27729 TIP3     1137     TIP3     H2       HT       0.417000       1.00800           0
     27730 TIP3     1138     TIP3     OH2      OT      -0.834000       15.9994           0
     27731 TIP3     1138     TIP3     H1       HT       0.417000       1.00800           0
     27732 TIP3     1138     TIP3     H2       HT       0.417000       1.00800           0
     27733 TIP3     1139     TIP3     OH2      OT      -0.834000       15.9994           0
     27734 TIP3     1139     TIP3     H1       HT       0.417000       1.00800           0
     27735 TIP3     1139     TIP3     H2       HT       0.417000       1.00800           0
     27736 TIP3     1140     TIP3     OH2      OT      -0.834000       15.9994           0
     27737 TIP3     1140     TIP3     H1       HT       0.417000       1.00800           0
     27738 TIP3     1140     TIP3     H2       HT       0.417000       1.00800           0
     27739 TIP3     1141     TIP3     OH2      OT      -0.834000       15.9994           0
     27740 TIP3     1141     TIP3     H1       HT       0.417000       1.00800           0
     27741 TIP3     1141     TIP3     H2       HT       0.417000       1.00800           0
     27742 TIP3     1142     TIP3     OH2      OT      -0.834000       15.9994           0
     27743 TIP3     1142     TIP3     H1       HT       0.417000       1.00800           0
     27744 TIP3     1142     TIP3     H2       HT       0.417000       1.00800           0
     27745 TIP3     1143     TIP3     OH2      OT      -0.834000       15.9994           0
     27746 TIP3     1143     TIP3     H1       HT       0.417000       1.00800           0
     27747 TIP3     1143     TIP3     H2       HT       0.417000       1.00800           0
     27748 TIP3     1144     TIP3     OH2      OT      -0.834000       15.9994           0
     27749 TIP3     1144     TIP3     H1       HT       0.417000       1.00800           0
     27750 TIP3     1144     TIP3     H2       HT       0.417000       1.00800           0
     27751 TIP3     1145     TIP3     OH2      OT      -0.834000       15.9994           0
     27752 TIP3     1145     TIP3     H1       HT       0.417000       1.00800           0
     27753 TIP3     1145     TIP3     H2       HT       0.417000       1.00800           0
     27754 TIP3     1146     TIP3     OH2      OT      -0.834000       15.9994           0
     27755 TIP3     1146     TIP3     H1       HT       0.417000       1.00800           0
     27756 TIP3     1146     TIP3     H2       HT       0.417000       1.00800           0
     27757 TIP3     1147     TIP3     OH2      OT      -0.834000       15.9994           0
     27758 TIP3     1147     TIP3     H1       HT       0.417000       1.00800           0
     27759 TIP3     1147     TIP3     H2       HT       0.417000       1.00800           0
     27760 TIP3     1148     TIP3     OH2      OT      -0.834000       15.9994           0
     27761 TIP3     1148     TIP3     H1       HT       0.417000       1.00800           0
     27762 TIP3     1148     TIP3     H2       HT       0.417000       1.00800           0
     27763 TIP3     1149     TIP3     OH2      OT      -0.834000       15.9994           0
     27764 TIP3     1149     TIP3     H1       HT       0.417000       1.00800           0
     27765 TIP3     1149     TIP3     H2       HT       0.417000       1.00800           0
     27766 TIP3     1150     TIP3     OH2      OT      -0.834000       15.9994           0
     27767 TIP3     1150     TIP3     H1       HT       0.417000       1.00800           0
     27768 TIP3     1150     TIP3     H2       HT       0.417000       1.00800           0
     27769 TIP3     1151     TIP3     OH2      OT      -0.834000       15.9994           0
     27770 TIP3     1151     TIP3     H1       HT       0.417000       1.00800           0
     27771 TIP3     1151     TIP3     H2       HT       0.417000       1.00800           0
     27772 TIP3     1152     TIP3     OH2      OT      -0.834000       15.9994           0
     27773 TIP3     1152     TIP3     H1       HT       0.417000       1.00800           0
     27774 TIP3     1152     TIP3     H2       HT       0.417000       1.00800           0
     27775 TIP3     1153     TIP3     OH2      OT      -0.834000       15.9994           0
     27776 TIP3     1153     TIP3     H1       HT       0.417000       1.00800           0
     27777 TIP3     1153     TIP3     H2       HT       0.417000       1.00800           0
     27778 TIP3     1154     TIP3     OH2      OT      -0.834000       15.9994           0
     27779 TIP3     1154     TIP3     H1       HT       0.417000       1.00800           0
     27780 TIP3     1154     TIP3     H2       HT       0.417000       1.00800           0
     27781 TIP3     1155     TIP3     OH2      OT      -0.834000       15.9994           0
     27782 TIP3     1155     TIP3     H1       HT       0.417000       1.00800           0
     27783 TIP3     1155     TIP3     H2       HT       0.417000       1.00800           0
     27784 TIP3     1156     TIP3     OH2      OT      -0.834000       15.9994           0
     27785 TIP3     1156     TIP3     H1       HT       0.417000       1.00800           0
     27786 TIP3     1156     TIP3     H2       HT       0.417000       1.00800           0
     27787 TIP3     1157     TIP3     OH2      OT      -0.834000       15.9994           0
     27788 TIP3     1157     TIP3     H1       HT       0.417000       1.00800           0
     27789 TIP3     1157     TIP3     H2       HT       0.417000       1.00800           0
     27790 TIP3     1158     TIP3     OH2      OT      -0.834000       15.9994           0
     27791 TIP3     1158     TIP3     H1       HT       0.417000       1.00800           0
     27792 TIP3     1158     TIP3     H2       HT       0.417000       1.00800           0
     27793 TIP3     1159     TIP3     OH2      OT      -0.834000       15.9994           0
     27794 TIP3     1159     TIP3     H1       HT       0.417000       1.00800           0
     27795 TIP3     1159     TIP3     H2       HT       0.417000       1.00800           0
     27796 TIP3     1160     TIP3     OH2      OT      -0.834000       15.9994           0
     27797 TIP3     1160     TIP3     H1       HT       0.417000       1.00800           0
     27798 TIP3     1160     TIP3     H2       HT       0.417000       1.00800           0
     27799 TIP3     1161     TIP3     OH2      OT      -0.834000       15.9994           0
     27800 TIP3     1161     TIP3     H1       HT       0.417000       1.00800           0
     27801 TIP3     1161     TIP3     H2       HT       0.417000       1.00800           0
     27802 TIP3     1162     TIP3     OH2      OT      -0.834000       15.9994           0
     27803 TIP3     1162     TIP3     H1       HT       0.417000       1.00800           0
     27804 TIP3     1162     TIP3     H2       HT       0.417000       1.00800           0
     27805 TIP3     1163     TIP3     OH2      OT      -0.834000       15.9994           0
     27806 TIP3     1163     TIP3     H1       HT       0.417000       1.00800           0
     27807 TIP3     1163     TIP3     H2       HT       0.417000       1.00800           0
     27808 TIP3     1164     TIP3     OH2      OT      -0.834000       15.9994           0
     27809 TIP3     1164     TIP3     H1       HT       0.417000       1.00800           0
     27810 TIP3     1164     TIP3     H2       HT       0.417000       1.00800           0
     27811 TIP3     1165     TIP3     OH2      OT      -0.834000       15.9994           0
     27812 TIP3     1165     TIP3     H1       HT       0.417000       1.00800           0
     27813 TIP3     1165     TIP3     H2       HT       0.417000       1.00800           0
     27814 TIP3     1166     TIP3     OH2      OT      -0.834000       15.9994           0
     27815 TIP3     1166     TIP3     H1       HT       0.417000       1.00800           0
     27816 TIP3     1166     TIP3     H2       HT       0.417000       1.00800           0
     27817 TIP3     1167     TIP3     OH2      OT      -0.834000       15.9994           0
     27818 TIP3     1167     TIP3     H1       HT       0.417000       1.00800           0
     27819 TIP3     1167     TIP3     H2       HT       0.417000       1.00800           0
     27820 TIP3     1168     TIP3     OH2      OT      -0.834000       15.9994           0
     27821 TIP3     1168     TIP3     H1       HT       0.417000       1.00800           0
     27822 TIP3     1168     TIP3     H2       HT       0.417000       1.00800           0
     27823 TIP3     1169     TIP3     OH2      OT      -0.834000       15.9994           0
     27824 TIP3     1169     TIP3     H1       HT       0.417000       1.00800           0
     27825 TIP3     1169     TIP3     H2       HT       0.417000       1.00800           0
     27826 TIP3     1170     TIP3     OH2      OT      -0.834000       15.9994           0
     27827 TIP3     1170     TIP3     H1       HT       0.417000       1.00800           0
     27828 TIP3     1170     TIP3     H2       HT       0.417000       1.00800           0
     27829 TIP3     1171     TIP3     OH2      OT      -0.834000       15.9994           0
     27830 TIP3     1171     TIP3     H1       HT       0.417000       1.00800           0
     27831 TIP3     1171     TIP3     H2       HT       0.417000       1.00800           0
     27832 TIP3     1172     TIP3     OH2      OT      -0.834000       15.9994           0
     27833 TIP3     1172     TIP3     H1       HT       0.417000       1.00800           0
     27834 TIP3     1172     TIP3     H2       HT       0.417000       1.00800           0
     27835 TIP3     1173     TIP3     OH2      OT      -0.834000       15.9994           0
     27836 TIP3     1173     TIP3     H1       HT       0.417000       1.00800           0
     27837 TIP3     1173     TIP3     H2       HT       0.417000       1.00800           0
     27838 TIP3     1174     TIP3     OH2      OT      -0.834000       15.9994           0
     27839 TIP3     1174     TIP3     H1       HT       0.417000       1.00800           0
     27840 TIP3     1174     TIP3     H2       HT       0.417000       1.00800           0
     27841 TIP3     1175     TIP3     OH2      OT      -0.834000       15.9994           0
     27842 TIP3     1175     TIP3     H1       HT       0.417000       1.00800           0
     27843 TIP3     1175     TIP3     H2       HT       0.417000       1.00800           0
     27844 TIP3     1176     TIP3     OH2      OT      -0.834000       15.9994           0
     27845 TIP3     1176     TIP3     H1       HT       0.417000       1.00800           0
     27846 TIP3     1176     TIP3     H2       HT       0.417000       1.00800           0
     27847 TIP3     1177     TIP3     OH2      OT      -0.834000       15.9994           0
     27848 TIP3     1177     TIP3     H1       HT       0.417000       1.00800           0
     27849 TIP3     1177     TIP3     H2       HT       0.417000       1.00800           0
     27850 TIP3     1178     TIP3     OH2      OT      -0.834000       15.9994           0
     27851 TIP3     1178     TIP3     H1       HT       0.417000       1.00800           0
     27852 TIP3     1178     TIP3     H2       HT       0.417000       1.00800           0
     27853 TIP3     1179     TIP3     OH2      OT      -0.834000       15.9994           0
     27854 TIP3     1179     TIP3     H1       HT       0.417000       1.00800           0
     27855 TIP3     1179     TIP3     H2       HT       0.417000       1.00800           0
     27856 TIP3     1180     TIP3     OH2      OT      -0.834000       15.9994           0
     27857 TIP3     1180     TIP3     H1       HT       0.417000       1.00800           0
     27858 TIP3     1180     TIP3     H2       HT       0.417000       1.00800           0
     27859 TIP3     1181     TIP3     OH2      OT      -0.834000       15.9994           0
     27860 TIP3     1181     TIP3     H1       HT       0.417000       1.00800           0
     27861 TIP3     1181     TIP3     H2       HT       0.417000       1.00800           0
     27862 TIP3     1182     TIP3     OH2      OT      -0.834000       15.9994           0
     27863 TIP3     1182     TIP3     H1       HT       0.417000       1.00800           0
     27864 TIP3     1182     TIP3     H2       HT       0.417000       1.00800           0
     27865 TIP3     1183     TIP3     OH2      OT      -0.834000       15.9994           0
     27866 TIP3     1183     TIP3     H1       HT       0.417000       1.00800           0
     27867 TIP3     1183     TIP3     H2       HT       0.417000       1.00800           0
     27868 TIP3     1184     TIP3     OH2      OT      -0.834000       15.9994           0
     27869 TIP3     1184     TIP3     H1       HT       0.417000       1.00800           0
     27870 TIP3     1184     TIP3     H2       HT       0.417000       1.00800           0
     27871 TIP3     1185     TIP3     OH2      OT      -0.834000       15.9994           0
     27872 TIP3     1185     TIP3     H1       HT       0.417000       1.00800           0
     27873 TIP3     1185     TIP3     H2       HT       0.417000       1.00800           0
     27874 TIP3     1186     TIP3     OH2      OT      -0.834000       15.9994           0
     27875 TIP3     1186     TIP3     H1       HT       0.417000       1.00800           0
     27876 TIP3     1186     TIP3     H2       HT       0.417000       1.00800           0
     27877 TIP3     1187     TIP3     OH2      OT      -0.834000       15.9994           0
     27878 TIP3     1187     TIP3     H1       HT       0.417000       1.00800           0
     27879 TIP3     1187     TIP3     H2       HT       0.417000       1.00800           0
     27880 TIP3     1188     TIP3     OH2      OT      -0.834000       15.9994           0
     27881 TIP3     1188     TIP3     H1       HT       0.417000       1.00800           0
     27882 TIP3     1188     TIP3     H2       HT       0.417000       1.00800           0
     27883 TIP3     1189     TIP3     OH2      OT      -0.834000       15.9994           0
     27884 TIP3     1189     TIP3     H1       HT       0.417000       1.00800           0
     27885 TIP3     1189     TIP3     H2       HT       0.417000       1.00800           0
     27886 TIP3     1190     TIP3     OH2      OT      -0.834000       15.9994           0
     27887 TIP3     1190     TIP3     H1       HT       0.417000       1.00800           0
     27888 TIP3     1190     TIP3     H2       HT       0.417000       1.00800           0
     27889 TIP3     1191     TIP3     OH2      OT      -0.834000       15.9994           0
     27890 TIP3     1191     TIP3     H1       HT       0.417000       1.00800           0
     27891 TIP3     1191     TIP3     H2       HT       0.417000       1.00800           0
     27892 TIP3     1192     TIP3     OH2      OT      -0.834000       15.9994           0
     27893 TIP3     1192     TIP3     H1       HT       0.417000       1.00800           0
     27894 TIP3     1192     TIP3     H2       HT       0.417000       1.00800           0
     27895 TIP3     1193     TIP3     OH2      OT      -0.834000       15.9994           0
     27896 TIP3     1193     TIP3     H1       HT       0.417000       1.00800           0
     27897 TIP3     1193     TIP3     H2       HT       0.417000       1.00800           0
     27898 TIP3     1194     TIP3     OH2      OT      -0.834000       15.9994           0
     27899 TIP3     1194     TIP3     H1       HT       0.417000       1.00800           0
     27900 TIP3     1194     TIP3     H2       HT       0.417000       1.00800           0
     27901 TIP3     1195     TIP3     OH2      OT      -0.834000       15.9994           0
     27902 TIP3     1195     TIP3     H1       HT       0.417000       1.00800           0
     27903 TIP3     1195     TIP3     H2       HT       0.417000       1.00800           0
     27904 TIP3     1196     TIP3     OH2      OT      -0.834000       15.9994           0
     27905 TIP3     1196     TIP3     H1       HT       0.417000       1.00800           0
     27906 TIP3     1196     TIP3     H2       HT       0.417000       1.00800           0
     27907 TIP3     1197     TIP3     OH2      OT      -0.834000       15.9994           0
     27908 TIP3     1197     TIP3     H1       HT       0.417000       1.00800           0
     27909 TIP3     1197     TIP3     H2       HT       0.417000       1.00800           0
     27910 TIP3     1198     TIP3     OH2      OT      -0.834000       15.9994           0
     27911 TIP3     1198     TIP3     H1       HT       0.417000       1.00800           0
     27912 TIP3     1198     TIP3     H2       HT       0.417000       1.00800           0
     27913 TIP3     1199     TIP3     OH2      OT      -0.834000       15.9994           0
     27914 TIP3     1199     TIP3     H1       HT       0.417000       1.00800           0
     27915 TIP3     1199     TIP3     H2       HT       0.417000       1.00800           0
     27916 TIP3     1200     TIP3     OH2      OT      -0.834000       15.9994           0
     27917 TIP3     1200     TIP3     H1       HT       0.417000       1.00800           0
     27918 TIP3     1200     TIP3     H2       HT       0.417000       1.00800           0
     27919 TIP3     1201     TIP3     OH2      OT      -0.834000       15.9994           0
     27920 TIP3     1201     TIP3     H1       HT       0.417000       1.00800           0
     27921 TIP3     1201     TIP3     H2       HT       0.417000       1.00800           0
     27922 TIP3     1202     TIP3     OH2      OT      -0.834000       15.9994           0
     27923 TIP3     1202     TIP3     H1       HT       0.417000       1.00800           0
     27924 TIP3     1202     TIP3     H2       HT       0.417000       1.00800           0
     27925 TIP3     1203     TIP3     OH2      OT      -0.834000       15.9994           0
     27926 TIP3     1203     TIP3     H1       HT       0.417000       1.00800           0
     27927 TIP3     1203     TIP3     H2       HT       0.417000       1.00800           0
     27928 TIP3     1204     TIP3     OH2      OT      -0.834000       15.9994           0
     27929 TIP3     1204     TIP3     H1       HT       0.417000       1.00800           0
     27930 TIP3     1204     TIP3     H2       HT       0.417000       1.00800           0
     27931 TIP3     1205     TIP3     OH2      OT      -0.834000       15.9994           0
     27932 TIP3     1205     TIP3     H1       HT       0.417000       1.00800           0
     27933 TIP3     1205     TIP3     H2       HT       0.417000       1.00800           0
     27934 TIP3     1206     TIP3     OH2      OT      -0.834000       15.9994           0
     27935 TIP3     1206     TIP3     H1       HT       0.417000       1.00800           0
     27936 TIP3     1206     TIP3     H2       HT       0.417000       1.00800           0
     27937 TIP3     1207     TIP3     OH2      OT      -0.834000       15.9994           0
     27938 TIP3     1207     TIP3     H1       HT       0.417000       1.00800           0
     27939 TIP3     1207     TIP3     H2       HT       0.417000       1.00800           0
     27940 TIP3     1208     TIP3     OH2      OT      -0.834000       15.9994           0
     27941 TIP3     1208     TIP3     H1       HT       0.417000       1.00800           0
     27942 TIP3     1208     TIP3     H2       HT       0.417000       1.00800           0
     27943 TIP3     1209     TIP3     OH2      OT      -0.834000       15.9994           0
     27944 TIP3     1209     TIP3     H1       HT       0.417000       1.00800           0
     27945 TIP3     1209     TIP3     H2       HT       0.417000       1.00800           0
     27946 TIP3     1210     TIP3     OH2      OT      -0.834000       15.9994           0
     27947 TIP3     1210     TIP3     H1       HT       0.417000       1.00800           0
     27948 TIP3     1210     TIP3     H2       HT       0.417000       1.00800           0
     27949 TIP3     1211     TIP3     OH2      OT      -0.834000       15.9994           0
     27950 TIP3     1211     TIP3     H1       HT       0.417000       1.00800           0
     27951 TIP3     1211     TIP3     H2       HT       0.417000       1.00800           0
     27952 TIP3     1212     TIP3     OH2      OT      -0.834000       15.9994           0
     27953 TIP3     1212     TIP3     H1       HT       0.417000       1.00800           0
     27954 TIP3     1212     TIP3     H2       HT       0.417000       1.00800           0
     27955 TIP3     1213     TIP3     OH2      OT      -0.834000       15.9994           0
     27956 TIP3     1213     TIP3     H1       HT       0.417000       1.00800           0
     27957 TIP3     1213     TIP3     H2       HT       0.417000       1.00800           0
     27958 TIP3     1214     TIP3     OH2      OT      -0.834000       15.9994           0
     27959 TIP3     1214     TIP3     H1       HT       0.417000       1.00800           0
     27960 TIP3     1214     TIP3     H2       HT       0.417000       1.00800           0
     27961 TIP3     1215     TIP3     OH2      OT      -0.834000       15.9994           0
     27962 TIP3     1215     TIP3     H1       HT       0.417000       1.00800           0
     27963 TIP3     1215     TIP3     H2       HT       0.417000       1.00800           0
     27964 TIP3     1216     TIP3     OH2      OT      -0.834000       15.9994           0
     27965 TIP3     1216     TIP3     H1       HT       0.417000       1.00800           0
     27966 TIP3     1216     TIP3     H2       HT       0.417000       1.00800           0
     27967 TIP3     1217     TIP3     OH2      OT      -0.834000       15.9994           0
     27968 TIP3     1217     TIP3     H1       HT       0.417000       1.00800           0
     27969 TIP3     1217     TIP3     H2       HT       0.417000       1.00800           0
     27970 TIP3     1218     TIP3     OH2      OT      -0.834000       15.9994           0
     27971 TIP3     1218     TIP3     H1       HT       0.417000       1.00800           0
     27972 TIP3     1218     TIP3     H2       HT       0.417000       1.00800           0
     27973 TIP3     1219     TIP3     OH2      OT      -0.834000       15.9994           0
     27974 TIP3     1219     TIP3     H1       HT       0.417000       1.00800           0
     27975 TIP3     1219     TIP3     H2       HT       0.417000       1.00800           0
     27976 TIP3     1220     TIP3     OH2      OT      -0.834000       15.9994           0
     27977 TIP3     1220     TIP3     H1       HT       0.417000       1.00800           0
     27978 TIP3     1220     TIP3     H2       HT       0.417000       1.00800           0
     27979 TIP3     1221     TIP3     OH2      OT      -0.834000       15.9994           0
     27980 TIP3     1221     TIP3     H1       HT       0.417000       1.00800           0
     27981 TIP3     1221     TIP3     H2       HT       0.417000       1.00800           0
     27982 TIP3     1222     TIP3     OH2      OT      -0.834000       15.9994           0
     27983 TIP3     1222     TIP3     H1       HT       0.417000       1.00800           0
     27984 TIP3     1222     TIP3     H2       HT       0.417000       1.00800           0
     27985 TIP3     1223     TIP3     OH2      OT      -0.834000       15.9994           0
     27986 TIP3     1223     TIP3     H1       HT       0.417000       1.00800           0
     27987 TIP3     1223     TIP3     H2       HT       0.417000       1.00800           0
     27988 TIP3     1224     TIP3     OH2      OT      -0.834000       15.9994           0
     27989 TIP3     1224     TIP3     H1       HT       0.417000       1.00800           0
     27990 TIP3     1224     TIP3     H2       HT       0.417000       1.00800           0
     27991 TIP3     1225     TIP3     OH2      OT      -0.834000       15.9994           0
     27992 TIP3     1225     TIP3     H1       HT       0.417000       1.00800           0
     27993 TIP3     1225     TIP3     H2       HT       0.417000       1.00800           0
     27994 TIP3     1226     TIP3     OH2      OT      -0.834000       15.9994           0
     27995 TIP3     1226     TIP3     H1       HT       0.417000       1.00800           0
     27996 TIP3     1226     TIP3     H2       HT       0.417000       1.00800           0
     27997 TIP3     1227     TIP3     OH2      OT      -0.834000       15.9994           0
     27998 TIP3     1227     TIP3     H1       HT       0.417000       1.00800           0
     27999 TIP3     1227     TIP3     H2       HT       0.417000       1.00800           0
     28000 TIP3     1228     TIP3     OH2      OT      -0.834000       15.9994           0
     28001 TIP3     1228     TIP3     H1       HT       0.417000       1.00800           0
     28002 TIP3     1228     TIP3     H2       HT       0.417000       1.00800           0
     28003 TIP3     1229     TIP3     OH2      OT      -0.834000       15.9994           0
     28004 TIP3     1229     TIP3     H1       HT       0.417000       1.00800           0
     28005 TIP3     1229     TIP3     H2       HT       0.417000       1.00800           0
     28006 TIP3     1230     TIP3     OH2      OT      -0.834000       15.9994           0
     28007 TIP3     1230     TIP3     H1       HT       0.417000       1.00800           0
     28008 TIP3     1230     TIP3     H2       HT       0.417000       1.00800           0
     28009 TIP3     1231     TIP3     OH2      OT      -0.834000       15.9994           0
     28010 TIP3     1231     TIP3     H1       HT       0.417000       1.00800           0
     28011 TIP3     1231     TIP3     H2       HT       0.417000       1.00800           0
     28012 TIP3     1232     TIP3     OH2      OT      -0.834000       15.9994           0
     28013 TIP3     1232     TIP3     H1       HT       0.417000       1.00800           0
     28014 TIP3     1232     TIP3     H2       HT       0.417000       1.00800           0
     28015 TIP3     1233     TIP3     OH2      OT      -0.834000       15.9994           0
     28016 TIP3     1233     TIP3     H1       HT       0.417000       1.00800           0
     28017 TIP3     1233     TIP3     H2       HT       0.417000       1.00800           0
     28018 TIP3     1234     TIP3     OH2      OT      -0.834000       15.9994           0
     28019 TIP3     1234     TIP3     H1       HT       0.417000       1.00800           0
     28020 TIP3     1234     TIP3     H2       HT       0.417000       1.00800           0
     28021 TIP3     1235     TIP3     OH2      OT      -0.834000       15.9994           0
     28022 TIP3     1235     TIP3     H1       HT       0.417000       1.00800           0
     28023 TIP3     1235     TIP3     H2       HT       0.417000       1.00800           0
     28024 TIP3     1236     TIP3     OH2      OT      -0.834000       15.9994           0
     28025 TIP3     1236     TIP3     H1       HT       0.417000       1.00800           0
     28026 TIP3     1236     TIP3     H2       HT       0.417000       1.00800           0
     28027 TIP3     1237     TIP3     OH2      OT      -0.834000       15.9994           0
     28028 TIP3     1237     TIP3     H1       HT       0.417000       1.00800           0
     28029 TIP3     1237     TIP3     H2       HT       0.417000       1.00800           0
     28030 TIP3     1238     TIP3     OH2      OT      -0.834000       15.9994           0
     28031 TIP3     1238     TIP3     H1       HT       0.417000       1.00800           0
     28032 TIP3     1238     TIP3     H2       HT       0.417000       1.00800           0
     28033 TIP3     1239     TIP3     OH2      OT      -0.834000       15.9994           0
     28034 TIP3     1239     TIP3     H1       HT       0.417000       1.00800           0
     28035 TIP3     1239     TIP3     H2       HT       0.417000       1.00800           0
     28036 TIP3     1240     TIP3     OH2      OT      -0.834000       15.9994           0
     28037 TIP3     1240     TIP3     H1       HT       0.417000       1.00800           0
     28038 TIP3     1240     TIP3     H2       HT       0.417000       1.00800           0
     28039 TIP3     1241     TIP3     OH2      OT      -0.834000       15.9994           0
     28040 TIP3     1241     TIP3     H1       HT       0.417000       1.00800           0
     28041 TIP3     1241     TIP3     H2       HT       0.417000       1.00800           0
     28042 TIP3     1242     TIP3     OH2      OT      -0.834000       15.9994           0
     28043 TIP3     1242     TIP3     H1       HT       0.417000       1.00800           0
     28044 TIP3     1242     TIP3     H2       HT       0.417000       1.00800           0
     28045 TIP3     1243     TIP3     OH2      OT      -0.834000       15.9994           0
     28046 TIP3     1243     TIP3     H1       HT       0.417000       1.00800           0
     28047 TIP3     1243     TIP3     H2       HT       0.417000       1.00800           0
     28048 TIP3     1244     TIP3     OH2      OT      -0.834000       15.9994           0
     28049 TIP3     1244     TIP3     H1       HT       0.417000       1.00800           0
     28050 TIP3     1244     TIP3     H2       HT       0.417000       1.00800           0
     28051 TIP3     1245     TIP3     OH2      OT      -0.834000       15.9994           0
     28052 TIP3     1245     TIP3     H1       HT       0.417000       1.00800           0
     28053 TIP3     1245     TIP3     H2       HT       0.417000       1.00800           0
     28054 TIP3     1246     TIP3     OH2      OT      -0.834000       15.9994           0
     28055 TIP3     1246     TIP3     H1       HT       0.417000       1.00800           0
     28056 TIP3     1246     TIP3     H2       HT       0.417000       1.00800           0
     28057 TIP3     1247     TIP3     OH2      OT      -0.834000       15.9994           0
     28058 TIP3     1247     TIP3     H1       HT       0.417000       1.00800           0
     28059 TIP3     1247     TIP3     H2       HT       0.417000       1.00800           0
     28060 TIP3     1248     TIP3     OH2      OT      -0.834000       15.9994           0
     28061 TIP3     1248     TIP3     H1       HT       0.417000       1.00800           0
     28062 TIP3     1248     TIP3     H2       HT       0.417000       1.00800           0
     28063 TIP3     1249     TIP3     OH2      OT      -0.834000       15.9994           0
     28064 TIP3     1249     TIP3     H1       HT       0.417000       1.00800           0
     28065 TIP3     1249     TIP3     H2       HT       0.417000       1.00800           0
     28066 TIP3     1250     TIP3     OH2      OT      -0.834000       15.9994           0
     28067 TIP3     1250     TIP3     H1       HT       0.417000       1.00800           0
     28068 TIP3     1250     TIP3     H2       HT       0.417000       1.00800           0
     28069 TIP3     1251     TIP3     OH2      OT      -0.834000       15.9994           0
     28070 TIP3     1251     TIP3     H1       HT       0.417000       1.00800           0
     28071 TIP3     1251     TIP3     H2       HT       0.417000       1.00800           0
     28072 TIP3     1252     TIP3     OH2      OT      -0.834000       15.9994           0
     28073 TIP3     1252     TIP3     H1       HT       0.417000       1.00800           0
     28074 TIP3     1252     TIP3     H2       HT       0.417000       1.00800           0
     28075 TIP3     1253     TIP3     OH2      OT      -0.834000       15.9994           0
     28076 TIP3     1253     TIP3     H1       HT       0.417000       1.00800           0
     28077 TIP3     1253     TIP3     H2       HT       0.417000       1.00800           0
     28078 TIP3     1254     TIP3     OH2      OT      -0.834000       15.9994           0
     28079 TIP3     1254     TIP3     H1       HT       0.417000       1.00800           0
     28080 TIP3     1254     TIP3     H2       HT       0.417000       1.00800           0
     28081 TIP3     1255     TIP3     OH2      OT      -0.834000       15.9994           0
     28082 TIP3     1255     TIP3     H1       HT       0.417000       1.00800           0
     28083 TIP3     1255     TIP3     H2       HT       0.417000       1.00800           0
     28084 TIP3     1256     TIP3     OH2      OT      -0.834000       15.9994           0
     28085 TIP3     1256     TIP3     H1       HT       0.417000       1.00800           0
     28086 TIP3     1256     TIP3     H2       HT       0.417000       1.00800           0
     28087 TIP3     1257     TIP3     OH2      OT      -0.834000       15.9994           0
     28088 TIP3     1257     TIP3     H1       HT       0.417000       1.00800           0
     28089 TIP3     1257     TIP3     H2       HT       0.417000       1.00800           0
     28090 TIP3     1258     TIP3     OH2      OT      -0.834000       15.9994           0
     28091 TIP3     1258     TIP3     H1       HT       0.417000       1.00800           0
     28092 TIP3     1258     TIP3     H2       HT       0.417000       1.00800           0
     28093 TIP3     1259     TIP3     OH2      OT      -0.834000       15.9994           0
     28094 TIP3     1259     TIP3     H1       HT       0.417000       1.00800           0
     28095 TIP3     1259     TIP3     H2       HT       0.417000       1.00800           0
     28096 TIP3     1260     TIP3     OH2      OT      -0.834000       15.9994           0
     28097 TIP3     1260     TIP3     H1       HT       0.417000       1.00800           0
     28098 TIP3     1260     TIP3     H2       HT       0.417000       1.00800           0
     28099 TIP3     1261     TIP3     OH2      OT      -0.834000       15.9994           0
     28100 TIP3     1261     TIP3     H1       HT       0.417000       1.00800           0
     28101 TIP3     1261     TIP3     H2       HT       0.417000       1.00800           0
     28102 TIP3     1262     TIP3     OH2      OT      -0.834000       15.9994           0
     28103 TIP3     1262     TIP3     H1       HT       0.417000       1.00800           0
     28104 TIP3     1262     TIP3     H2       HT       0.417000       1.00800           0
     28105 TIP3     1263     TIP3     OH2      OT      -0.834000       15.9994           0
     28106 TIP3     1263     TIP3     H1       HT       0.417000       1.00800           0
     28107 TIP3     1263     TIP3     H2       HT       0.417000       1.00800           0
     28108 TIP3     1264     TIP3     OH2      OT      -0.834000       15.9994           0
     28109 TIP3     1264     TIP3     H1       HT       0.417000       1.00800           0
     28110 TIP3     1264     TIP3     H2       HT       0.417000       1.00800           0
     28111 TIP3     1265     TIP3     OH2      OT      -0.834000       15.9994           0
     28112 TIP3     1265     TIP3     H1       HT       0.417000       1.00800           0
     28113 TIP3     1265     TIP3     H2       HT       0.417000       1.00800           0
     28114 TIP3     1266     TIP3     OH2      OT      -0.834000       15.9994           0
     28115 TIP3     1266     TIP3     H1       HT       0.417000       1.00800           0
     28116 TIP3     1266     TIP3     H2       HT       0.417000       1.00800           0
     28117 TIP3     1267     TIP3     OH2      OT      -0.834000       15.9994           0
     28118 TIP3     1267     TIP3     H1       HT       0.417000       1.00800           0
     28119 TIP3     1267     TIP3     H2       HT       0.417000       1.00800           0
     28120 TIP3     1268     TIP3     OH2      OT      -0.834000       15.9994           0
     28121 TIP3     1268     TIP3     H1       HT       0.417000       1.00800           0
     28122 TIP3     1268     TIP3     H2       HT       0.417000       1.00800           0
     28123 TIP3     1269     TIP3     OH2      OT      -0.834000       15.9994           0
     28124 TIP3     1269     TIP3     H1       HT       0.417000       1.00800           0
     28125 TIP3     1269     TIP3     H2       HT       0.417000       1.00800           0
     28126 TIP3     1270     TIP3     OH2      OT      -0.834000       15.9994           0
     28127 TIP3     1270     TIP3     H1       HT       0.417000       1.00800           0
     28128 TIP3     1270     TIP3     H2       HT       0.417000       1.00800           0
     28129 TIP3     1271     TIP3     OH2      OT      -0.834000       15.9994           0
     28130 TIP3     1271     TIP3     H1       HT       0.417000       1.00800           0
     28131 TIP3     1271     TIP3     H2       HT       0.417000       1.00800           0
     28132 TIP3     1272     TIP3     OH2      OT      -0.834000       15.9994           0
     28133 TIP3     1272     TIP3     H1       HT       0.417000       1.00800           0
     28134 TIP3     1272     TIP3     H2       HT       0.417000       1.00800           0
     28135 TIP3     1273     TIP3     OH2      OT      -0.834000       15.9994           0
     28136 TIP3     1273     TIP3     H1       HT       0.417000       1.00800           0
     28137 TIP3     1273     TIP3     H2       HT       0.417000       1.00800           0
     28138 TIP3     1274     TIP3     OH2      OT      -0.834000       15.9994           0
     28139 TIP3     1274     TIP3     H1       HT       0.417000       1.00800           0
     28140 TIP3     1274     TIP3     H2       HT       0.417000       1.00800           0
     28141 TIP3     1275     TIP3     OH2      OT      -0.834000       15.9994           0
     28142 TIP3     1275     TIP3     H1       HT       0.417000       1.00800           0
     28143 TIP3     1275     TIP3     H2       HT       0.417000       1.00800           0
     28144 TIP3     1276     TIP3     OH2      OT      -0.834000       15.9994           0
     28145 TIP3     1276     TIP3     H1       HT       0.417000       1.00800           0
     28146 TIP3     1276     TIP3     H2       HT       0.417000       1.00800           0
     28147 TIP3     1277     TIP3     OH2      OT      -0.834000       15.9994           0
     28148 TIP3     1277     TIP3     H1       HT       0.417000       1.00800           0
     28149 TIP3     1277     TIP3     H2       HT       0.417000       1.00800           0
     28150 TIP3     1278     TIP3     OH2      OT      -0.834000       15.9994           0
     28151 TIP3     1278     TIP3     H1       HT       0.417000       1.00800           0
     28152 TIP3     1278     TIP3     H2       HT       0.417000       1.00800           0
     28153 TIP3     1279     TIP3     OH2      OT      -0.834000       15.9994           0
     28154 TIP3     1279     TIP3     H1       HT       0.417000       1.00800           0
     28155 TIP3     1279     TIP3     H2       HT       0.417000       1.00800           0
     28156 TIP3     1280     TIP3     OH2      OT      -0.834000       15.9994           0
     28157 TIP3     1280     TIP3     H1       HT       0.417000       1.00800           0
     28158 TIP3     1280     TIP3     H2       HT       0.417000       1.00800           0
     28159 TIP3     1281     TIP3     OH2      OT      -0.834000       15.9994           0
     28160 TIP3     1281     TIP3     H1       HT       0.417000       1.00800           0
     28161 TIP3     1281     TIP3     H2       HT       0.417000       1.00800           0
     28162 TIP3     1282     TIP3     OH2      OT      -0.834000       15.9994           0
     28163 TIP3     1282     TIP3     H1       HT       0.417000       1.00800           0
     28164 TIP3     1282     TIP3     H2       HT       0.417000       1.00800           0
     28165 TIP3     1283     TIP3     OH2      OT      -0.834000       15.9994           0
     28166 TIP3     1283     TIP3     H1       HT       0.417000       1.00800           0
     28167 TIP3     1283     TIP3     H2       HT       0.417000       1.00800           0
     28168 TIP3     1284     TIP3     OH2      OT      -0.834000       15.9994           0
     28169 TIP3     1284     TIP3     H1       HT       0.417000       1.00800           0
     28170 TIP3     1284     TIP3     H2       HT       0.417000       1.00800           0
     28171 TIP3     1285     TIP3     OH2      OT      -0.834000       15.9994           0
     28172 TIP3     1285     TIP3     H1       HT       0.417000       1.00800           0
     28173 TIP3     1285     TIP3     H2       HT       0.417000       1.00800           0
     28174 TIP3     1286     TIP3     OH2      OT      -0.834000       15.9994           0
     28175 TIP3     1286     TIP3     H1       HT       0.417000       1.00800           0
     28176 TIP3     1286     TIP3     H2       HT       0.417000       1.00800           0
     28177 TIP3     1287     TIP3     OH2      OT      -0.834000       15.9994           0
     28178 TIP3     1287     TIP3     H1       HT       0.417000       1.00800           0
     28179 TIP3     1287     TIP3     H2       HT       0.417000       1.00800           0
     28180 TIP3     1288     TIP3     OH2      OT      -0.834000       15.9994           0
     28181 TIP3     1288     TIP3     H1       HT       0.417000       1.00800           0
     28182 TIP3     1288     TIP3     H2       HT       0.417000       1.00800           0
     28183 TIP3     1289     TIP3     OH2      OT      -0.834000       15.9994           0
     28184 TIP3     1289     TIP3     H1       HT       0.417000       1.00800           0
     28185 TIP3     1289     TIP3     H2       HT       0.417000       1.00800           0
     28186 TIP3     1290     TIP3     OH2      OT      -0.834000       15.9994           0
     28187 TIP3     1290     TIP3     H1       HT       0.417000       1.00800           0
     28188 TIP3     1290     TIP3     H2       HT       0.417000       1.00800           0
     28189 TIP3     1291     TIP3     OH2      OT      -0.834000       15.9994           0
     28190 TIP3     1291     TIP3     H1       HT       0.417000       1.00800           0
     28191 TIP3     1291     TIP3     H2       HT       0.417000       1.00800           0
     28192 TIP3     1292     TIP3     OH2      OT      -0.834000       15.9994           0
     28193 TIP3     1292     TIP3     H1       HT       0.417000       1.00800           0
     28194 TIP3     1292     TIP3     H2       HT       0.417000       1.00800           0
     28195 TIP3     1293     TIP3     OH2      OT      -0.834000       15.9994           0
     28196 TIP3     1293     TIP3     H1       HT       0.417000       1.00800           0
     28197 TIP3     1293     TIP3     H2       HT       0.417000       1.00800           0
     28198 TIP3     1294     TIP3     OH2      OT      -0.834000       15.9994           0
     28199 TIP3     1294     TIP3     H1       HT       0.417000       1.00800           0
     28200 TIP3     1294     TIP3     H2       HT       0.417000       1.00800           0
     28201 TIP3     1295     TIP3     OH2      OT      -0.834000       15.9994           0
     28202 TIP3     1295     TIP3     H1       HT       0.417000       1.00800           0
     28203 TIP3     1295     TIP3     H2       HT       0.417000       1.00800           0
     28204 TIP3     1296     TIP3     OH2      OT      -0.834000       15.9994           0
     28205 TIP3     1296     TIP3     H1       HT       0.417000       1.00800           0
     28206 TIP3     1296     TIP3     H2       HT       0.417000       1.00800           0
     28207 TIP3     1297     TIP3     OH2      OT      -0.834000       15.9994           0
     28208 TIP3     1297     TIP3     H1       HT       0.417000       1.00800           0
     28209 TIP3     1297     TIP3     H2       HT       0.417000       1.00800           0
     28210 TIP3     1298     TIP3     OH2      OT      -0.834000       15.9994           0
     28211 TIP3     1298     TIP3     H1       HT       0.417000       1.00800           0
     28212 TIP3     1298     TIP3     H2       HT       0.417000       1.00800           0
     28213 TIP3     1299     TIP3     OH2      OT      -0.834000       15.9994           0
     28214 TIP3     1299     TIP3     H1       HT       0.417000       1.00800           0
     28215 TIP3     1299     TIP3     H2       HT       0.417000       1.00800           0
     28216 TIP3     1300     TIP3     OH2      OT      -0.834000       15.9994           0
     28217 TIP3     1300     TIP3     H1       HT       0.417000       1.00800           0
     28218 TIP3     1300     TIP3     H2       HT       0.417000       1.00800           0
     28219 TIP3     1301     TIP3     OH2      OT      -0.834000       15.9994           0
     28220 TIP3     1301     TIP3     H1       HT       0.417000       1.00800           0
     28221 TIP3     1301     TIP3     H2       HT       0.417000       1.00800           0
     28222 TIP3     1302     TIP3     OH2      OT      -0.834000       15.9994           0
     28223 TIP3     1302     TIP3     H1       HT       0.417000       1.00800           0
     28224 TIP3     1302     TIP3     H2       HT       0.417000       1.00800           0
     28225 TIP3     1303     TIP3     OH2      OT      -0.834000       15.9994           0
     28226 TIP3     1303     TIP3     H1       HT       0.417000       1.00800           0
     28227 TIP3     1303     TIP3     H2       HT       0.417000       1.00800           0
     28228 TIP3     1304     TIP3     OH2      OT      -0.834000       15.9994           0
     28229 TIP3     1304     TIP3     H1       HT       0.417000       1.00800           0
     28230 TIP3     1304     TIP3     H2       HT       0.417000       1.00800           0
     28231 TIP3     1305     TIP3     OH2      OT      -0.834000       15.9994           0
     28232 TIP3     1305     TIP3     H1       HT       0.417000       1.00800           0
     28233 TIP3     1305     TIP3     H2       HT       0.417000       1.00800           0
     28234 TIP3     1306     TIP3     OH2      OT      -0.834000       15.9994           0
     28235 TIP3     1306     TIP3     H1       HT       0.417000       1.00800           0
     28236 TIP3     1306     TIP3     H2       HT       0.417000       1.00800           0
     28237 TIP3     1307     TIP3     OH2      OT      -0.834000       15.9994           0
     28238 TIP3     1307     TIP3     H1       HT       0.417000       1.00800           0
     28239 TIP3     1307     TIP3     H2       HT       0.417000       1.00800           0
     28240 TIP3     1308     TIP3     OH2      OT      -0.834000       15.9994           0
     28241 TIP3     1308     TIP3     H1       HT       0.417000       1.00800           0
     28242 TIP3     1308     TIP3     H2       HT       0.417000       1.00800           0
     28243 TIP3     1309     TIP3     OH2      OT      -0.834000       15.9994           0
     28244 TIP3     1309     TIP3     H1       HT       0.417000       1.00800           0
     28245 TIP3     1309     TIP3     H2       HT       0.417000       1.00800           0
     28246 TIP3     1310     TIP3     OH2      OT      -0.834000       15.9994           0
     28247 TIP3     1310     TIP3     H1       HT       0.417000       1.00800           0
     28248 TIP3     1310     TIP3     H2       HT       0.417000       1.00800           0
     28249 TIP3     1311     TIP3     OH2      OT      -0.834000       15.9994           0
     28250 TIP3     1311     TIP3     H1       HT       0.417000       1.00800           0
     28251 TIP3     1311     TIP3     H2       HT       0.417000       1.00800           0
     28252 TIP3     1312     TIP3     OH2      OT      -0.834000       15.9994           0
     28253 TIP3     1312     TIP3     H1       HT       0.417000       1.00800           0
     28254 TIP3     1312     TIP3     H2       HT       0.417000       1.00800           0
     28255 TIP3     1313     TIP3     OH2      OT      -0.834000       15.9994           0
     28256 TIP3     1313     TIP3     H1       HT       0.417000       1.00800           0
     28257 TIP3     1313     TIP3     H2       HT       0.417000       1.00800           0
     28258 TIP3     1314     TIP3     OH2      OT      -0.834000       15.9994           0
     28259 TIP3     1314     TIP3     H1       HT       0.417000       1.00800           0
     28260 TIP3     1314     TIP3     H2       HT       0.417000       1.00800           0
     28261 TIP3     1315     TIP3     OH2      OT      -0.834000       15.9994           0
     28262 TIP3     1315     TIP3     H1       HT       0.417000       1.00800           0
     28263 TIP3     1315     TIP3     H2       HT       0.417000       1.00800           0
     28264 TIP3     1316     TIP3     OH2      OT      -0.834000       15.9994           0
     28265 TIP3     1316     TIP3     H1       HT       0.417000       1.00800           0
     28266 TIP3     1316     TIP3     H2       HT       0.417000       1.00800           0
     28267 TIP3     1317     TIP3     OH2      OT      -0.834000       15.9994           0
     28268 TIP3     1317     TIP3     H1       HT       0.417000       1.00800           0
     28269 TIP3     1317     TIP3     H2       HT       0.417000       1.00800           0
     28270 TIP3     1318     TIP3     OH2      OT      -0.834000       15.9994           0
     28271 TIP3     1318     TIP3     H1       HT       0.417000       1.00800           0
     28272 TIP3     1318     TIP3     H2       HT       0.417000       1.00800           0
     28273 TIP3     1319     TIP3     OH2      OT      -0.834000       15.9994           0
     28274 TIP3     1319     TIP3     H1       HT       0.417000       1.00800           0
     28275 TIP3     1319     TIP3     H2       HT       0.417000       1.00800           0
     28276 TIP3     1320     TIP3     OH2      OT      -0.834000       15.9994           0
     28277 TIP3     1320     TIP3     H1       HT       0.417000       1.00800           0
     28278 TIP3     1320     TIP3     H2       HT       0.417000       1.00800           0
     28279 TIP3     1321     TIP3     OH2      OT      -0.834000       15.9994           0
     28280 TIP3     1321     TIP3     H1       HT       0.417000       1.00800           0
     28281 TIP3     1321     TIP3     H2       HT       0.417000       1.00800           0
     28282 TIP3     1322     TIP3     OH2      OT      -0.834000       15.9994           0
     28283 TIP3     1322     TIP3     H1       HT       0.417000       1.00800           0
     28284 TIP3     1322     TIP3     H2       HT       0.417000       1.00800           0
     28285 TIP3     1323     TIP3     OH2      OT      -0.834000       15.9994           0
     28286 TIP3     1323     TIP3     H1       HT       0.417000       1.00800           0
     28287 TIP3     1323     TIP3     H2       HT       0.417000       1.00800           0
     28288 TIP3     1324     TIP3     OH2      OT      -0.834000       15.9994           0
     28289 TIP3     1324     TIP3     H1       HT       0.417000       1.00800           0
     28290 TIP3     1324     TIP3     H2       HT       0.417000       1.00800           0
     28291 TIP3     1325     TIP3     OH2      OT      -0.834000       15.9994           0
     28292 TIP3     1325     TIP3     H1       HT       0.417000       1.00800           0
     28293 TIP3     1325     TIP3     H2       HT       0.417000       1.00800           0
     28294 TIP3     1326     TIP3     OH2      OT      -0.834000       15.9994           0
     28295 TIP3     1326     TIP3     H1       HT       0.417000       1.00800           0
     28296 TIP3     1326     TIP3     H2       HT       0.417000       1.00800           0
     28297 TIP3     1327     TIP3     OH2      OT      -0.834000       15.9994           0
     28298 TIP3     1327     TIP3     H1       HT       0.417000       1.00800           0
     28299 TIP3     1327     TIP3     H2       HT       0.417000       1.00800           0
     28300 TIP3     1328     TIP3     OH2      OT      -0.834000       15.9994           0
     28301 TIP3     1328     TIP3     H1       HT       0.417000       1.00800           0
     28302 TIP3     1328     TIP3     H2       HT       0.417000       1.00800           0
     28303 TIP3     1329     TIP3     OH2      OT      -0.834000       15.9994           0
     28304 TIP3     1329     TIP3     H1       HT       0.417000       1.00800           0
     28305 TIP3     1329     TIP3     H2       HT       0.417000       1.00800           0
     28306 TIP3     1330     TIP3     OH2      OT      -0.834000       15.9994           0
     28307 TIP3     1330     TIP3     H1       HT       0.417000       1.00800           0
     28308 TIP3     1330     TIP3     H2       HT       0.417000       1.00800           0
     28309 TIP3     1331     TIP3     OH2      OT      -0.834000       15.9994           0
     28310 TIP3     1331     TIP3     H1       HT       0.417000       1.00800           0
     28311 TIP3     1331     TIP3     H2       HT       0.417000       1.00800           0
     28312 TIP3     1332     TIP3     OH2      OT      -0.834000       15.9994           0
     28313 TIP3     1332     TIP3     H1       HT       0.417000       1.00800           0
     28314 TIP3     1332     TIP3     H2       HT       0.417000       1.00800           0
     28315 TIP3     1333     TIP3     OH2      OT      -0.834000       15.9994           0
     28316 TIP3     1333     TIP3     H1       HT       0.417000       1.00800           0
     28317 TIP3     1333     TIP3     H2       HT       0.417000       1.00800           0
     28318 TIP3     1334     TIP3     OH2      OT      -0.834000       15.9994           0
     28319 TIP3     1334     TIP3     H1       HT       0.417000       1.00800           0
     28320 TIP3     1334     TIP3     H2       HT       0.417000       1.00800           0
     28321 TIP3     1335     TIP3     OH2      OT      -0.834000       15.9994           0
     28322 TIP3     1335     TIP3     H1       HT       0.417000       1.00800           0
     28323 TIP3     1335     TIP3     H2       HT       0.417000       1.00800           0
     28324 TIP3     1336     TIP3     OH2      OT      -0.834000       15.9994           0
     28325 TIP3     1336     TIP3     H1       HT       0.417000       1.00800           0
     28326 TIP3     1336     TIP3     H2       HT       0.417000       1.00800           0
     28327 TIP3     1337     TIP3     OH2      OT      -0.834000       15.9994           0
     28328 TIP3     1337     TIP3     H1       HT       0.417000       1.00800           0
     28329 TIP3     1337     TIP3     H2       HT       0.417000       1.00800           0
     28330 TIP3     1338     TIP3     OH2      OT      -0.834000       15.9994           0
     28331 TIP3     1338     TIP3     H1       HT       0.417000       1.00800           0
     28332 TIP3     1338     TIP3     H2       HT       0.417000       1.00800           0
     28333 TIP3     1339     TIP3     OH2      OT      -0.834000       15.9994           0
     28334 TIP3     1339     TIP3     H1       HT       0.417000       1.00800           0
     28335 TIP3     1339     TIP3     H2       HT       0.417000       1.00800           0
     28336 TIP3     1340     TIP3     OH2      OT      -0.834000       15.9994           0
     28337 TIP3     1340     TIP3     H1       HT       0.417000       1.00800           0
     28338 TIP3     1340     TIP3     H2       HT       0.417000       1.00800           0
     28339 TIP3     1341     TIP3     OH2      OT      -0.834000       15.9994           0
     28340 TIP3     1341     TIP3     H1       HT       0.417000       1.00800           0
     28341 TIP3     1341     TIP3     H2       HT       0.417000       1.00800           0
     28342 TIP3     1342     TIP3     OH2      OT      -0.834000       15.9994           0
     28343 TIP3     1342     TIP3     H1       HT       0.417000       1.00800           0
     28344 TIP3     1342     TIP3     H2       HT       0.417000       1.00800           0
     28345 TIP3     1343     TIP3     OH2      OT      -0.834000       15.9994           0
     28346 TIP3     1343     TIP3     H1       HT       0.417000       1.00800           0
     28347 TIP3     1343     TIP3     H2       HT       0.417000       1.00800           0
     28348 TIP3     1344     TIP3     OH2      OT      -0.834000       15.9994           0
     28349 TIP3     1344     TIP3     H1       HT       0.417000       1.00800           0
     28350 TIP3     1344     TIP3     H2       HT       0.417000       1.00800           0
     28351 TIP3     1345     TIP3     OH2      OT      -0.834000       15.9994           0
     28352 TIP3     1345     TIP3     H1       HT       0.417000       1.00800           0
     28353 TIP3     1345     TIP3     H2       HT       0.417000       1.00800           0
     28354 TIP3     1346     TIP3     OH2      OT      -0.834000       15.9994           0
     28355 TIP3     1346     TIP3     H1       HT       0.417000       1.00800           0
     28356 TIP3     1346     TIP3     H2       HT       0.417000       1.00800           0
     28357 TIP3     1347     TIP3     OH2      OT      -0.834000       15.9994           0
     28358 TIP3     1347     TIP3     H1       HT       0.417000       1.00800           0
     28359 TIP3     1347     TIP3     H2       HT       0.417000       1.00800           0
     28360 TIP3     1348     TIP3     OH2      OT      -0.834000       15.9994           0
     28361 TIP3     1348     TIP3     H1       HT       0.417000       1.00800           0
     28362 TIP3     1348     TIP3     H2       HT       0.417000       1.00800           0
     28363 TIP3     1349     TIP3     OH2      OT      -0.834000       15.9994           0
     28364 TIP3     1349     TIP3     H1       HT       0.417000       1.00800           0
     28365 TIP3     1349     TIP3     H2       HT       0.417000       1.00800           0
     28366 TIP3     1350     TIP3     OH2      OT      -0.834000       15.9994           0
     28367 TIP3     1350     TIP3     H1       HT       0.417000       1.00800           0
     28368 TIP3     1350     TIP3     H2       HT       0.417000       1.00800           0
     28369 TIP3     1351     TIP3     OH2      OT      -0.834000       15.9994           0
     28370 TIP3     1351     TIP3     H1       HT       0.417000       1.00800           0
     28371 TIP3     1351     TIP3     H2       HT       0.417000       1.00800           0
     28372 TIP3     1352     TIP3     OH2      OT      -0.834000       15.9994           0
     28373 TIP3     1352     TIP3     H1       HT       0.417000       1.00800           0
     28374 TIP3     1352     TIP3     H2       HT       0.417000       1.00800           0
     28375 TIP3     1353     TIP3     OH2      OT      -0.834000       15.9994           0
     28376 TIP3     1353     TIP3     H1       HT       0.417000       1.00800           0
     28377 TIP3     1353     TIP3     H2       HT       0.417000       1.00800           0
     28378 TIP3     1354     TIP3     OH2      OT      -0.834000       15.9994           0
     28379 TIP3     1354     TIP3     H1       HT       0.417000       1.00800           0
     28380 TIP3     1354     TIP3     H2       HT       0.417000       1.00800           0
     28381 TIP3     1355     TIP3     OH2      OT      -0.834000       15.9994           0
     28382 TIP3     1355     TIP3     H1       HT       0.417000       1.00800           0
     28383 TIP3     1355     TIP3     H2       HT       0.417000       1.00800           0
     28384 TIP3     1356     TIP3     OH2      OT      -0.834000       15.9994           0
     28385 TIP3     1356     TIP3     H1       HT       0.417000       1.00800           0
     28386 TIP3     1356     TIP3     H2       HT       0.417000       1.00800           0
     28387 TIP3     1357     TIP3     OH2      OT      -0.834000       15.9994           0
     28388 TIP3     1357     TIP3     H1       HT       0.417000       1.00800           0
     28389 TIP3     1357     TIP3     H2       HT       0.417000       1.00800           0
     28390 TIP3     1358     TIP3     OH2      OT      -0.834000       15.9994           0
     28391 TIP3     1358     TIP3     H1       HT       0.417000       1.00800           0
     28392 TIP3     1358     TIP3     H2       HT       0.417000       1.00800           0
     28393 TIP3     1359     TIP3     OH2      OT      -0.834000       15.9994           0
     28394 TIP3     1359     TIP3     H1       HT       0.417000       1.00800           0
     28395 TIP3     1359     TIP3     H2       HT       0.417000       1.00800           0
     28396 TIP3     1360     TIP3     OH2      OT      -0.834000       15.9994           0
     28397 TIP3     1360     TIP3     H1       HT       0.417000       1.00800           0
     28398 TIP3     1360     TIP3     H2       HT       0.417000       1.00800           0
     28399 TIP3     1361     TIP3     OH2      OT      -0.834000       15.9994           0
     28400 TIP3     1361     TIP3     H1       HT       0.417000       1.00800           0
     28401 TIP3     1361     TIP3     H2       HT       0.417000       1.00800           0
     28402 TIP3     1362     TIP3     OH2      OT      -0.834000       15.9994           0
     28403 TIP3     1362     TIP3     H1       HT       0.417000       1.00800           0
     28404 TIP3     1362     TIP3     H2       HT       0.417000       1.00800           0
     28405 TIP3     1363     TIP3     OH2      OT      -0.834000       15.9994           0
     28406 TIP3     1363     TIP3     H1       HT       0.417000       1.00800           0
     28407 TIP3     1363     TIP3     H2       HT       0.417000       1.00800           0
     28408 TIP3     1364     TIP3     OH2      OT      -0.834000       15.9994           0
     28409 TIP3     1364     TIP3     H1       HT       0.417000       1.00800           0
     28410 TIP3     1364     TIP3     H2       HT       0.417000       1.00800           0
     28411 TIP3     1365     TIP3     OH2      OT      -0.834000       15.9994           0
     28412 TIP3     1365     TIP3     H1       HT       0.417000       1.00800           0
     28413 TIP3     1365     TIP3     H2       HT       0.417000       1.00800           0
     28414 TIP3     1366     TIP3     OH2      OT      -0.834000       15.9994           0
     28415 TIP3     1366     TIP3     H1       HT       0.417000       1.00800           0
     28416 TIP3     1366     TIP3     H2       HT       0.417000       1.00800           0
     28417 TIP3     1367     TIP3     OH2      OT      -0.834000       15.9994           0
     28418 TIP3     1367     TIP3     H1       HT       0.417000       1.00800           0
     28419 TIP3     1367     TIP3     H2       HT       0.417000       1.00800           0
     28420 TIP3     1368     TIP3     OH2      OT      -0.834000       15.9994           0
     28421 TIP3     1368     TIP3     H1       HT       0.417000       1.00800           0
     28422 TIP3     1368     TIP3     H2       HT       0.417000       1.00800           0
     28423 TIP3     1369     TIP3     OH2      OT      -0.834000       15.9994           0
     28424 TIP3     1369     TIP3     H1       HT       0.417000       1.00800           0
     28425 TIP3     1369     TIP3     H2       HT       0.417000       1.00800           0
     28426 TIP3     1370     TIP3     OH2      OT      -0.834000       15.9994           0
     28427 TIP3     1370     TIP3     H1       HT       0.417000       1.00800           0
     28428 TIP3     1370     TIP3     H2       HT       0.417000       1.00800           0
     28429 TIP3     1371     TIP3     OH2      OT      -0.834000       15.9994           0
     28430 TIP3     1371     TIP3     H1       HT       0.417000       1.00800           0
     28431 TIP3     1371     TIP3     H2       HT       0.417000       1.00800           0
     28432 TIP3     1372     TIP3     OH2      OT      -0.834000       15.9994           0
     28433 TIP3     1372     TIP3     H1       HT       0.417000       1.00800           0
     28434 TIP3     1372     TIP3     H2       HT       0.417000       1.00800           0
     28435 TIP3     1373     TIP3     OH2      OT      -0.834000       15.9994           0
     28436 TIP3     1373     TIP3     H1       HT       0.417000       1.00800           0
     28437 TIP3     1373     TIP3     H2       HT       0.417000       1.00800           0
     28438 TIP3     1374     TIP3     OH2      OT      -0.834000       15.9994           0
     28439 TIP3     1374     TIP3     H1       HT       0.417000       1.00800           0
     28440 TIP3     1374     TIP3     H2       HT       0.417000       1.00800           0
     28441 TIP3     1375     TIP3     OH2      OT      -0.834000       15.9994           0
     28442 TIP3     1375     TIP3     H1       HT       0.417000       1.00800           0
     28443 TIP3     1375     TIP3     H2       HT       0.417000       1.00800           0
     28444 TIP3     1376     TIP3     OH2      OT      -0.834000       15.9994           0
     28445 TIP3     1376     TIP3     H1       HT       0.417000       1.00800           0
     28446 TIP3     1376     TIP3     H2       HT       0.417000       1.00800           0
     28447 TIP3     1377     TIP3     OH2      OT      -0.834000       15.9994           0
     28448 TIP3     1377     TIP3     H1       HT       0.417000       1.00800           0
     28449 TIP3     1377     TIP3     H2       HT       0.417000       1.00800           0
     28450 TIP3     1378     TIP3     OH2      OT      -0.834000       15.9994           0
     28451 TIP3     1378     TIP3     H1       HT       0.417000       1.00800           0
     28452 TIP3     1378     TIP3     H2       HT       0.417000       1.00800           0
     28453 TIP3     1379     TIP3     OH2      OT      -0.834000       15.9994           0
     28454 TIP3     1379     TIP3     H1       HT       0.417000       1.00800           0
     28455 TIP3     1379     TIP3     H2       HT       0.417000       1.00800           0
     28456 TIP3     1380     TIP3     OH2      OT      -0.834000       15.9994           0
     28457 TIP3     1380     TIP3     H1       HT       0.417000       1.00800           0
     28458 TIP3     1380     TIP3     H2       HT       0.417000       1.00800           0
     28459 TIP3     1381     TIP3     OH2      OT      -0.834000       15.9994           0
     28460 TIP3     1381     TIP3     H1       HT       0.417000       1.00800           0
     28461 TIP3     1381     TIP3     H2       HT       0.417000       1.00800           0
     28462 TIP3     1382     TIP3     OH2      OT      -0.834000       15.9994           0
     28463 TIP3     1382     TIP3     H1       HT       0.417000       1.00800           0
     28464 TIP3     1382     TIP3     H2       HT       0.417000       1.00800           0
     28465 TIP3     1383     TIP3     OH2      OT      -0.834000       15.9994           0
     28466 TIP3     1383     TIP3     H1       HT       0.417000       1.00800           0
     28467 TIP3     1383     TIP3     H2       HT       0.417000       1.00800           0
     28468 TIP3     1384     TIP3     OH2      OT      -0.834000       15.9994           0
     28469 TIP3     1384     TIP3     H1       HT       0.417000       1.00800           0
     28470 TIP3     1384     TIP3     H2       HT       0.417000       1.00800           0
     28471 TIP3     1385     TIP3     OH2      OT      -0.834000       15.9994           0
     28472 TIP3     1385     TIP3     H1       HT       0.417000       1.00800           0
     28473 TIP3     1385     TIP3     H2       HT       0.417000       1.00800           0
     28474 TIP3     1386     TIP3     OH2      OT      -0.834000       15.9994           0
     28475 TIP3     1386     TIP3     H1       HT       0.417000       1.00800           0
     28476 TIP3     1386     TIP3     H2       HT       0.417000       1.00800           0
     28477 TIP3     1387     TIP3     OH2      OT      -0.834000       15.9994           0
     28478 TIP3     1387     TIP3     H1       HT       0.417000       1.00800           0
     28479 TIP3     1387     TIP3     H2       HT       0.417000       1.00800           0
     28480 TIP3     1388     TIP3     OH2      OT      -0.834000       15.9994           0
     28481 TIP3     1388     TIP3     H1       HT       0.417000       1.00800           0
     28482 TIP3     1388     TIP3     H2       HT       0.417000       1.00800           0
     28483 TIP3     1389     TIP3     OH2      OT      -0.834000       15.9994           0
     28484 TIP3     1389     TIP3     H1       HT       0.417000       1.00800           0
     28485 TIP3     1389     TIP3     H2       HT       0.417000       1.00800           0
     28486 TIP3     1390     TIP3     OH2      OT      -0.834000       15.9994           0
     28487 TIP3     1390     TIP3     H1       HT       0.417000       1.00800           0
     28488 TIP3     1390     TIP3     H2       HT       0.417000       1.00800           0
     28489 TIP3     1391     TIP3     OH2      OT      -0.834000       15.9994           0
     28490 TIP3     1391     TIP3     H1       HT       0.417000       1.00800           0
     28491 TIP3     1391     TIP3     H2       HT       0.417000       1.00800           0
     28492 TIP3     1392     TIP3     OH2      OT      -0.834000       15.9994           0
     28493 TIP3     1392     TIP3     H1       HT       0.417000       1.00800           0
     28494 TIP3     1392     TIP3     H2       HT       0.417000       1.00800           0
     28495 TIP3     1393     TIP3     OH2      OT      -0.834000       15.9994           0
     28496 TIP3     1393     TIP3     H1       HT       0.417000       1.00800           0
     28497 TIP3     1393     TIP3     H2       HT       0.417000       1.00800           0
     28498 TIP3     1394     TIP3     OH2      OT      -0.834000       15.9994           0
     28499 TIP3     1394     TIP3     H1       HT       0.417000       1.00800           0
     28500 TIP3     1394     TIP3     H2       HT       0.417000       1.00800           0
     28501 TIP3     1395     TIP3     OH2      OT      -0.834000       15.9994           0
     28502 TIP3     1395     TIP3     H1       HT       0.417000       1.00800           0
     28503 TIP3     1395     TIP3     H2       HT       0.417000       1.00800           0
     28504 TIP3     1396     TIP3     OH2      OT      -0.834000       15.9994           0
     28505 TIP3     1396     TIP3     H1       HT       0.417000       1.00800           0
     28506 TIP3     1396     TIP3     H2       HT       0.417000       1.00800           0
     28507 TIP3     1397     TIP3     OH2      OT      -0.834000       15.9994           0
     28508 TIP3     1397     TIP3     H1       HT       0.417000       1.00800           0
     28509 TIP3     1397     TIP3     H2       HT       0.417000       1.00800           0
     28510 TIP3     1398     TIP3     OH2      OT      -0.834000       15.9994           0
     28511 TIP3     1398     TIP3     H1       HT       0.417000       1.00800           0
     28512 TIP3     1398     TIP3     H2       HT       0.417000       1.00800           0
     28513 TIP3     1399     TIP3     OH2      OT      -0.834000       15.9994           0
     28514 TIP3     1399     TIP3     H1       HT       0.417000       1.00800           0
     28515 TIP3     1399     TIP3     H2       HT       0.417000       1.00800           0
     28516 TIP3     1400     TIP3     OH2      OT      -0.834000       15.9994           0
     28517 TIP3     1400     TIP3     H1       HT       0.417000       1.00800           0
     28518 TIP3     1400     TIP3     H2       HT       0.417000       1.00800           0
     28519 TIP3     1401     TIP3     OH2      OT      -0.834000       15.9994           0
     28520 TIP3     1401     TIP3     H1       HT       0.417000       1.00800           0
     28521 TIP3     1401     TIP3     H2       HT       0.417000       1.00800           0
     28522 TIP3     1402     TIP3     OH2      OT      -0.834000       15.9994           0
     28523 TIP3     1402     TIP3     H1       HT       0.417000       1.00800           0
     28524 TIP3     1402     TIP3     H2       HT       0.417000       1.00800           0
     28525 TIP3     1403     TIP3     OH2      OT      -0.834000       15.9994           0
     28526 TIP3     1403     TIP3     H1       HT       0.417000       1.00800           0
     28527 TIP3     1403     TIP3     H2       HT       0.417000       1.00800           0
     28528 TIP3     1404     TIP3     OH2      OT      -0.834000       15.9994           0
     28529 TIP3     1404     TIP3     H1       HT       0.417000       1.00800           0
     28530 TIP3     1404     TIP3     H2       HT       0.417000       1.00800           0
     28531 TIP3     1405     TIP3     OH2      OT      -0.834000       15.9994           0
     28532 TIP3     1405     TIP3     H1       HT       0.417000       1.00800           0
     28533 TIP3     1405     TIP3     H2       HT       0.417000       1.00800           0
     28534 TIP3     1406     TIP3     OH2      OT      -0.834000       15.9994           0
     28535 TIP3     1406     TIP3     H1       HT       0.417000       1.00800           0
     28536 TIP3     1406     TIP3     H2       HT       0.417000       1.00800           0
     28537 TIP3     1407     TIP3     OH2      OT      -0.834000       15.9994           0
     28538 TIP3     1407     TIP3     H1       HT       0.417000       1.00800           0
     28539 TIP3     1407     TIP3     H2       HT       0.417000       1.00800           0
     28540 TIP3     1408     TIP3     OH2      OT      -0.834000       15.9994           0
     28541 TIP3     1408     TIP3     H1       HT       0.417000       1.00800           0
     28542 TIP3     1408     TIP3     H2       HT       0.417000       1.00800           0
     28543 TIP3     1409     TIP3     OH2      OT      -0.834000       15.9994           0
     28544 TIP3     1409     TIP3     H1       HT       0.417000       1.00800           0
     28545 TIP3     1409     TIP3     H2       HT       0.417000       1.00800           0
     28546 TIP3     1410     TIP3     OH2      OT      -0.834000       15.9994           0
     28547 TIP3     1410     TIP3     H1       HT       0.417000       1.00800           0
     28548 TIP3     1410     TIP3     H2       HT       0.417000       1.00800           0
     28549 TIP3     1411     TIP3     OH2      OT      -0.834000       15.9994           0
     28550 TIP3     1411     TIP3     H1       HT       0.417000       1.00800           0
     28551 TIP3     1411     TIP3     H2       HT       0.417000       1.00800           0
     28552 TIP3     1412     TIP3     OH2      OT      -0.834000       15.9994           0
     28553 TIP3     1412     TIP3     H1       HT       0.417000       1.00800           0
     28554 TIP3     1412     TIP3     H2       HT       0.417000       1.00800           0
     28555 TIP3     1413     TIP3     OH2      OT      -0.834000       15.9994           0
     28556 TIP3     1413     TIP3     H1       HT       0.417000       1.00800           0
     28557 TIP3     1413     TIP3     H2       HT       0.417000       1.00800           0
     28558 TIP3     1414     TIP3     OH2      OT      -0.834000       15.9994           0
     28559 TIP3     1414     TIP3     H1       HT       0.417000       1.00800           0
     28560 TIP3     1414     TIP3     H2       HT       0.417000       1.00800           0
     28561 TIP3     1415     TIP3     OH2      OT      -0.834000       15.9994           0
     28562 TIP3     1415     TIP3     H1       HT       0.417000       1.00800           0
     28563 TIP3     1415     TIP3     H2       HT       0.417000       1.00800           0
     28564 TIP3     1416     TIP3     OH2      OT      -0.834000       15.9994           0
     28565 TIP3     1416     TIP3     H1       HT       0.417000       1.00800           0
     28566 TIP3     1416     TIP3     H2       HT       0.417000       1.00800           0
     28567 TIP3     1417     TIP3     OH2      OT      -0.834000       15.9994           0
     28568 TIP3     1417     TIP3     H1       HT       0.417000       1.00800           0
     28569 TIP3     1417     TIP3     H2       HT       0.417000       1.00800           0
     28570 TIP3     1418     TIP3     OH2      OT      -0.834000       15.9994           0
     28571 TIP3     1418     TIP3     H1       HT       0.417000       1.00800           0
     28572 TIP3     1418     TIP3     H2       HT       0.417000       1.00800           0
     28573 TIP3     1419     TIP3     OH2      OT      -0.834000       15.9994           0
     28574 TIP3     1419     TIP3     H1       HT       0.417000       1.00800           0
     28575 TIP3     1419     TIP3     H2       HT       0.417000       1.00800           0
     28576 TIP3     1420     TIP3     OH2      OT      -0.834000       15.9994           0
     28577 TIP3     1420     TIP3     H1       HT       0.417000       1.00800           0
     28578 TIP3     1420     TIP3     H2       HT       0.417000       1.00800           0
     28579 TIP3     1421     TIP3     OH2      OT      -0.834000       15.9994           0
     28580 TIP3     1421     TIP3     H1       HT       0.417000       1.00800           0
     28581 TIP3     1421     TIP3     H2       HT       0.417000       1.00800           0
     28582 TIP3     1422     TIP3     OH2      OT      -0.834000       15.9994           0
     28583 TIP3     1422     TIP3     H1       HT       0.417000       1.00800           0
     28584 TIP3     1422     TIP3     H2       HT       0.417000       1.00800           0
     28585 TIP3     1423     TIP3     OH2      OT      -0.834000       15.9994           0
     28586 TIP3     1423     TIP3     H1       HT       0.417000       1.00800           0
     28587 TIP3     1423     TIP3     H2       HT       0.417000       1.00800           0
     28588 TIP3     1424     TIP3     OH2      OT      -0.834000       15.9994           0
     28589 TIP3     1424     TIP3     H1       HT       0.417000       1.00800           0
     28590 TIP3     1424     TIP3     H2       HT       0.417000       1.00800           0
     28591 TIP3     1425     TIP3     OH2      OT      -0.834000       15.9994           0
     28592 TIP3     1425     TIP3     H1       HT       0.417000       1.00800           0
     28593 TIP3     1425     TIP3     H2       HT       0.417000       1.00800           0
     28594 TIP3     1426     TIP3     OH2      OT      -0.834000       15.9994           0
     28595 TIP3     1426     TIP3     H1       HT       0.417000       1.00800           0
     28596 TIP3     1426     TIP3     H2       HT       0.417000       1.00800           0
     28597 TIP3     1427     TIP3     OH2      OT      -0.834000       15.9994           0
     28598 TIP3     1427     TIP3     H1       HT       0.417000       1.00800           0
     28599 TIP3     1427     TIP3     H2       HT       0.417000       1.00800           0
     28600 TIP3     1428     TIP3     OH2      OT      -0.834000       15.9994           0
     28601 TIP3     1428     TIP3     H1       HT       0.417000       1.00800           0
     28602 TIP3     1428     TIP3     H2       HT       0.417000       1.00800           0
     28603 TIP3     1429     TIP3     OH2      OT      -0.834000       15.9994           0
     28604 TIP3     1429     TIP3     H1       HT       0.417000       1.00800           0
     28605 TIP3     1429     TIP3     H2       HT       0.417000       1.00800           0
     28606 TIP3     1430     TIP3     OH2      OT      -0.834000       15.9994           0
     28607 TIP3     1430     TIP3     H1       HT       0.417000       1.00800           0
     28608 TIP3     1430     TIP3     H2       HT       0.417000       1.00800           0
     28609 TIP3     1431     TIP3     OH2      OT      -0.834000       15.9994           0
     28610 TIP3     1431     TIP3     H1       HT       0.417000       1.00800           0
     28611 TIP3     1431     TIP3     H2       HT       0.417000       1.00800           0
     28612 TIP3     1432     TIP3     OH2      OT      -0.834000       15.9994           0
     28613 TIP3     1432     TIP3     H1       HT       0.417000       1.00800           0
     28614 TIP3     1432     TIP3     H2       HT       0.417000       1.00800           0
     28615 TIP3     1433     TIP3     OH2      OT      -0.834000       15.9994           0
     28616 TIP3     1433     TIP3     H1       HT       0.417000       1.00800           0
     28617 TIP3     1433     TIP3     H2       HT       0.417000       1.00800           0
     28618 TIP3     1434     TIP3     OH2      OT      -0.834000       15.9994           0
     28619 TIP3     1434     TIP3     H1       HT       0.417000       1.00800           0
     28620 TIP3     1434     TIP3     H2       HT       0.417000       1.00800           0
     28621 TIP3     1435     TIP3     OH2      OT      -0.834000       15.9994           0
     28622 TIP3     1435     TIP3     H1       HT       0.417000       1.00800           0
     28623 TIP3     1435     TIP3     H2       HT       0.417000       1.00800           0
     28624 TIP3     1436     TIP3     OH2      OT      -0.834000       15.9994           0
     28625 TIP3     1436     TIP3     H1       HT       0.417000       1.00800           0
     28626 TIP3     1436     TIP3     H2       HT       0.417000       1.00800           0
     28627 TIP3     1437     TIP3     OH2      OT      -0.834000       15.9994           0
     28628 TIP3     1437     TIP3     H1       HT       0.417000       1.00800           0
     28629 TIP3     1437     TIP3     H2       HT       0.417000       1.00800           0
     28630 TIP3     1438     TIP3     OH2      OT      -0.834000       15.9994           0
     28631 TIP3     1438     TIP3     H1       HT       0.417000       1.00800           0
     28632 TIP3     1438     TIP3     H2       HT       0.417000       1.00800           0
     28633 TIP3     1439     TIP3     OH2      OT      -0.834000       15.9994           0
     28634 TIP3     1439     TIP3     H1       HT       0.417000       1.00800           0
     28635 TIP3     1439     TIP3     H2       HT       0.417000       1.00800           0
     28636 TIP3     1440     TIP3     OH2      OT      -0.834000       15.9994           0
     28637 TIP3     1440     TIP3     H1       HT       0.417000       1.00800           0
     28638 TIP3     1440     TIP3     H2       HT       0.417000       1.00800           0
     28639 TIP3     1441     TIP3     OH2      OT      -0.834000       15.9994           0
     28640 TIP3     1441     TIP3     H1       HT       0.417000       1.00800           0
     28641 TIP3     1441     TIP3     H2       HT       0.417000       1.00800           0
     28642 TIP3     1442     TIP3     OH2      OT      -0.834000       15.9994           0
     28643 TIP3     1442     TIP3     H1       HT       0.417000       1.00800           0
     28644 TIP3     1442     TIP3     H2       HT       0.417000       1.00800           0
     28645 TIP3     1443     TIP3     OH2      OT      -0.834000       15.9994           0
     28646 TIP3     1443     TIP3     H1       HT       0.417000       1.00800           0
     28647 TIP3     1443     TIP3     H2       HT       0.417000       1.00800           0
     28648 TIP3     1444     TIP3     OH2      OT      -0.834000       15.9994           0
     28649 TIP3     1444     TIP3     H1       HT       0.417000       1.00800           0
     28650 TIP3     1444     TIP3     H2       HT       0.417000       1.00800           0
     28651 TIP3     1445     TIP3     OH2      OT      -0.834000       15.9994           0
     28652 TIP3     1445     TIP3     H1       HT       0.417000       1.00800           0
     28653 TIP3     1445     TIP3     H2       HT       0.417000       1.00800           0
     28654 TIP3     1446     TIP3     OH2      OT      -0.834000       15.9994           0
     28655 TIP3     1446     TIP3     H1       HT       0.417000       1.00800           0
     28656 TIP3     1446     TIP3     H2       HT       0.417000       1.00800           0
     28657 TIP3     1447     TIP3     OH2      OT      -0.834000       15.9994           0
     28658 TIP3     1447     TIP3     H1       HT       0.417000       1.00800           0
     28659 TIP3     1447     TIP3     H2       HT       0.417000       1.00800           0
     28660 TIP3     1448     TIP3     OH2      OT      -0.834000       15.9994           0
     28661 TIP3     1448     TIP3     H1       HT       0.417000       1.00800           0
     28662 TIP3     1448     TIP3     H2       HT       0.417000       1.00800           0
     28663 TIP3     1449     TIP3     OH2      OT      -0.834000       15.9994           0
     28664 TIP3     1449     TIP3     H1       HT       0.417000       1.00800           0
     28665 TIP3     1449     TIP3     H2       HT       0.417000       1.00800           0
     28666 TIP3     1450     TIP3     OH2      OT      -0.834000       15.9994           0
     28667 TIP3     1450     TIP3     H1       HT       0.417000       1.00800           0
     28668 TIP3     1450     TIP3     H2       HT       0.417000       1.00800           0
     28669 TIP3     1451     TIP3     OH2      OT      -0.834000       15.9994           0
     28670 TIP3     1451     TIP3     H1       HT       0.417000       1.00800           0
     28671 TIP3     1451     TIP3     H2       HT       0.417000       1.00800           0
     28672 TIP3     1452     TIP3     OH2      OT      -0.834000       15.9994           0
     28673 TIP3     1452     TIP3     H1       HT       0.417000       1.00800           0
     28674 TIP3     1452     TIP3     H2       HT       0.417000       1.00800           0
     28675 TIP3     1453     TIP3     OH2      OT      -0.834000       15.9994           0
     28676 TIP3     1453     TIP3     H1       HT       0.417000       1.00800           0
     28677 TIP3     1453     TIP3     H2       HT       0.417000       1.00800           0
     28678 TIP3     1454     TIP3     OH2      OT      -0.834000       15.9994           0
     28679 TIP3     1454     TIP3     H1       HT       0.417000       1.00800           0
     28680 TIP3     1454     TIP3     H2       HT       0.417000       1.00800           0
     28681 TIP3     1455     TIP3     OH2      OT      -0.834000       15.9994           0
     28682 TIP3     1455     TIP3     H1       HT       0.417000       1.00800           0
     28683 TIP3     1455     TIP3     H2       HT       0.417000       1.00800           0
     28684 TIP3     1456     TIP3     OH2      OT      -0.834000       15.9994           0
     28685 TIP3     1456     TIP3     H1       HT       0.417000       1.00800           0
     28686 TIP3     1456     TIP3     H2       HT       0.417000       1.00800           0
     28687 TIP3     1457     TIP3     OH2      OT      -0.834000       15.9994           0
     28688 TIP3     1457     TIP3     H1       HT       0.417000       1.00800           0
     28689 TIP3     1457     TIP3     H2       HT       0.417000       1.00800           0
     28690 TIP3     1458     TIP3     OH2      OT      -0.834000       15.9994           0
     28691 TIP3     1458     TIP3     H1       HT       0.417000       1.00800           0
     28692 TIP3     1458     TIP3     H2       HT       0.417000       1.00800           0
     28693 TIP3     1459     TIP3     OH2      OT      -0.834000       15.9994           0
     28694 TIP3     1459     TIP3     H1       HT       0.417000       1.00800           0
     28695 TIP3     1459     TIP3     H2       HT       0.417000       1.00800           0
     28696 TIP3     1460     TIP3     OH2      OT      -0.834000       15.9994           0
     28697 TIP3     1460     TIP3     H1       HT       0.417000       1.00800           0
     28698 TIP3     1460     TIP3     H2       HT       0.417000       1.00800           0
     28699 TIP3     1461     TIP3     OH2      OT      -0.834000       15.9994           0
     28700 TIP3     1461     TIP3     H1       HT       0.417000       1.00800           0
     28701 TIP3     1461     TIP3     H2       HT       0.417000       1.00800           0
     28702 TIP3     1462     TIP3     OH2      OT      -0.834000       15.9994           0
     28703 TIP3     1462     TIP3     H1       HT       0.417000       1.00800           0
     28704 TIP3     1462     TIP3     H2       HT       0.417000       1.00800           0
     28705 TIP3     1463     TIP3     OH2      OT      -0.834000       15.9994           0
     28706 TIP3     1463     TIP3     H1       HT       0.417000       1.00800           0
     28707 TIP3     1463     TIP3     H2       HT       0.417000       1.00800           0
     28708 TIP3     1464     TIP3     OH2      OT      -0.834000       15.9994           0
     28709 TIP3     1464     TIP3     H1       HT       0.417000       1.00800           0
     28710 TIP3     1464     TIP3     H2       HT       0.417000       1.00800           0
     28711 TIP3     1465     TIP3     OH2      OT      -0.834000       15.9994           0
     28712 TIP3     1465     TIP3     H1       HT       0.417000       1.00800           0
     28713 TIP3     1465     TIP3     H2       HT       0.417000       1.00800           0
     28714 TIP3     1466     TIP3     OH2      OT      -0.834000       15.9994           0
     28715 TIP3     1466     TIP3     H1       HT       0.417000       1.00800           0
     28716 TIP3     1466     TIP3     H2       HT       0.417000       1.00800           0
     28717 TIP3     1467     TIP3     OH2      OT      -0.834000       15.9994           0
     28718 TIP3     1467     TIP3     H1       HT       0.417000       1.00800           0
     28719 TIP3     1467     TIP3     H2       HT       0.417000       1.00800           0
     28720 TIP3     1468     TIP3     OH2      OT      -0.834000       15.9994           0
     28721 TIP3     1468     TIP3     H1       HT       0.417000       1.00800           0
     28722 TIP3     1468     TIP3     H2       HT       0.417000       1.00800           0
     28723 TIP3     1469     TIP3     OH2      OT      -0.834000       15.9994           0
     28724 TIP3     1469     TIP3     H1       HT       0.417000       1.00800           0
     28725 TIP3     1469     TIP3     H2       HT       0.417000       1.00800           0
     28726 TIP3     1470     TIP3     OH2      OT      -0.834000       15.9994           0
     28727 TIP3     1470     TIP3     H1       HT       0.417000       1.00800           0
     28728 TIP3     1470     TIP3     H2       HT       0.417000       1.00800           0
     28729 TIP3     1471     TIP3     OH2      OT      -0.834000       15.9994           0
     28730 TIP3     1471     TIP3     H1       HT       0.417000       1.00800           0
     28731 TIP3     1471     TIP3     H2       HT       0.417000       1.00800           0
     28732 TIP3     1472     TIP3     OH2      OT      -0.834000       15.9994           0
     28733 TIP3     1472     TIP3     H1       HT       0.417000       1.00800           0
     28734 TIP3     1472     TIP3     H2       HT       0.417000       1.00800           0
     28735 TIP3     1473     TIP3     OH2      OT      -0.834000       15.9994           0
     28736 TIP3     1473     TIP3     H1       HT       0.417000       1.00800           0
     28737 TIP3     1473     TIP3     H2       HT       0.417000       1.00800           0
     28738 TIP3     1474     TIP3     OH2      OT      -0.834000       15.9994           0
     28739 TIP3     1474     TIP3     H1       HT       0.417000       1.00800           0
     28740 TIP3     1474     TIP3     H2       HT       0.417000       1.00800           0
     28741 TIP3     1475     TIP3     OH2      OT      -0.834000       15.9994           0
     28742 TIP3     1475     TIP3     H1       HT       0.417000       1.00800           0
     28743 TIP3     1475     TIP3     H2       HT       0.417000       1.00800           0
     28744 TIP3     1476     TIP3     OH2      OT      -0.834000       15.9994           0
     28745 TIP3     1476     TIP3     H1       HT       0.417000       1.00800           0
     28746 TIP3     1476     TIP3     H2       HT       0.417000       1.00800           0
     28747 TIP3     1477     TIP3     OH2      OT      -0.834000       15.9994           0
     28748 TIP3     1477     TIP3     H1       HT       0.417000       1.00800           0
     28749 TIP3     1477     TIP3     H2       HT       0.417000       1.00800           0
     28750 TIP3     1478     TIP3     OH2      OT      -0.834000       15.9994           0
     28751 TIP3     1478     TIP3     H1       HT       0.417000       1.00800           0
     28752 TIP3     1478     TIP3     H2       HT       0.417000       1.00800           0
     28753 TIP3     1479     TIP3     OH2      OT      -0.834000       15.9994           0
     28754 TIP3     1479     TIP3     H1       HT       0.417000       1.00800           0
     28755 TIP3     1479     TIP3     H2       HT       0.417000       1.00800           0
     28756 TIP3     1480     TIP3     OH2      OT      -0.834000       15.9994           0
     28757 TIP3     1480     TIP3     H1       HT       0.417000       1.00800           0
     28758 TIP3     1480     TIP3     H2       HT       0.417000       1.00800           0
     28759 TIP3     1481     TIP3     OH2      OT      -0.834000       15.9994           0
     28760 TIP3     1481     TIP3     H1       HT       0.417000       1.00800           0
     28761 TIP3     1481     TIP3     H2       HT       0.417000       1.00800           0
     28762 TIP3     1482     TIP3     OH2      OT      -0.834000       15.9994           0
     28763 TIP3     1482     TIP3     H1       HT       0.417000       1.00800           0
     28764 TIP3     1482     TIP3     H2       HT       0.417000       1.00800           0
     28765 TIP3     1483     TIP3     OH2      OT      -0.834000       15.9994           0
     28766 TIP3     1483     TIP3     H1       HT       0.417000       1.00800           0
     28767 TIP3     1483     TIP3     H2       HT       0.417000       1.00800           0
     28768 TIP3     1484     TIP3     OH2      OT      -0.834000       15.9994           0
     28769 TIP3     1484     TIP3     H1       HT       0.417000       1.00800           0
     28770 TIP3     1484     TIP3     H2       HT       0.417000       1.00800           0
     28771 TIP3     1485     TIP3     OH2      OT      -0.834000       15.9994           0
     28772 TIP3     1485     TIP3     H1       HT       0.417000       1.00800           0
     28773 TIP3     1485     TIP3     H2       HT       0.417000       1.00800           0
     28774 TIP3     1486     TIP3     OH2      OT      -0.834000       15.9994           0
     28775 TIP3     1486     TIP3     H1       HT       0.417000       1.00800           0
     28776 TIP3     1486     TIP3     H2       HT       0.417000       1.00800           0
     28777 TIP3     1487     TIP3     OH2      OT      -0.834000       15.9994           0
     28778 TIP3     1487     TIP3     H1       HT       0.417000       1.00800           0
     28779 TIP3     1487     TIP3     H2       HT       0.417000       1.00800           0
     28780 TIP3     1488     TIP3     OH2      OT      -0.834000       15.9994           0
     28781 TIP3     1488     TIP3     H1       HT       0.417000       1.00800           0
     28782 TIP3     1488     TIP3     H2       HT       0.417000       1.00800           0
     28783 TIP3     1489     TIP3     OH2      OT      -0.834000       15.9994           0
     28784 TIP3     1489     TIP3     H1       HT       0.417000       1.00800           0
     28785 TIP3     1489     TIP3     H2       HT       0.417000       1.00800           0
     28786 TIP3     1490     TIP3     OH2      OT      -0.834000       15.9994           0
     28787 TIP3     1490     TIP3     H1       HT       0.417000       1.00800           0
     28788 TIP3     1490     TIP3     H2       HT       0.417000       1.00800           0
     28789 TIP3     1491     TIP3     OH2      OT      -0.834000       15.9994           0
     28790 TIP3     1491     TIP3     H1       HT       0.417000       1.00800           0
     28791 TIP3     1491     TIP3     H2       HT       0.417000       1.00800           0
     28792 TIP3     1492     TIP3     OH2      OT      -0.834000       15.9994           0
     28793 TIP3     1492     TIP3     H1       HT       0.417000       1.00800           0
     28794 TIP3     1492     TIP3     H2       HT       0.417000       1.00800           0
     28795 TIP3     1493     TIP3     OH2      OT      -0.834000       15.9994           0
     28796 TIP3     1493     TIP3     H1       HT       0.417000       1.00800           0
     28797 TIP3     1493     TIP3     H2       HT       0.417000       1.00800           0
     28798 TIP3     1494     TIP3     OH2      OT      -0.834000       15.9994           0
     28799 TIP3     1494     TIP3     H1       HT       0.417000       1.00800           0
     28800 TIP3     1494     TIP3     H2       HT       0.417000       1.00800           0
     28801 TIP3     1495     TIP3     OH2      OT      -0.834000       15.9994           0
     28802 TIP3     1495     TIP3     H1       HT       0.417000       1.00800           0
     28803 TIP3     1495     TIP3     H2       HT       0.417000       1.00800           0
     28804 TIP3     1496     TIP3     OH2      OT      -0.834000       15.9994           0
     28805 TIP3     1496     TIP3     H1       HT       0.417000       1.00800           0
     28806 TIP3     1496     TIP3     H2       HT       0.417000       1.00800           0
     28807 TIP3     1497     TIP3     OH2      OT      -0.834000       15.9994           0
     28808 TIP3     1497     TIP3     H1       HT       0.417000       1.00800           0
     28809 TIP3     1497     TIP3     H2       HT       0.417000       1.00800           0
     28810 TIP3     1498     TIP3     OH2      OT      -0.834000       15.9994           0
     28811 TIP3     1498     TIP3     H1       HT       0.417000       1.00800           0
     28812 TIP3     1498     TIP3     H2       HT       0.417000       1.00800           0
     28813 TIP3     1499     TIP3     OH2      OT      -0.834000       15.9994           0
     28814 TIP3     1499     TIP3     H1       HT       0.417000       1.00800           0
     28815 TIP3     1499     TIP3     H2       HT       0.417000       1.00800           0
     28816 TIP3     1500     TIP3     OH2      OT      -0.834000       15.9994           0
     28817 TIP3     1500     TIP3     H1       HT       0.417000       1.00800           0
     28818 TIP3     1500     TIP3     H2       HT       0.417000       1.00800           0
     28819 TIP3     1501     TIP3     OH2      OT      -0.834000       15.9994           0
     28820 TIP3     1501     TIP3     H1       HT       0.417000       1.00800           0
     28821 TIP3     1501     TIP3     H2       HT       0.417000       1.00800           0
     28822 TIP3     1502     TIP3     OH2      OT      -0.834000       15.9994           0
     28823 TIP3     1502     TIP3     H1       HT       0.417000       1.00800           0
     28824 TIP3     1502     TIP3     H2       HT       0.417000       1.00800           0
     28825 TIP3     1503     TIP3     OH2      OT      -0.834000       15.9994           0
     28826 TIP3     1503     TIP3     H1       HT       0.417000       1.00800           0
     28827 TIP3     1503     TIP3     H2       HT       0.417000       1.00800           0
     28828 TIP3     1504     TIP3     OH2      OT      -0.834000       15.9994           0
     28829 TIP3     1504     TIP3     H1       HT       0.417000       1.00800           0
     28830 TIP3     1504     TIP3     H2       HT       0.417000       1.00800           0
     28831 TIP3     1505     TIP3     OH2      OT      -0.834000       15.9994           0
     28832 TIP3     1505     TIP3     H1       HT       0.417000       1.00800           0
     28833 TIP3     1505     TIP3     H2       HT       0.417000       1.00800           0
     28834 TIP3     1506     TIP3     OH2      OT      -0.834000       15.9994           0
     28835 TIP3     1506     TIP3     H1       HT       0.417000       1.00800           0
     28836 TIP3     1506     TIP3     H2       HT       0.417000       1.00800           0
     28837 TIP3     1507     TIP3     OH2      OT      -0.834000       15.9994           0
     28838 TIP3     1507     TIP3     H1       HT       0.417000       1.00800           0
     28839 TIP3     1507     TIP3     H2       HT       0.417000       1.00800           0
     28840 TIP3     1508     TIP3     OH2      OT      -0.834000       15.9994           0
     28841 TIP3     1508     TIP3     H1       HT       0.417000       1.00800           0
     28842 TIP3     1508     TIP3     H2       HT       0.417000       1.00800           0
     28843 TIP3     1509     TIP3     OH2      OT      -0.834000       15.9994           0
     28844 TIP3     1509     TIP3     H1       HT       0.417000       1.00800           0
     28845 TIP3     1509     TIP3     H2       HT       0.417000       1.00800           0
     28846 TIP3     1510     TIP3     OH2      OT      -0.834000       15.9994           0
     28847 TIP3     1510     TIP3     H1       HT       0.417000       1.00800           0
     28848 TIP3     1510     TIP3     H2       HT       0.417000       1.00800           0
     28849 TIP3     1511     TIP3     OH2      OT      -0.834000       15.9994           0
     28850 TIP3     1511     TIP3     H1       HT       0.417000       1.00800           0
     28851 TIP3     1511     TIP3     H2       HT       0.417000       1.00800           0
     28852 TIP3     1512     TIP3     OH2      OT      -0.834000       15.9994           0
     28853 TIP3     1512     TIP3     H1       HT       0.417000       1.00800           0
     28854 TIP3     1512     TIP3     H2       HT       0.417000       1.00800           0
     28855 TIP3     1513     TIP3     OH2      OT      -0.834000       15.9994           0
     28856 TIP3     1513     TIP3     H1       HT       0.417000       1.00800           0
     28857 TIP3     1513     TIP3     H2       HT       0.417000       1.00800           0
     28858 TIP3     1514     TIP3     OH2      OT      -0.834000       15.9994           0
     28859 TIP3     1514     TIP3     H1       HT       0.417000       1.00800           0
     28860 TIP3     1514     TIP3     H2       HT       0.417000       1.00800           0
     28861 TIP3     1515     TIP3     OH2      OT      -0.834000       15.9994           0
     28862 TIP3     1515     TIP3     H1       HT       0.417000       1.00800           0
     28863 TIP3     1515     TIP3     H2       HT       0.417000       1.00800           0
     28864 TIP3     1516     TIP3     OH2      OT      -0.834000       15.9994           0
     28865 TIP3     1516     TIP3     H1       HT       0.417000       1.00800           0
     28866 TIP3     1516     TIP3     H2       HT       0.417000       1.00800           0
     28867 TIP3     1517     TIP3     OH2      OT      -0.834000       15.9994           0
     28868 TIP3     1517     TIP3     H1       HT       0.417000       1.00800           0
     28869 TIP3     1517     TIP3     H2       HT       0.417000       1.00800           0
     28870 TIP3     1518     TIP3     OH2      OT      -0.834000       15.9994           0
     28871 TIP3     1518     TIP3     H1       HT       0.417000       1.00800           0
     28872 TIP3     1518     TIP3     H2       HT       0.417000       1.00800           0
     28873 TIP3     1519     TIP3     OH2      OT      -0.834000       15.9994           0
     28874 TIP3     1519     TIP3     H1       HT       0.417000       1.00800           0
     28875 TIP3     1519     TIP3     H2       HT       0.417000       1.00800           0
     28876 TIP3     1520     TIP3     OH2      OT      -0.834000       15.9994           0
     28877 TIP3     1520     TIP3     H1       HT       0.417000       1.00800           0
     28878 TIP3     1520     TIP3     H2       HT       0.417000       1.00800           0
     28879 TIP3     1521     TIP3     OH2      OT      -0.834000       15.9994           0
     28880 TIP3     1521     TIP3     H1       HT       0.417000       1.00800           0
     28881 TIP3     1521     TIP3     H2       HT       0.417000       1.00800           0
     28882 TIP3     1522     TIP3     OH2      OT      -0.834000       15.9994           0
     28883 TIP3     1522     TIP3     H1       HT       0.417000       1.00800           0
     28884 TIP3     1522     TIP3     H2       HT       0.417000       1.00800           0
     28885 TIP3     1523     TIP3     OH2      OT      -0.834000       15.9994           0
     28886 TIP3     1523     TIP3     H1       HT       0.417000       1.00800           0
     28887 TIP3     1523     TIP3     H2       HT       0.417000       1.00800           0
     28888 TIP3     1524     TIP3     OH2      OT      -0.834000       15.9994           0
     28889 TIP3     1524     TIP3     H1       HT       0.417000       1.00800           0
     28890 TIP3     1524     TIP3     H2       HT       0.417000       1.00800           0
     28891 TIP3     1525     TIP3     OH2      OT      -0.834000       15.9994           0
     28892 TIP3     1525     TIP3     H1       HT       0.417000       1.00800           0
     28893 TIP3     1525     TIP3     H2       HT       0.417000       1.00800           0
     28894 TIP3     1526     TIP3     OH2      OT      -0.834000       15.9994           0
     28895 TIP3     1526     TIP3     H1       HT       0.417000       1.00800           0
     28896 TIP3     1526     TIP3     H2       HT       0.417000       1.00800           0
     28897 TIP3     1527     TIP3     OH2      OT      -0.834000       15.9994           0
     28898 TIP3     1527     TIP3     H1       HT       0.417000       1.00800           0
     28899 TIP3     1527     TIP3     H2       HT       0.417000       1.00800           0
     28900 TIP3     1528     TIP3     OH2      OT      -0.834000       15.9994           0
     28901 TIP3     1528     TIP3     H1       HT       0.417000       1.00800           0
     28902 TIP3     1528     TIP3     H2       HT       0.417000       1.00800           0
     28903 TIP3     1529     TIP3     OH2      OT      -0.834000       15.9994           0
     28904 TIP3     1529     TIP3     H1       HT       0.417000       1.00800           0
     28905 TIP3     1529     TIP3     H2       HT       0.417000       1.00800           0
     28906 TIP3     1530     TIP3     OH2      OT      -0.834000       15.9994           0
     28907 TIP3     1530     TIP3     H1       HT       0.417000       1.00800           0
     28908 TIP3     1530     TIP3     H2       HT       0.417000       1.00800           0
     28909 TIP3     1531     TIP3     OH2      OT      -0.834000       15.9994           0
     28910 TIP3     1531     TIP3     H1       HT       0.417000       1.00800           0
     28911 TIP3     1531     TIP3     H2       HT       0.417000       1.00800           0
     28912 TIP3     1532     TIP3     OH2      OT      -0.834000       15.9994           0
     28913 TIP3     1532     TIP3     H1       HT       0.417000       1.00800           0
     28914 TIP3     1532     TIP3     H2       HT       0.417000       1.00800           0
     28915 TIP3     1533     TIP3     OH2      OT      -0.834000       15.9994           0
     28916 TIP3     1533     TIP3     H1       HT       0.417000       1.00800           0
     28917 TIP3     1533     TIP3     H2       HT       0.417000       1.00800           0
     28918 TIP3     1534     TIP3     OH2      OT      -0.834000       15.9994           0
     28919 TIP3     1534     TIP3     H1       HT       0.417000       1.00800           0
     28920 TIP3     1534     TIP3     H2       HT       0.417000       1.00800           0
     28921 TIP3     1535     TIP3     OH2      OT      -0.834000       15.9994           0
     28922 TIP3     1535     TIP3     H1       HT       0.417000       1.00800           0
     28923 TIP3     1535     TIP3     H2       HT       0.417000       1.00800           0
     28924 TIP3     1536     TIP3     OH2      OT      -0.834000       15.9994           0
     28925 TIP3     1536     TIP3     H1       HT       0.417000       1.00800           0
     28926 TIP3     1536     TIP3     H2       HT       0.417000       1.00800           0
     28927 TIP3     1537     TIP3     OH2      OT      -0.834000       15.9994           0
     28928 TIP3     1537     TIP3     H1       HT       0.417000       1.00800           0
     28929 TIP3     1537     TIP3     H2       HT       0.417000       1.00800           0
     28930 TIP3     1538     TIP3     OH2      OT      -0.834000       15.9994           0
     28931 TIP3     1538     TIP3     H1       HT       0.417000       1.00800           0
     28932 TIP3     1538     TIP3     H2       HT       0.417000       1.00800           0
     28933 TIP3     1539     TIP3     OH2      OT      -0.834000       15.9994           0
     28934 TIP3     1539     TIP3     H1       HT       0.417000       1.00800           0
     28935 TIP3     1539     TIP3     H2       HT       0.417000       1.00800           0
     28936 TIP3     1540     TIP3     OH2      OT      -0.834000       15.9994           0
     28937 TIP3     1540     TIP3     H1       HT       0.417000       1.00800           0
     28938 TIP3     1540     TIP3     H2       HT       0.417000       1.00800           0
     28939 TIP3     1541     TIP3     OH2      OT      -0.834000       15.9994           0
     28940 TIP3     1541     TIP3     H1       HT       0.417000       1.00800           0
     28941 TIP3     1541     TIP3     H2       HT       0.417000       1.00800           0
     28942 TIP3     1542     TIP3     OH2      OT      -0.834000       15.9994           0
     28943 TIP3     1542     TIP3     H1       HT       0.417000       1.00800           0
     28944 TIP3     1542     TIP3     H2       HT       0.417000       1.00800           0
     28945 TIP3     1543     TIP3     OH2      OT      -0.834000       15.9994           0
     28946 TIP3     1543     TIP3     H1       HT       0.417000       1.00800           0
     28947 TIP3     1543     TIP3     H2       HT       0.417000       1.00800           0
     28948 TIP3     1544     TIP3     OH2      OT      -0.834000       15.9994           0
     28949 TIP3     1544     TIP3     H1       HT       0.417000       1.00800           0
     28950 TIP3     1544     TIP3     H2       HT       0.417000       1.00800           0
     28951 TIP3     1545     TIP3     OH2      OT      -0.834000       15.9994           0
     28952 TIP3     1545     TIP3     H1       HT       0.417000       1.00800           0
     28953 TIP3     1545     TIP3     H2       HT       0.417000       1.00800           0
     28954 TIP3     1546     TIP3     OH2      OT      -0.834000       15.9994           0
     28955 TIP3     1546     TIP3     H1       HT       0.417000       1.00800           0
     28956 TIP3     1546     TIP3     H2       HT       0.417000       1.00800           0
     28957 TIP3     1547     TIP3     OH2      OT      -0.834000       15.9994           0
     28958 TIP3     1547     TIP3     H1       HT       0.417000       1.00800           0
     28959 TIP3     1547     TIP3     H2       HT       0.417000       1.00800           0
     28960 TIP3     1548     TIP3     OH2      OT      -0.834000       15.9994           0
     28961 TIP3     1548     TIP3     H1       HT       0.417000       1.00800           0
     28962 TIP3     1548     TIP3     H2       HT       0.417000       1.00800           0
     28963 TIP3     1549     TIP3     OH2      OT      -0.834000       15.9994           0
     28964 TIP3     1549     TIP3     H1       HT       0.417000       1.00800           0
     28965 TIP3     1549     TIP3     H2       HT       0.417000       1.00800           0
     28966 TIP3     1550     TIP3     OH2      OT      -0.834000       15.9994           0
     28967 TIP3     1550     TIP3     H1       HT       0.417000       1.00800           0
     28968 TIP3     1550     TIP3     H2       HT       0.417000       1.00800           0
     28969 TIP3     1551     TIP3     OH2      OT      -0.834000       15.9994           0
     28970 TIP3     1551     TIP3     H1       HT       0.417000       1.00800           0
     28971 TIP3     1551     TIP3     H2       HT       0.417000       1.00800           0
     28972 TIP3     1552     TIP3     OH2      OT      -0.834000       15.9994           0
     28973 TIP3     1552     TIP3     H1       HT       0.417000       1.00800           0
     28974 TIP3     1552     TIP3     H2       HT       0.417000       1.00800           0
     28975 TIP3     1553     TIP3     OH2      OT      -0.834000       15.9994           0
     28976 TIP3     1553     TIP3     H1       HT       0.417000       1.00800           0
     28977 TIP3     1553     TIP3     H2       HT       0.417000       1.00800           0
     28978 TIP3     1554     TIP3     OH2      OT      -0.834000       15.9994           0
     28979 TIP3     1554     TIP3     H1       HT       0.417000       1.00800           0
     28980 TIP3     1554     TIP3     H2       HT       0.417000       1.00800           0
     28981 TIP3     1555     TIP3     OH2      OT      -0.834000       15.9994           0
     28982 TIP3     1555     TIP3     H1       HT       0.417000       1.00800           0
     28983 TIP3     1555     TIP3     H2       HT       0.417000       1.00800           0
     28984 TIP3     1556     TIP3     OH2      OT      -0.834000       15.9994           0
     28985 TIP3     1556     TIP3     H1       HT       0.417000       1.00800           0
     28986 TIP3     1556     TIP3     H2       HT       0.417000       1.00800           0
     28987 TIP3     1557     TIP3     OH2      OT      -0.834000       15.9994           0
     28988 TIP3     1557     TIP3     H1       HT       0.417000       1.00800           0
     28989 TIP3     1557     TIP3     H2       HT       0.417000       1.00800           0
     28990 TIP3     1558     TIP3     OH2      OT      -0.834000       15.9994           0
     28991 TIP3     1558     TIP3     H1       HT       0.417000       1.00800           0
     28992 TIP3     1558     TIP3     H2       HT       0.417000       1.00800           0
     28993 TIP3     1559     TIP3     OH2      OT      -0.834000       15.9994           0
     28994 TIP3     1559     TIP3     H1       HT       0.417000       1.00800           0
     28995 TIP3     1559     TIP3     H2       HT       0.417000       1.00800           0
     28996 TIP3     1560     TIP3     OH2      OT      -0.834000       15.9994           0
     28997 TIP3     1560     TIP3     H1       HT       0.417000       1.00800           0
     28998 TIP3     1560     TIP3     H2       HT       0.417000       1.00800           0
     28999 TIP3     1561     TIP3     OH2      OT      -0.834000       15.9994           0
     29000 TIP3     1561     TIP3     H1       HT       0.417000       1.00800           0
     29001 TIP3     1561     TIP3     H2       HT       0.417000       1.00800           0
     29002 TIP3     1562     TIP3     OH2      OT      -0.834000       15.9994           0
     29003 TIP3     1562     TIP3     H1       HT       0.417000       1.00800           0
     29004 TIP3     1562     TIP3     H2       HT       0.417000       1.00800           0
     29005 TIP3     1563     TIP3     OH2      OT      -0.834000       15.9994           0
     29006 TIP3     1563     TIP3     H1       HT       0.417000       1.00800           0
     29007 TIP3     1563     TIP3     H2       HT       0.417000       1.00800           0
     29008 TIP3     1564     TIP3     OH2      OT      -0.834000       15.9994           0
     29009 TIP3     1564     TIP3     H1       HT       0.417000       1.00800           0
     29010 TIP3     1564     TIP3     H2       HT       0.417000       1.00800           0
     29011 TIP3     1565     TIP3     OH2      OT      -0.834000       15.9994           0
     29012 TIP3     1565     TIP3     H1       HT       0.417000       1.00800           0
     29013 TIP3     1565     TIP3     H2       HT       0.417000       1.00800           0
     29014 TIP3     1566     TIP3     OH2      OT      -0.834000       15.9994           0
     29015 TIP3     1566     TIP3     H1       HT       0.417000       1.00800           0
     29016 TIP3     1566     TIP3     H2       HT       0.417000       1.00800           0
     29017 TIP3     1567     TIP3     OH2      OT      -0.834000       15.9994           0
     29018 TIP3     1567     TIP3     H1       HT       0.417000       1.00800           0
     29019 TIP3     1567     TIP3     H2       HT       0.417000       1.00800           0
     29020 TIP3     1568     TIP3     OH2      OT      -0.834000       15.9994           0
     29021 TIP3     1568     TIP3     H1       HT       0.417000       1.00800           0
     29022 TIP3     1568     TIP3     H2       HT       0.417000       1.00800           0
     29023 TIP3     1569     TIP3     OH2      OT      -0.834000       15.9994           0
     29024 TIP3     1569     TIP3     H1       HT       0.417000       1.00800           0
     29025 TIP3     1569     TIP3     H2       HT       0.417000       1.00800           0
     29026 TIP3     1570     TIP3     OH2      OT      -0.834000       15.9994           0
     29027 TIP3     1570     TIP3     H1       HT       0.417000       1.00800           0
     29028 TIP3     1570     TIP3     H2       HT       0.417000       1.00800           0
     29029 TIP3     1571     TIP3     OH2      OT      -0.834000       15.9994           0
     29030 TIP3     1571     TIP3     H1       HT       0.417000       1.00800           0
     29031 TIP3     1571     TIP3     H2       HT       0.417000       1.00800           0
     29032 TIP3     1572     TIP3     OH2      OT      -0.834000       15.9994           0
     29033 TIP3     1572     TIP3     H1       HT       0.417000       1.00800           0
     29034 TIP3     1572     TIP3     H2       HT       0.417000       1.00800           0
     29035 TIP3     1573     TIP3     OH2      OT      -0.834000       15.9994           0
     29036 TIP3     1573     TIP3     H1       HT       0.417000       1.00800           0
     29037 TIP3     1573     TIP3     H2       HT       0.417000       1.00800           0
     29038 TIP3     1574     TIP3     OH2      OT      -0.834000       15.9994           0
     29039 TIP3     1574     TIP3     H1       HT       0.417000       1.00800           0
     29040 TIP3     1574     TIP3     H2       HT       0.417000       1.00800           0
     29041 TIP3     1575     TIP3     OH2      OT      -0.834000       15.9994           0
     29042 TIP3     1575     TIP3     H1       HT       0.417000       1.00800           0
     29043 TIP3     1575     TIP3     H2       HT       0.417000       1.00800           0
     29044 TIP3     1576     TIP3     OH2      OT      -0.834000       15.9994           0
     29045 TIP3     1576     TIP3     H1       HT       0.417000       1.00800           0
     29046 TIP3     1576     TIP3     H2       HT       0.417000       1.00800           0
     29047 TIP3     1577     TIP3     OH2      OT      -0.834000       15.9994           0
     29048 TIP3     1577     TIP3     H1       HT       0.417000       1.00800           0
     29049 TIP3     1577     TIP3     H2       HT       0.417000       1.00800           0
     29050 TIP3     1578     TIP3     OH2      OT      -0.834000       15.9994           0
     29051 TIP3     1578     TIP3     H1       HT       0.417000       1.00800           0
     29052 TIP3     1578     TIP3     H2       HT       0.417000       1.00800           0
     29053 TIP3     1579     TIP3     OH2      OT      -0.834000       15.9994           0
     29054 TIP3     1579     TIP3     H1       HT       0.417000       1.00800           0
     29055 TIP3     1579     TIP3     H2       HT       0.417000       1.00800           0
     29056 TIP3     1580     TIP3     OH2      OT      -0.834000       15.9994           0
     29057 TIP3     1580     TIP3     H1       HT       0.417000       1.00800           0
     29058 TIP3     1580     TIP3     H2       HT       0.417000       1.00800           0
     29059 TIP3     1581     TIP3     OH2      OT      -0.834000       15.9994           0
     29060 TIP3     1581     TIP3     H1       HT       0.417000       1.00800           0
     29061 TIP3     1581     TIP3     H2       HT       0.417000       1.00800           0
     29062 TIP3     1582     TIP3     OH2      OT      -0.834000       15.9994           0
     29063 TIP3     1582     TIP3     H1       HT       0.417000       1.00800           0
     29064 TIP3     1582     TIP3     H2       HT       0.417000       1.00800           0
     29065 TIP3     1583     TIP3     OH2      OT      -0.834000       15.9994           0
     29066 TIP3     1583     TIP3     H1       HT       0.417000       1.00800           0
     29067 TIP3     1583     TIP3     H2       HT       0.417000       1.00800           0
     29068 TIP3     1584     TIP3     OH2      OT      -0.834000       15.9994           0
     29069 TIP3     1584     TIP3     H1       HT       0.417000       1.00800           0
     29070 TIP3     1584     TIP3     H2       HT       0.417000       1.00800           0
     29071 TIP3     1585     TIP3     OH2      OT      -0.834000       15.9994           0
     29072 TIP3     1585     TIP3     H1       HT       0.417000       1.00800           0
     29073 TIP3     1585     TIP3     H2       HT       0.417000       1.00800           0
     29074 TIP3     1586     TIP3     OH2      OT      -0.834000       15.9994           0
     29075 TIP3     1586     TIP3     H1       HT       0.417000       1.00800           0
     29076 TIP3     1586     TIP3     H2       HT       0.417000       1.00800           0
     29077 TIP3     1587     TIP3     OH2      OT      -0.834000       15.9994           0
     29078 TIP3     1587     TIP3     H1       HT       0.417000       1.00800           0
     29079 TIP3     1587     TIP3     H2       HT       0.417000       1.00800           0
     29080 TIP3     1588     TIP3     OH2      OT      -0.834000       15.9994           0
     29081 TIP3     1588     TIP3     H1       HT       0.417000       1.00800           0
     29082 TIP3     1588     TIP3     H2       HT       0.417000       1.00800           0
     29083 TIP3     1589     TIP3     OH2      OT      -0.834000       15.9994           0
     29084 TIP3     1589     TIP3     H1       HT       0.417000       1.00800           0
     29085 TIP3     1589     TIP3     H2       HT       0.417000       1.00800           0
     29086 TIP3     1590     TIP3     OH2      OT      -0.834000       15.9994           0
     29087 TIP3     1590     TIP3     H1       HT       0.417000       1.00800           0
     29088 TIP3     1590     TIP3     H2       HT       0.417000       1.00800           0
     29089 TIP3     1591     TIP3     OH2      OT      -0.834000       15.9994           0
     29090 TIP3     1591     TIP3     H1       HT       0.417000       1.00800           0
     29091 TIP3     1591     TIP3     H2       HT       0.417000       1.00800           0
     29092 TIP3     1592     TIP3     OH2      OT      -0.834000       15.9994           0
     29093 TIP3     1592     TIP3     H1       HT       0.417000       1.00800           0
     29094 TIP3     1592     TIP3     H2       HT       0.417000       1.00800           0
     29095 TIP3     1593     TIP3     OH2      OT      -0.834000       15.9994           0
     29096 TIP3     1593     TIP3     H1       HT       0.417000       1.00800           0
     29097 TIP3     1593     TIP3     H2       HT       0.417000       1.00800           0
     29098 TIP3     1594     TIP3     OH2      OT      -0.834000       15.9994           0
     29099 TIP3     1594     TIP3     H1       HT       0.417000       1.00800           0
     29100 TIP3     1594     TIP3     H2       HT       0.417000       1.00800           0
     29101 TIP3     1595     TIP3     OH2      OT      -0.834000       15.9994           0
     29102 TIP3     1595     TIP3     H1       HT       0.417000       1.00800           0
     29103 TIP3     1595     TIP3     H2       HT       0.417000       1.00800           0
     29104 TIP3     1596     TIP3     OH2      OT      -0.834000       15.9994           0
     29105 TIP3     1596     TIP3     H1       HT       0.417000       1.00800           0
     29106 TIP3     1596     TIP3     H2       HT       0.417000       1.00800           0
     29107 TIP3     1597     TIP3     OH2      OT      -0.834000       15.9994           0
     29108 TIP3     1597     TIP3     H1       HT       0.417000       1.00800           0
     29109 TIP3     1597     TIP3     H2       HT       0.417000       1.00800           0
     29110 TIP3     1598     TIP3     OH2      OT      -0.834000       15.9994           0
     29111 TIP3     1598     TIP3     H1       HT       0.417000       1.00800           0
     29112 TIP3     1598     TIP3     H2       HT       0.417000       1.00800           0
     29113 TIP3     1599     TIP3     OH2      OT      -0.834000       15.9994           0
     29114 TIP3     1599     TIP3     H1       HT       0.417000       1.00800           0
     29115 TIP3     1599     TIP3     H2       HT       0.417000       1.00800           0
     29116 TIP3     1600     TIP3     OH2      OT      -0.834000       15.9994           0
     29117 TIP3     1600     TIP3     H1       HT       0.417000       1.00800           0
     29118 TIP3     1600     TIP3     H2       HT       0.417000       1.00800           0
     29119 TIP3     1601     TIP3     OH2      OT      -0.834000       15.9994           0
     29120 TIP3     1601     TIP3     H1       HT       0.417000       1.00800           0
     29121 TIP3     1601     TIP3     H2       HT       0.417000       1.00800           0
     29122 TIP3     1602     TIP3     OH2      OT      -0.834000       15.9994           0
     29123 TIP3     1602     TIP3     H1       HT       0.417000       1.00800           0
     29124 TIP3     1602     TIP3     H2       HT       0.417000       1.00800           0
     29125 TIP3     1603     TIP3     OH2      OT      -0.834000       15.9994           0
     29126 TIP3     1603     TIP3     H1       HT       0.417000       1.00800           0
     29127 TIP3     1603     TIP3     H2       HT       0.417000       1.00800           0
     29128 TIP3     1604     TIP3     OH2      OT      -0.834000       15.9994           0
     29129 TIP3     1604     TIP3     H1       HT       0.417000       1.00800           0
     29130 TIP3     1604     TIP3     H2       HT       0.417000       1.00800           0
     29131 TIP3     1605     TIP3     OH2      OT      -0.834000       15.9994           0
     29132 TIP3     1605     TIP3     H1       HT       0.417000       1.00800           0
     29133 TIP3     1605     TIP3     H2       HT       0.417000       1.00800           0
     29134 TIP3     1606     TIP3     OH2      OT      -0.834000       15.9994           0
     29135 TIP3     1606     TIP3     H1       HT       0.417000       1.00800           0
     29136 TIP3     1606     TIP3     H2       HT       0.417000       1.00800           0
     29137 TIP3     1607     TIP3     OH2      OT      -0.834000       15.9994           0
     29138 TIP3     1607     TIP3     H1       HT       0.417000       1.00800           0
     29139 TIP3     1607     TIP3     H2       HT       0.417000       1.00800           0
     29140 TIP3     1608     TIP3     OH2      OT      -0.834000       15.9994           0
     29141 TIP3     1608     TIP3     H1       HT       0.417000       1.00800           0
     29142 TIP3     1608     TIP3     H2       HT       0.417000       1.00800           0
     29143 TIP3     1609     TIP3     OH2      OT      -0.834000       15.9994           0
     29144 TIP3     1609     TIP3     H1       HT       0.417000       1.00800           0
     29145 TIP3     1609     TIP3     H2       HT       0.417000       1.00800           0
     29146 TIP3     1610     TIP3     OH2      OT      -0.834000       15.9994           0
     29147 TIP3     1610     TIP3     H1       HT       0.417000       1.00800           0
     29148 TIP3     1610     TIP3     H2       HT       0.417000       1.00800           0
     29149 TIP3     1611     TIP3     OH2      OT      -0.834000       15.9994           0
     29150 TIP3     1611     TIP3     H1       HT       0.417000       1.00800           0
     29151 TIP3     1611     TIP3     H2       HT       0.417000       1.00800           0
     29152 TIP3     1612     TIP3     OH2      OT      -0.834000       15.9994           0
     29153 TIP3     1612     TIP3     H1       HT       0.417000       1.00800           0
     29154 TIP3     1612     TIP3     H2       HT       0.417000       1.00800           0
     29155 TIP3     1613     TIP3     OH2      OT      -0.834000       15.9994           0
     29156 TIP3     1613     TIP3     H1       HT       0.417000       1.00800           0
     29157 TIP3     1613     TIP3     H2       HT       0.417000       1.00800           0
     29158 TIP3     1614     TIP3     OH2      OT      -0.834000       15.9994           0
     29159 TIP3     1614     TIP3     H1       HT       0.417000       1.00800           0
     29160 TIP3     1614     TIP3     H2       HT       0.417000       1.00800           0
     29161 TIP3     1615     TIP3     OH2      OT      -0.834000       15.9994           0
     29162 TIP3     1615     TIP3     H1       HT       0.417000       1.00800           0
     29163 TIP3     1615     TIP3     H2       HT       0.417000       1.00800           0
     29164 TIP3     1616     TIP3     OH2      OT      -0.834000       15.9994           0
     29165 TIP3     1616     TIP3     H1       HT       0.417000       1.00800           0
     29166 TIP3     1616     TIP3     H2       HT       0.417000       1.00800           0
     29167 TIP3     1617     TIP3     OH2      OT      -0.834000       15.9994           0
     29168 TIP3     1617     TIP3     H1       HT       0.417000       1.00800           0
     29169 TIP3     1617     TIP3     H2       HT       0.417000       1.00800           0
     29170 TIP3     1618     TIP3     OH2      OT      -0.834000       15.9994           0
     29171 TIP3     1618     TIP3     H1       HT       0.417000       1.00800           0
     29172 TIP3     1618     TIP3     H2       HT       0.417000       1.00800           0
     29173 TIP3     1619     TIP3     OH2      OT      -0.834000       15.9994           0
     29174 TIP3     1619     TIP3     H1       HT       0.417000       1.00800           0
     29175 TIP3     1619     TIP3     H2       HT       0.417000       1.00800           0
     29176 TIP3     1620     TIP3     OH2      OT      -0.834000       15.9994           0
     29177 TIP3     1620     TIP3     H1       HT       0.417000       1.00800           0
     29178 TIP3     1620     TIP3     H2       HT       0.417000       1.00800           0
     29179 TIP3     1621     TIP3     OH2      OT      -0.834000       15.9994           0
     29180 TIP3     1621     TIP3     H1       HT       0.417000       1.00800           0
     29181 TIP3     1621     TIP3     H2       HT       0.417000       1.00800           0
     29182 TIP3     1622     TIP3     OH2      OT      -0.834000       15.9994           0
     29183 TIP3     1622     TIP3     H1       HT       0.417000       1.00800           0
     29184 TIP3     1622     TIP3     H2       HT       0.417000       1.00800           0
     29185 TIP3     1623     TIP3     OH2      OT      -0.834000       15.9994           0
     29186 TIP3     1623     TIP3     H1       HT       0.417000       1.00800           0
     29187 TIP3     1623     TIP3     H2       HT       0.417000       1.00800           0
     29188 TIP3     1624     TIP3     OH2      OT      -0.834000       15.9994           0
     29189 TIP3     1624     TIP3     H1       HT       0.417000       1.00800           0
     29190 TIP3     1624     TIP3     H2       HT       0.417000       1.00800           0
     29191 TIP3     1625     TIP3     OH2      OT      -0.834000       15.9994           0
     29192 TIP3     1625     TIP3     H1       HT       0.417000       1.00800           0
     29193 TIP3     1625     TIP3     H2       HT       0.417000       1.00800           0
     29194 TIP3     1626     TIP3     OH2      OT      -0.834000       15.9994           0
     29195 TIP3     1626     TIP3     H1       HT       0.417000       1.00800           0
     29196 TIP3     1626     TIP3     H2       HT       0.417000       1.00800           0
     29197 TIP3     1627     TIP3     OH2      OT      -0.834000       15.9994           0
     29198 TIP3     1627     TIP3     H1       HT       0.417000       1.00800           0
     29199 TIP3     1627     TIP3     H2       HT       0.417000       1.00800           0
     29200 TIP3     1628     TIP3     OH2      OT      -0.834000       15.9994           0
     29201 TIP3     1628     TIP3     H1       HT       0.417000       1.00800           0
     29202 TIP3     1628     TIP3     H2       HT       0.417000       1.00800           0
     29203 TIP3     1629     TIP3     OH2      OT      -0.834000       15.9994           0
     29204 TIP3     1629     TIP3     H1       HT       0.417000       1.00800           0
     29205 TIP3     1629     TIP3     H2       HT       0.417000       1.00800           0
     29206 TIP3     1630     TIP3     OH2      OT      -0.834000       15.9994           0
     29207 TIP3     1630     TIP3     H1       HT       0.417000       1.00800           0
     29208 TIP3     1630     TIP3     H2       HT       0.417000       1.00800           0
     29209 TIP3     1631     TIP3     OH2      OT      -0.834000       15.9994           0
     29210 TIP3     1631     TIP3     H1       HT       0.417000       1.00800           0
     29211 TIP3     1631     TIP3     H2       HT       0.417000       1.00800           0
     29212 TIP3     1632     TIP3     OH2      OT      -0.834000       15.9994           0
     29213 TIP3     1632     TIP3     H1       HT       0.417000       1.00800           0
     29214 TIP3     1632     TIP3     H2       HT       0.417000       1.00800           0
     29215 TIP3     1633     TIP3     OH2      OT      -0.834000       15.9994           0
     29216 TIP3     1633     TIP3     H1       HT       0.417000       1.00800           0
     29217 TIP3     1633     TIP3     H2       HT       0.417000       1.00800           0
     29218 TIP3     1634     TIP3     OH2      OT      -0.834000       15.9994           0
     29219 TIP3     1634     TIP3     H1       HT       0.417000       1.00800           0
     29220 TIP3     1634     TIP3     H2       HT       0.417000       1.00800           0
     29221 TIP3     1635     TIP3     OH2      OT      -0.834000       15.9994           0
     29222 TIP3     1635     TIP3     H1       HT       0.417000       1.00800           0
     29223 TIP3     1635     TIP3     H2       HT       0.417000       1.00800           0
     29224 TIP3     1636     TIP3     OH2      OT      -0.834000       15.9994           0
     29225 TIP3     1636     TIP3     H1       HT       0.417000       1.00800           0
     29226 TIP3     1636     TIP3     H2       HT       0.417000       1.00800           0
     29227 TIP3     1637     TIP3     OH2      OT      -0.834000       15.9994           0
     29228 TIP3     1637     TIP3     H1       HT       0.417000       1.00800           0
     29229 TIP3     1637     TIP3     H2       HT       0.417000       1.00800           0
     29230 TIP3     1638     TIP3     OH2      OT      -0.834000       15.9994           0
     29231 TIP3     1638     TIP3     H1       HT       0.417000       1.00800           0
     29232 TIP3     1638     TIP3     H2       HT       0.417000       1.00800           0
     29233 TIP3     1639     TIP3     OH2      OT      -0.834000       15.9994           0
     29234 TIP3     1639     TIP3     H1       HT       0.417000       1.00800           0
     29235 TIP3     1639     TIP3     H2       HT       0.417000       1.00800           0
     29236 TIP3     1640     TIP3     OH2      OT      -0.834000       15.9994           0
     29237 TIP3     1640     TIP3     H1       HT       0.417000       1.00800           0
     29238 TIP3     1640     TIP3     H2       HT       0.417000       1.00800           0
     29239 TIP3     1641     TIP3     OH2      OT      -0.834000       15.9994           0
     29240 TIP3     1641     TIP3     H1       HT       0.417000       1.00800           0
     29241 TIP3     1641     TIP3     H2       HT       0.417000       1.00800           0
     29242 TIP3     1642     TIP3     OH2      OT      -0.834000       15.9994           0
     29243 TIP3     1642     TIP3     H1       HT       0.417000       1.00800           0
     29244 TIP3     1642     TIP3     H2       HT       0.417000       1.00800           0
     29245 TIP3     1643     TIP3     OH2      OT      -0.834000       15.9994           0
     29246 TIP3     1643     TIP3     H1       HT       0.417000       1.00800           0
     29247 TIP3     1643     TIP3     H2       HT       0.417000       1.00800           0
     29248 TIP3     1644     TIP3     OH2      OT      -0.834000       15.9994           0
     29249 TIP3     1644     TIP3     H1       HT       0.417000       1.00800           0
     29250 TIP3     1644     TIP3     H2       HT       0.417000       1.00800           0
     29251 TIP3     1645     TIP3     OH2      OT      -0.834000       15.9994           0
     29252 TIP3     1645     TIP3     H1       HT       0.417000       1.00800           0
     29253 TIP3     1645     TIP3     H2       HT       0.417000       1.00800           0
     29254 TIP3     1646     TIP3     OH2      OT      -0.834000       15.9994           0
     29255 TIP3     1646     TIP3     H1       HT       0.417000       1.00800           0
     29256 TIP3     1646     TIP3     H2       HT       0.417000       1.00800           0
     29257 TIP3     1647     TIP3     OH2      OT      -0.834000       15.9994           0
     29258 TIP3     1647     TIP3     H1       HT       0.417000       1.00800           0
     29259 TIP3     1647     TIP3     H2       HT       0.417000       1.00800           0
     29260 TIP3     1648     TIP3     OH2      OT      -0.834000       15.9994           0
     29261 TIP3     1648     TIP3     H1       HT       0.417000       1.00800           0
     29262 TIP3     1648     TIP3     H2       HT       0.417000       1.00800           0
     29263 TIP3     1649     TIP3     OH2      OT      -0.834000       15.9994           0
     29264 TIP3     1649     TIP3     H1       HT       0.417000       1.00800           0
     29265 TIP3     1649     TIP3     H2       HT       0.417000       1.00800           0
     29266 TIP3     1650     TIP3     OH2      OT      -0.834000       15.9994           0
     29267 TIP3     1650     TIP3     H1       HT       0.417000       1.00800           0
     29268 TIP3     1650     TIP3     H2       HT       0.417000       1.00800           0
     29269 TIP3     1651     TIP3     OH2      OT      -0.834000       15.9994           0
     29270 TIP3     1651     TIP3     H1       HT       0.417000       1.00800           0
     29271 TIP3     1651     TIP3     H2       HT       0.417000       1.00800           0
     29272 TIP3     1652     TIP3     OH2      OT      -0.834000       15.9994           0
     29273 TIP3     1652     TIP3     H1       HT       0.417000       1.00800           0
     29274 TIP3     1652     TIP3     H2       HT       0.417000       1.00800           0
     29275 TIP3     1653     TIP3     OH2      OT      -0.834000       15.9994           0
     29276 TIP3     1653     TIP3     H1       HT       0.417000       1.00800           0
     29277 TIP3     1653     TIP3     H2       HT       0.417000       1.00800           0
     29278 TIP3     1654     TIP3     OH2      OT      -0.834000       15.9994           0
     29279 TIP3     1654     TIP3     H1       HT       0.417000       1.00800           0
     29280 TIP3     1654     TIP3     H2       HT       0.417000       1.00800           0
     29281 TIP3     1655     TIP3     OH2      OT      -0.834000       15.9994           0
     29282 TIP3     1655     TIP3     H1       HT       0.417000       1.00800           0
     29283 TIP3     1655     TIP3     H2       HT       0.417000       1.00800           0
     29284 TIP3     1656     TIP3     OH2      OT      -0.834000       15.9994           0
     29285 TIP3     1656     TIP3     H1       HT       0.417000       1.00800           0
     29286 TIP3     1656     TIP3     H2       HT       0.417000       1.00800           0
     29287 TIP3     1657     TIP3     OH2      OT      -0.834000       15.9994           0
     29288 TIP3     1657     TIP3     H1       HT       0.417000       1.00800           0
     29289 TIP3     1657     TIP3     H2       HT       0.417000       1.00800           0
     29290 TIP3     1658     TIP3     OH2      OT      -0.834000       15.9994           0
     29291 TIP3     1658     TIP3     H1       HT       0.417000       1.00800           0
     29292 TIP3     1658     TIP3     H2       HT       0.417000       1.00800           0
     29293 TIP3     1659     TIP3     OH2      OT      -0.834000       15.9994           0
     29294 TIP3     1659     TIP3     H1       HT       0.417000       1.00800           0
     29295 TIP3     1659     TIP3     H2       HT       0.417000       1.00800           0
     29296 TIP3     1660     TIP3     OH2      OT      -0.834000       15.9994           0
     29297 TIP3     1660     TIP3     H1       HT       0.417000       1.00800           0
     29298 TIP3     1660     TIP3     H2       HT       0.417000       1.00800           0
     29299 TIP3     1661     TIP3     OH2      OT      -0.834000       15.9994           0
     29300 TIP3     1661     TIP3     H1       HT       0.417000       1.00800           0
     29301 TIP3     1661     TIP3     H2       HT       0.417000       1.00800           0
     29302 TIP3     1662     TIP3     OH2      OT      -0.834000       15.9994           0
     29303 TIP3     1662     TIP3     H1       HT       0.417000       1.00800           0
     29304 TIP3     1662     TIP3     H2       HT       0.417000       1.00800           0
     29305 TIP3     1663     TIP3     OH2      OT      -0.834000       15.9994           0
     29306 TIP3     1663     TIP3     H1       HT       0.417000       1.00800           0
     29307 TIP3     1663     TIP3     H2       HT       0.417000       1.00800           0
     29308 TIP3     1664     TIP3     OH2      OT      -0.834000       15.9994           0
     29309 TIP3     1664     TIP3     H1       HT       0.417000       1.00800           0
     29310 TIP3     1664     TIP3     H2       HT       0.417000       1.00800           0
     29311 TIP3     1665     TIP3     OH2      OT      -0.834000       15.9994           0
     29312 TIP3     1665     TIP3     H1       HT       0.417000       1.00800           0
     29313 TIP3     1665     TIP3     H2       HT       0.417000       1.00800           0
     29314 TIP3     1666     TIP3     OH2      OT      -0.834000       15.9994           0
     29315 TIP3     1666     TIP3     H1       HT       0.417000       1.00800           0
     29316 TIP3     1666     TIP3     H2       HT       0.417000       1.00800           0
     29317 TIP3     1667     TIP3     OH2      OT      -0.834000       15.9994           0
     29318 TIP3     1667     TIP3     H1       HT       0.417000       1.00800           0
     29319 TIP3     1667     TIP3     H2       HT       0.417000       1.00800           0
     29320 TIP3     1668     TIP3     OH2      OT      -0.834000       15.9994           0
     29321 TIP3     1668     TIP3     H1       HT       0.417000       1.00800           0
     29322 TIP3     1668     TIP3     H2       HT       0.417000       1.00800           0
     29323 TIP3     1669     TIP3     OH2      OT      -0.834000       15.9994           0
     29324 TIP3     1669     TIP3     H1       HT       0.417000       1.00800           0
     29325 TIP3     1669     TIP3     H2       HT       0.417000       1.00800           0
     29326 TIP3     1670     TIP3     OH2      OT      -0.834000       15.9994           0
     29327 TIP3     1670     TIP3     H1       HT       0.417000       1.00800           0
     29328 TIP3     1670     TIP3     H2       HT       0.417000       1.00800           0
     29329 TIP3     1671     TIP3     OH2      OT      -0.834000       15.9994           0
     29330 TIP3     1671     TIP3     H1       HT       0.417000       1.00800           0
     29331 TIP3     1671     TIP3     H2       HT       0.417000       1.00800           0
     29332 TIP3     1672     TIP3     OH2      OT      -0.834000       15.9994           0
     29333 TIP3     1672     TIP3     H1       HT       0.417000       1.00800           0
     29334 TIP3     1672     TIP3     H2       HT       0.417000       1.00800           0
     29335 TIP3     1673     TIP3     OH2      OT      -0.834000       15.9994           0
     29336 TIP3     1673     TIP3     H1       HT       0.417000       1.00800           0
     29337 TIP3     1673     TIP3     H2       HT       0.417000       1.00800           0
     29338 TIP3     1674     TIP3     OH2      OT      -0.834000       15.9994           0
     29339 TIP3     1674     TIP3     H1       HT       0.417000       1.00800           0
     29340 TIP3     1674     TIP3     H2       HT       0.417000       1.00800           0
     29341 TIP3     1675     TIP3     OH2      OT      -0.834000       15.9994           0
     29342 TIP3     1675     TIP3     H1       HT       0.417000       1.00800           0
     29343 TIP3     1675     TIP3     H2       HT       0.417000       1.00800           0
     29344 TIP3     1676     TIP3     OH2      OT      -0.834000       15.9994           0
     29345 TIP3     1676     TIP3     H1       HT       0.417000       1.00800           0
     29346 TIP3     1676     TIP3     H2       HT       0.417000       1.00800           0
     29347 TIP3     1677     TIP3     OH2      OT      -0.834000       15.9994           0
     29348 TIP3     1677     TIP3     H1       HT       0.417000       1.00800           0
     29349 TIP3     1677     TIP3     H2       HT       0.417000       1.00800           0
     29350 TIP3     1678     TIP3     OH2      OT      -0.834000       15.9994           0
     29351 TIP3     1678     TIP3     H1       HT       0.417000       1.00800           0
     29352 TIP3     1678     TIP3     H2       HT       0.417000       1.00800           0
     29353 TIP3     1679     TIP3     OH2      OT      -0.834000       15.9994           0
     29354 TIP3     1679     TIP3     H1       HT       0.417000       1.00800           0
     29355 TIP3     1679     TIP3     H2       HT       0.417000       1.00800           0
     29356 TIP3     1680     TIP3     OH2      OT      -0.834000       15.9994           0
     29357 TIP3     1680     TIP3     H1       HT       0.417000       1.00800           0
     29358 TIP3     1680     TIP3     H2       HT       0.417000       1.00800           0
     29359 TIP3     1681     TIP3     OH2      OT      -0.834000       15.9994           0
     29360 TIP3     1681     TIP3     H1       HT       0.417000       1.00800           0
     29361 TIP3     1681     TIP3     H2       HT       0.417000       1.00800           0
     29362 TIP3     1682     TIP3     OH2      OT      -0.834000       15.9994           0
     29363 TIP3     1682     TIP3     H1       HT       0.417000       1.00800           0
     29364 TIP3     1682     TIP3     H2       HT       0.417000       1.00800           0
     29365 TIP3     1683     TIP3     OH2      OT      -0.834000       15.9994           0
     29366 TIP3     1683     TIP3     H1       HT       0.417000       1.00800           0
     29367 TIP3     1683     TIP3     H2       HT       0.417000       1.00800           0
     29368 TIP3     1684     TIP3     OH2      OT      -0.834000       15.9994           0
     29369 TIP3     1684     TIP3     H1       HT       0.417000       1.00800           0
     29370 TIP3     1684     TIP3     H2       HT       0.417000       1.00800           0
     29371 TIP3     1685     TIP3     OH2      OT      -0.834000       15.9994           0
     29372 TIP3     1685     TIP3     H1       HT       0.417000       1.00800           0
     29373 TIP3     1685     TIP3     H2       HT       0.417000       1.00800           0
     29374 TIP3     1686     TIP3     OH2      OT      -0.834000       15.9994           0
     29375 TIP3     1686     TIP3     H1       HT       0.417000       1.00800           0
     29376 TIP3     1686     TIP3     H2       HT       0.417000       1.00800           0
     29377 TIP3     1687     TIP3     OH2      OT      -0.834000       15.9994           0
     29378 TIP3     1687     TIP3     H1       HT       0.417000       1.00800           0
     29379 TIP3     1687     TIP3     H2       HT       0.417000       1.00800           0
     29380 TIP3     1688     TIP3     OH2      OT      -0.834000       15.9994           0
     29381 TIP3     1688     TIP3     H1       HT       0.417000       1.00800           0
     29382 TIP3     1688     TIP3     H2       HT       0.417000       1.00800           0
     29383 TIP3     1689     TIP3     OH2      OT      -0.834000       15.9994           0
     29384 TIP3     1689     TIP3     H1       HT       0.417000       1.00800           0
     29385 TIP3     1689     TIP3     H2       HT       0.417000       1.00800           0
     29386 TIP3     1690     TIP3     OH2      OT      -0.834000       15.9994           0
     29387 TIP3     1690     TIP3     H1       HT       0.417000       1.00800           0
     29388 TIP3     1690     TIP3     H2       HT       0.417000       1.00800           0
     29389 TIP3     1691     TIP3     OH2      OT      -0.834000       15.9994           0
     29390 TIP3     1691     TIP3     H1       HT       0.417000       1.00800           0
     29391 TIP3     1691     TIP3     H2       HT       0.417000       1.00800           0
     29392 TIP3     1692     TIP3     OH2      OT      -0.834000       15.9994           0
     29393 TIP3     1692     TIP3     H1       HT       0.417000       1.00800           0
     29394 TIP3     1692     TIP3     H2       HT       0.417000       1.00800           0
     29395 TIP3     1693     TIP3     OH2      OT      -0.834000       15.9994           0
     29396 TIP3     1693     TIP3     H1       HT       0.417000       1.00800           0
     29397 TIP3     1693     TIP3     H2       HT       0.417000       1.00800           0
     29398 TIP3     1694     TIP3     OH2      OT      -0.834000       15.9994           0
     29399 TIP3     1694     TIP3     H1       HT       0.417000       1.00800           0
     29400 TIP3     1694     TIP3     H2       HT       0.417000       1.00800           0
     29401 TIP3     1695     TIP3     OH2      OT      -0.834000       15.9994           0
     29402 TIP3     1695     TIP3     H1       HT       0.417000       1.00800           0
     29403 TIP3     1695     TIP3     H2       HT       0.417000       1.00800           0
     29404 TIP3     1696     TIP3     OH2      OT      -0.834000       15.9994           0
     29405 TIP3     1696     TIP3     H1       HT       0.417000       1.00800           0
     29406 TIP3     1696     TIP3     H2       HT       0.417000       1.00800           0
     29407 TIP3     1697     TIP3     OH2      OT      -0.834000       15.9994           0
     29408 TIP3     1697     TIP3     H1       HT       0.417000       1.00800           0
     29409 TIP3     1697     TIP3     H2       HT       0.417000       1.00800           0
     29410 TIP3     1698     TIP3     OH2      OT      -0.834000       15.9994           0
     29411 TIP3     1698     TIP3     H1       HT       0.417000       1.00800           0
     29412 TIP3     1698     TIP3     H2       HT       0.417000       1.00800           0
     29413 TIP3     1699     TIP3     OH2      OT      -0.834000       15.9994           0
     29414 TIP3     1699     TIP3     H1       HT       0.417000       1.00800           0
     29415 TIP3     1699     TIP3     H2       HT       0.417000       1.00800           0
     29416 TIP3     1700     TIP3     OH2      OT      -0.834000       15.9994           0
     29417 TIP3     1700     TIP3     H1       HT       0.417000       1.00800           0
     29418 TIP3     1700     TIP3     H2       HT       0.417000       1.00800           0
     29419 TIP3     1701     TIP3     OH2      OT      -0.834000       15.9994           0
     29420 TIP3     1701     TIP3     H1       HT       0.417000       1.00800           0
     29421 TIP3     1701     TIP3     H2       HT       0.417000       1.00800           0
     29422 TIP3     1702     TIP3     OH2      OT      -0.834000       15.9994           0
     29423 TIP3     1702     TIP3     H1       HT       0.417000       1.00800           0
     29424 TIP3     1702     TIP3     H2       HT       0.417000       1.00800           0
     29425 TIP3     1703     TIP3     OH2      OT      -0.834000       15.9994           0
     29426 TIP3     1703     TIP3     H1       HT       0.417000       1.00800           0
     29427 TIP3     1703     TIP3     H2       HT       0.417000       1.00800           0
     29428 TIP3     1704     TIP3     OH2      OT      -0.834000       15.9994           0
     29429 TIP3     1704     TIP3     H1       HT       0.417000       1.00800           0
     29430 TIP3     1704     TIP3     H2       HT       0.417000       1.00800           0
     29431 TIP3     1705     TIP3     OH2      OT      -0.834000       15.9994           0
     29432 TIP3     1705     TIP3     H1       HT       0.417000       1.00800           0
     29433 TIP3     1705     TIP3     H2       HT       0.417000       1.00800           0
     29434 TIP3     1706     TIP3     OH2      OT      -0.834000       15.9994           0
     29435 TIP3     1706     TIP3     H1       HT       0.417000       1.00800           0
     29436 TIP3     1706     TIP3     H2       HT       0.417000       1.00800           0
     29437 TIP3     1707     TIP3     OH2      OT      -0.834000       15.9994           0
     29438 TIP3     1707     TIP3     H1       HT       0.417000       1.00800           0
     29439 TIP3     1707     TIP3     H2       HT       0.417000       1.00800           0
     29440 TIP3     1708     TIP3     OH2      OT      -0.834000       15.9994           0
     29441 TIP3     1708     TIP3     H1       HT       0.417000       1.00800           0
     29442 TIP3     1708     TIP3     H2       HT       0.417000       1.00800           0
     29443 TIP3     1709     TIP3     OH2      OT      -0.834000       15.9994           0
     29444 TIP3     1709     TIP3     H1       HT       0.417000       1.00800           0
     29445 TIP3     1709     TIP3     H2       HT       0.417000       1.00800           0
     29446 TIP3     1710     TIP3     OH2      OT      -0.834000       15.9994           0
     29447 TIP3     1710     TIP3     H1       HT       0.417000       1.00800           0
     29448 TIP3     1710     TIP3     H2       HT       0.417000       1.00800           0
     29449 TIP3     1711     TIP3     OH2      OT      -0.834000       15.9994           0
     29450 TIP3     1711     TIP3     H1       HT       0.417000       1.00800           0
     29451 TIP3     1711     TIP3     H2       HT       0.417000       1.00800           0
     29452 TIP3     1712     TIP3     OH2      OT      -0.834000       15.9994           0
     29453 TIP3     1712     TIP3     H1       HT       0.417000       1.00800           0
     29454 TIP3     1712     TIP3     H2       HT       0.417000       1.00800           0
     29455 TIP3     1713     TIP3     OH2      OT      -0.834000       15.9994           0
     29456 TIP3     1713     TIP3     H1       HT       0.417000       1.00800           0
     29457 TIP3     1713     TIP3     H2       HT       0.417000       1.00800           0
     29458 TIP3     1714     TIP3     OH2      OT      -0.834000       15.9994           0
     29459 TIP3     1714     TIP3     H1       HT       0.417000       1.00800           0
     29460 TIP3     1714     TIP3     H2       HT       0.417000       1.00800           0
     29461 TIP3     1715     TIP3     OH2      OT      -0.834000       15.9994           0
     29462 TIP3     1715     TIP3     H1       HT       0.417000       1.00800           0
     29463 TIP3     1715     TIP3     H2       HT       0.417000       1.00800           0
     29464 TIP3     1716     TIP3     OH2      OT      -0.834000       15.9994           0
     29465 TIP3     1716     TIP3     H1       HT       0.417000       1.00800           0
     29466 TIP3     1716     TIP3     H2       HT       0.417000       1.00800           0
     29467 TIP3     1717     TIP3     OH2      OT      -0.834000       15.9994           0
     29468 TIP3     1717     TIP3     H1       HT       0.417000       1.00800           0
     29469 TIP3     1717     TIP3     H2       HT       0.417000       1.00800           0
     29470 TIP3     1718     TIP3     OH2      OT      -0.834000       15.9994           0
     29471 TIP3     1718     TIP3     H1       HT       0.417000       1.00800           0
     29472 TIP3     1718     TIP3     H2       HT       0.417000       1.00800           0
     29473 TIP3     1719     TIP3     OH2      OT      -0.834000       15.9994           0
     29474 TIP3     1719     TIP3     H1       HT       0.417000       1.00800           0
     29475 TIP3     1719     TIP3     H2       HT       0.417000       1.00800           0
     29476 TIP3     1720     TIP3     OH2      OT      -0.834000       15.9994           0
     29477 TIP3     1720     TIP3     H1       HT       0.417000       1.00800           0
     29478 TIP3     1720     TIP3     H2       HT       0.417000       1.00800           0
     29479 TIP3     1721     TIP3     OH2      OT      -0.834000       15.9994           0
     29480 TIP3     1721     TIP3     H1       HT       0.417000       1.00800           0
     29481 TIP3     1721     TIP3     H2       HT       0.417000       1.00800           0
     29482 TIP3     1722     TIP3     OH2      OT      -0.834000       15.9994           0
     29483 TIP3     1722     TIP3     H1       HT       0.417000       1.00800           0
     29484 TIP3     1722     TIP3     H2       HT       0.417000       1.00800           0
     29485 TIP3     1723     TIP3     OH2      OT      -0.834000       15.9994           0
     29486 TIP3     1723     TIP3     H1       HT       0.417000       1.00800           0
     29487 TIP3     1723     TIP3     H2       HT       0.417000       1.00800           0
     29488 TIP3     1724     TIP3     OH2      OT      -0.834000       15.9994           0
     29489 TIP3     1724     TIP3     H1       HT       0.417000       1.00800           0
     29490 TIP3     1724     TIP3     H2       HT       0.417000       1.00800           0
     29491 TIP3     1725     TIP3     OH2      OT      -0.834000       15.9994           0
     29492 TIP3     1725     TIP3     H1       HT       0.417000       1.00800           0
     29493 TIP3     1725     TIP3     H2       HT       0.417000       1.00800           0
     29494 TIP3     1726     TIP3     OH2      OT      -0.834000       15.9994           0
     29495 TIP3     1726     TIP3     H1       HT       0.417000       1.00800           0
     29496 TIP3     1726     TIP3     H2       HT       0.417000       1.00800           0
     29497 TIP3     1727     TIP3     OH2      OT      -0.834000       15.9994           0
     29498 TIP3     1727     TIP3     H1       HT       0.417000       1.00800           0
     29499 TIP3     1727     TIP3     H2       HT       0.417000       1.00800           0
     29500 TIP3     1728     TIP3     OH2      OT      -0.834000       15.9994           0
     29501 TIP3     1728     TIP3     H1       HT       0.417000       1.00800           0
     29502 TIP3     1728     TIP3     H2       HT       0.417000       1.00800           0
     29503 TIP3     1729     TIP3     OH2      OT      -0.834000       15.9994           0
     29504 TIP3     1729     TIP3     H1       HT       0.417000       1.00800           0
     29505 TIP3     1729     TIP3     H2       HT       0.417000       1.00800           0
     29506 TIP3     1730     TIP3     OH2      OT      -0.834000       15.9994           0
     29507 TIP3     1730     TIP3     H1       HT       0.417000       1.00800           0
     29508 TIP3     1730     TIP3     H2       HT       0.417000       1.00800           0
     29509 TIP3     1731     TIP3     OH2      OT      -0.834000       15.9994           0
     29510 TIP3     1731     TIP3     H1       HT       0.417000       1.00800           0
     29511 TIP3     1731     TIP3     H2       HT       0.417000       1.00800           0
     29512 TIP3     1732     TIP3     OH2      OT      -0.834000       15.9994           0
     29513 TIP3     1732     TIP3     H1       HT       0.417000       1.00800           0
     29514 TIP3     1732     TIP3     H2       HT       0.417000       1.00800           0
     29515 TIP3     1733     TIP3     OH2      OT      -0.834000       15.9994           0
     29516 TIP3     1733     TIP3     H1       HT       0.417000       1.00800           0
     29517 TIP3     1733     TIP3     H2       HT       0.417000       1.00800           0
     29518 TIP3     1734     TIP3     OH2      OT      -0.834000       15.9994           0
     29519 TIP3     1734     TIP3     H1       HT       0.417000       1.00800           0
     29520 TIP3     1734     TIP3     H2       HT       0.417000       1.00800           0
     29521 TIP3     1735     TIP3     OH2      OT      -0.834000       15.9994           0
     29522 TIP3     1735     TIP3     H1       HT       0.417000       1.00800           0
     29523 TIP3     1735     TIP3     H2       HT       0.417000       1.00800           0
     29524 TIP3     1736     TIP3     OH2      OT      -0.834000       15.9994           0
     29525 TIP3     1736     TIP3     H1       HT       0.417000       1.00800           0
     29526 TIP3     1736     TIP3     H2       HT       0.417000       1.00800           0
     29527 TIP3     1737     TIP3     OH2      OT      -0.834000       15.9994           0
     29528 TIP3     1737     TIP3     H1       HT       0.417000       1.00800           0
     29529 TIP3     1737     TIP3     H2       HT       0.417000       1.00800           0
     29530 TIP3     1738     TIP3     OH2      OT      -0.834000       15.9994           0
     29531 TIP3     1738     TIP3     H1       HT       0.417000       1.00800           0
     29532 TIP3     1738     TIP3     H2       HT       0.417000       1.00800           0
     29533 TIP3     1739     TIP3     OH2      OT      -0.834000       15.9994           0
     29534 TIP3     1739     TIP3     H1       HT       0.417000       1.00800           0
     29535 TIP3     1739     TIP3     H2       HT       0.417000       1.00800           0
     29536 TIP3     1740     TIP3     OH2      OT      -0.834000       15.9994           0
     29537 TIP3     1740     TIP3     H1       HT       0.417000       1.00800           0
     29538 TIP3     1740     TIP3     H2       HT       0.417000       1.00800           0
     29539 TIP3     1741     TIP3     OH2      OT      -0.834000       15.9994           0
     29540 TIP3     1741     TIP3     H1       HT       0.417000       1.00800           0
     29541 TIP3     1741     TIP3     H2       HT       0.417000       1.00800           0
     29542 TIP3     1742     TIP3     OH2      OT      -0.834000       15.9994           0
     29543 TIP3     1742     TIP3     H1       HT       0.417000       1.00800           0
     29544 TIP3     1742     TIP3     H2       HT       0.417000       1.00800           0
     29545 TIP3     1743     TIP3     OH2      OT      -0.834000       15.9994           0
     29546 TIP3     1743     TIP3     H1       HT       0.417000       1.00800           0
     29547 TIP3     1743     TIP3     H2       HT       0.417000       1.00800           0
     29548 TIP3     1744     TIP3     OH2      OT      -0.834000       15.9994           0
     29549 TIP3     1744     TIP3     H1       HT       0.417000       1.00800           0
     29550 TIP3     1744     TIP3     H2       HT       0.417000       1.00800           0
     29551 TIP3     1745     TIP3     OH2      OT      -0.834000       15.9994           0
     29552 TIP3     1745     TIP3     H1       HT       0.417000       1.00800           0
     29553 TIP3     1745     TIP3     H2       HT       0.417000       1.00800           0
     29554 TIP3     1746     TIP3     OH2      OT      -0.834000       15.9994           0
     29555 TIP3     1746     TIP3     H1       HT       0.417000       1.00800           0
     29556 TIP3     1746     TIP3     H2       HT       0.417000       1.00800           0
     29557 TIP3     1747     TIP3     OH2      OT      -0.834000       15.9994           0
     29558 TIP3     1747     TIP3     H1       HT       0.417000       1.00800           0
     29559 TIP3     1747     TIP3     H2       HT       0.417000       1.00800           0
     29560 TIP3     1748     TIP3     OH2      OT      -0.834000       15.9994           0
     29561 TIP3     1748     TIP3     H1       HT       0.417000       1.00800           0
     29562 TIP3     1748     TIP3     H2       HT       0.417000       1.00800           0
     29563 TIP3     1749     TIP3     OH2      OT      -0.834000       15.9994           0
     29564 TIP3     1749     TIP3     H1       HT       0.417000       1.00800           0
     29565 TIP3     1749     TIP3     H2       HT       0.417000       1.00800           0
     29566 TIP3     1750     TIP3     OH2      OT      -0.834000       15.9994           0
     29567 TIP3     1750     TIP3     H1       HT       0.417000       1.00800           0
     29568 TIP3     1750     TIP3     H2       HT       0.417000       1.00800           0
     29569 TIP3     1751     TIP3     OH2      OT      -0.834000       15.9994           0
     29570 TIP3     1751     TIP3     H1       HT       0.417000       1.00800           0
     29571 TIP3     1751     TIP3     H2       HT       0.417000       1.00800           0
     29572 TIP3     1752     TIP3     OH2      OT      -0.834000       15.9994           0
     29573 TIP3     1752     TIP3     H1       HT       0.417000       1.00800           0
     29574 TIP3     1752     TIP3     H2       HT       0.417000       1.00800           0
     29575 TIP3     1753     TIP3     OH2      OT      -0.834000       15.9994           0
     29576 TIP3     1753     TIP3     H1       HT       0.417000       1.00800           0
     29577 TIP3     1753     TIP3     H2       HT       0.417000       1.00800           0
     29578 TIP3     1754     TIP3     OH2      OT      -0.834000       15.9994           0
     29579 TIP3     1754     TIP3     H1       HT       0.417000       1.00800           0
     29580 TIP3     1754     TIP3     H2       HT       0.417000       1.00800           0
     29581 TIP3     1755     TIP3     OH2      OT      -0.834000       15.9994           0
     29582 TIP3     1755     TIP3     H1       HT       0.417000       1.00800           0
     29583 TIP3     1755     TIP3     H2       HT       0.417000       1.00800           0
     29584 TIP3     1756     TIP3     OH2      OT      -0.834000       15.9994           0
     29585 TIP3     1756     TIP3     H1       HT       0.417000       1.00800           0
     29586 TIP3     1756     TIP3     H2       HT       0.417000       1.00800           0
     29587 TIP3     1757     TIP3     OH2      OT      -0.834000       15.9994           0
     29588 TIP3     1757     TIP3     H1       HT       0.417000       1.00800           0
     29589 TIP3     1757     TIP3     H2       HT       0.417000       1.00800           0
     29590 TIP3     1758     TIP3     OH2      OT      -0.834000       15.9994           0
     29591 TIP3     1758     TIP3     H1       HT       0.417000       1.00800           0
     29592 TIP3     1758     TIP3     H2       HT       0.417000       1.00800           0
     29593 TIP3     1759     TIP3     OH2      OT      -0.834000       15.9994           0
     29594 TIP3     1759     TIP3     H1       HT       0.417000       1.00800           0
     29595 TIP3     1759     TIP3     H2       HT       0.417000       1.00800           0
     29596 TIP3     1760     TIP3     OH2      OT      -0.834000       15.9994           0
     29597 TIP3     1760     TIP3     H1       HT       0.417000       1.00800           0
     29598 TIP3     1760     TIP3     H2       HT       0.417000       1.00800           0
     29599 TIP3     1761     TIP3     OH2      OT      -0.834000       15.9994           0
     29600 TIP3     1761     TIP3     H1       HT       0.417000       1.00800           0
     29601 TIP3     1761     TIP3     H2       HT       0.417000       1.00800           0
     29602 TIP3     1762     TIP3     OH2      OT      -0.834000       15.9994           0
     29603 TIP3     1762     TIP3     H1       HT       0.417000       1.00800           0
     29604 TIP3     1762     TIP3     H2       HT       0.417000       1.00800           0
     29605 TIP3     1763     TIP3     OH2      OT      -0.834000       15.9994           0
     29606 TIP3     1763     TIP3     H1       HT       0.417000       1.00800           0
     29607 TIP3     1763     TIP3     H2       HT       0.417000       1.00800           0
     29608 TIP3     1764     TIP3     OH2      OT      -0.834000       15.9994           0
     29609 TIP3     1764     TIP3     H1       HT       0.417000       1.00800           0
     29610 TIP3     1764     TIP3     H2       HT       0.417000       1.00800           0
     29611 TIP3     1765     TIP3     OH2      OT      -0.834000       15.9994           0
     29612 TIP3     1765     TIP3     H1       HT       0.417000       1.00800           0
     29613 TIP3     1765     TIP3     H2       HT       0.417000       1.00800           0
     29614 TIP3     1766     TIP3     OH2      OT      -0.834000       15.9994           0
     29615 TIP3     1766     TIP3     H1       HT       0.417000       1.00800           0
     29616 TIP3     1766     TIP3     H2       HT       0.417000       1.00800           0
     29617 TIP3     1767     TIP3     OH2      OT      -0.834000       15.9994           0
     29618 TIP3     1767     TIP3     H1       HT       0.417000       1.00800           0
     29619 TIP3     1767     TIP3     H2       HT       0.417000       1.00800           0
     29620 TIP3     1768     TIP3     OH2      OT      -0.834000       15.9994           0
     29621 TIP3     1768     TIP3     H1       HT       0.417000       1.00800           0
     29622 TIP3     1768     TIP3     H2       HT       0.417000       1.00800           0
     29623 TIP3     1769     TIP3     OH2      OT      -0.834000       15.9994           0
     29624 TIP3     1769     TIP3     H1       HT       0.417000       1.00800           0
     29625 TIP3     1769     TIP3     H2       HT       0.417000       1.00800           0
     29626 TIP3     1770     TIP3     OH2      OT      -0.834000       15.9994           0
     29627 TIP3     1770     TIP3     H1       HT       0.417000       1.00800           0
     29628 TIP3     1770     TIP3     H2       HT       0.417000       1.00800           0
     29629 TIP3     1771     TIP3     OH2      OT      -0.834000       15.9994           0
     29630 TIP3     1771     TIP3     H1       HT       0.417000       1.00800           0
     29631 TIP3     1771     TIP3     H2       HT       0.417000       1.00800           0
     29632 TIP3     1772     TIP3     OH2      OT      -0.834000       15.9994           0
     29633 TIP3     1772     TIP3     H1       HT       0.417000       1.00800           0
     29634 TIP3     1772     TIP3     H2       HT       0.417000       1.00800           0
     29635 TIP3     1773     TIP3     OH2      OT      -0.834000       15.9994           0
     29636 TIP3     1773     TIP3     H1       HT       0.417000       1.00800           0
     29637 TIP3     1773     TIP3     H2       HT       0.417000       1.00800           0
     29638 TIP3     1774     TIP3     OH2      OT      -0.834000       15.9994           0
     29639 TIP3     1774     TIP3     H1       HT       0.417000       1.00800           0
     29640 TIP3     1774     TIP3     H2       HT       0.417000       1.00800           0
     29641 TIP3     1775     TIP3     OH2      OT      -0.834000       15.9994           0
     29642 TIP3     1775     TIP3     H1       HT       0.417000       1.00800           0
     29643 TIP3     1775     TIP3     H2       HT       0.417000       1.00800           0
     29644 TIP3     1776     TIP3     OH2      OT      -0.834000       15.9994           0
     29645 TIP3     1776     TIP3     H1       HT       0.417000       1.00800           0
     29646 TIP3     1776     TIP3     H2       HT       0.417000       1.00800           0
     29647 TIP3     1777     TIP3     OH2      OT      -0.834000       15.9994           0
     29648 TIP3     1777     TIP3     H1       HT       0.417000       1.00800           0
     29649 TIP3     1777     TIP3     H2       HT       0.417000       1.00800           0
     29650 TIP3     1778     TIP3     OH2      OT      -0.834000       15.9994           0
     29651 TIP3     1778     TIP3     H1       HT       0.417000       1.00800           0
     29652 TIP3     1778     TIP3     H2       HT       0.417000       1.00800           0
     29653 TIP3     1779     TIP3     OH2      OT      -0.834000       15.9994           0
     29654 TIP3     1779     TIP3     H1       HT       0.417000       1.00800           0
     29655 TIP3     1779     TIP3     H2       HT       0.417000       1.00800           0
     29656 TIP3     1780     TIP3     OH2      OT      -0.834000       15.9994           0
     29657 TIP3     1780     TIP3     H1       HT       0.417000       1.00800           0
     29658 TIP3     1780     TIP3     H2       HT       0.417000       1.00800           0
     29659 TIP3     1781     TIP3     OH2      OT      -0.834000       15.9994           0
     29660 TIP3     1781     TIP3     H1       HT       0.417000       1.00800           0
     29661 TIP3     1781     TIP3     H2       HT       0.417000       1.00800           0
     29662 TIP3     1782     TIP3     OH2      OT      -0.834000       15.9994           0
     29663 TIP3     1782     TIP3     H1       HT       0.417000       1.00800           0
     29664 TIP3     1782     TIP3     H2       HT       0.417000       1.00800           0
     29665 TIP3     1783     TIP3     OH2      OT      -0.834000       15.9994           0
     29666 TIP3     1783     TIP3     H1       HT       0.417000       1.00800           0
     29667 TIP3     1783     TIP3     H2       HT       0.417000       1.00800           0
     29668 TIP3     1784     TIP3     OH2      OT      -0.834000       15.9994           0
     29669 TIP3     1784     TIP3     H1       HT       0.417000       1.00800           0
     29670 TIP3     1784     TIP3     H2       HT       0.417000       1.00800           0
     29671 TIP3     1785     TIP3     OH2      OT      -0.834000       15.9994           0
     29672 TIP3     1785     TIP3     H1       HT       0.417000       1.00800           0
     29673 TIP3     1785     TIP3     H2       HT       0.417000       1.00800           0
     29674 TIP3     1786     TIP3     OH2      OT      -0.834000       15.9994           0
     29675 TIP3     1786     TIP3     H1       HT       0.417000       1.00800           0
     29676 TIP3     1786     TIP3     H2       HT       0.417000       1.00800           0
     29677 TIP3     1787     TIP3     OH2      OT      -0.834000       15.9994           0
     29678 TIP3     1787     TIP3     H1       HT       0.417000       1.00800           0
     29679 TIP3     1787     TIP3     H2       HT       0.417000       1.00800           0
     29680 TIP3     1788     TIP3     OH2      OT      -0.834000       15.9994           0
     29681 TIP3     1788     TIP3     H1       HT       0.417000       1.00800           0
     29682 TIP3     1788     TIP3     H2       HT       0.417000       1.00800           0
     29683 TIP3     1789     TIP3     OH2      OT      -0.834000       15.9994           0
     29684 TIP3     1789     TIP3     H1       HT       0.417000       1.00800           0
     29685 TIP3     1789     TIP3     H2       HT       0.417000       1.00800           0
     29686 TIP3     1790     TIP3     OH2      OT      -0.834000       15.9994           0
     29687 TIP3     1790     TIP3     H1       HT       0.417000       1.00800           0
     29688 TIP3     1790     TIP3     H2       HT       0.417000       1.00800           0
     29689 TIP3     1791     TIP3     OH2      OT      -0.834000       15.9994           0
     29690 TIP3     1791     TIP3     H1       HT       0.417000       1.00800           0
     29691 TIP3     1791     TIP3     H2       HT       0.417000       1.00800           0
     29692 TIP3     1792     TIP3     OH2      OT      -0.834000       15.9994           0
     29693 TIP3     1792     TIP3     H1       HT       0.417000       1.00800           0
     29694 TIP3     1792     TIP3     H2       HT       0.417000       1.00800           0
     29695 TIP3     1793     TIP3     OH2      OT      -0.834000       15.9994           0
     29696 TIP3     1793     TIP3     H1       HT       0.417000       1.00800           0
     29697 TIP3     1793     TIP3     H2       HT       0.417000       1.00800           0
     29698 TIP3     1794     TIP3     OH2      OT      -0.834000       15.9994           0
     29699 TIP3     1794     TIP3     H1       HT       0.417000       1.00800           0
     29700 TIP3     1794     TIP3     H2       HT       0.417000       1.00800           0
     29701 TIP3     1795     TIP3     OH2      OT      -0.834000       15.9994           0
     29702 TIP3     1795     TIP3     H1       HT       0.417000       1.00800           0
     29703 TIP3     1795     TIP3     H2       HT       0.417000       1.00800           0
     29704 TIP3     1796     TIP3     OH2      OT      -0.834000       15.9994           0
     29705 TIP3     1796     TIP3     H1       HT       0.417000       1.00800           0
     29706 TIP3     1796     TIP3     H2       HT       0.417000       1.00800           0
     29707 TIP3     1797     TIP3     OH2      OT      -0.834000       15.9994           0
     29708 TIP3     1797     TIP3     H1       HT       0.417000       1.00800           0
     29709 TIP3     1797     TIP3     H2       HT       0.417000       1.00800           0
     29710 TIP3     1798     TIP3     OH2      OT      -0.834000       15.9994           0
     29711 TIP3     1798     TIP3     H1       HT       0.417000       1.00800           0
     29712 TIP3     1798     TIP3     H2       HT       0.417000       1.00800           0
     29713 TIP3     1799     TIP3     OH2      OT      -0.834000       15.9994           0
     29714 TIP3     1799     TIP3     H1       HT       0.417000       1.00800           0
     29715 TIP3     1799     TIP3     H2       HT       0.417000       1.00800           0
     29716 TIP3     1800     TIP3     OH2      OT      -0.834000       15.9994           0
     29717 TIP3     1800     TIP3     H1       HT       0.417000       1.00800           0
     29718 TIP3     1800     TIP3     H2       HT       0.417000       1.00800           0
     29719 TIP3     1801     TIP3     OH2      OT      -0.834000       15.9994           0
     29720 TIP3     1801     TIP3     H1       HT       0.417000       1.00800           0
     29721 TIP3     1801     TIP3     H2       HT       0.417000       1.00800           0
     29722 TIP3     1802     TIP3     OH2      OT      -0.834000       15.9994           0
     29723 TIP3     1802     TIP3     H1       HT       0.417000       1.00800           0
     29724 TIP3     1802     TIP3     H2       HT       0.417000       1.00800           0
     29725 TIP3     1803     TIP3     OH2      OT      -0.834000       15.9994           0
     29726 TIP3     1803     TIP3     H1       HT       0.417000       1.00800           0
     29727 TIP3     1803     TIP3     H2       HT       0.417000       1.00800           0
     29728 TIP3     1804     TIP3     OH2      OT      -0.834000       15.9994           0
     29729 TIP3     1804     TIP3     H1       HT       0.417000       1.00800           0
     29730 TIP3     1804     TIP3     H2       HT       0.417000       1.00800           0
     29731 TIP3     1805     TIP3     OH2      OT      -0.834000       15.9994           0
     29732 TIP3     1805     TIP3     H1       HT       0.417000       1.00800           0
     29733 TIP3     1805     TIP3     H2       HT       0.417000       1.00800           0
     29734 TIP3     1806     TIP3     OH2      OT      -0.834000       15.9994           0
     29735 TIP3     1806     TIP3     H1       HT       0.417000       1.00800           0
     29736 TIP3     1806     TIP3     H2       HT       0.417000       1.00800           0
     29737 TIP3     1807     TIP3     OH2      OT      -0.834000       15.9994           0
     29738 TIP3     1807     TIP3     H1       HT       0.417000       1.00800           0
     29739 TIP3     1807     TIP3     H2       HT       0.417000       1.00800           0
     29740 TIP3     1808     TIP3     OH2      OT      -0.834000       15.9994           0
     29741 TIP3     1808     TIP3     H1       HT       0.417000       1.00800           0
     29742 TIP3     1808     TIP3     H2       HT       0.417000       1.00800           0
     29743 TIP3     1809     TIP3     OH2      OT      -0.834000       15.9994           0
     29744 TIP3     1809     TIP3     H1       HT       0.417000       1.00800           0
     29745 TIP3     1809     TIP3     H2       HT       0.417000       1.00800           0
     29746 TIP3     1810     TIP3     OH2      OT      -0.834000       15.9994           0
     29747 TIP3     1810     TIP3     H1       HT       0.417000       1.00800           0
     29748 TIP3     1810     TIP3     H2       HT       0.417000       1.00800           0
     29749 TIP3     1811     TIP3     OH2      OT      -0.834000       15.9994           0
     29750 TIP3     1811     TIP3     H1       HT       0.417000       1.00800           0
     29751 TIP3     1811     TIP3     H2       HT       0.417000       1.00800           0
     29752 TIP3     1812     TIP3     OH2      OT      -0.834000       15.9994           0
     29753 TIP3     1812     TIP3     H1       HT       0.417000       1.00800           0
     29754 TIP3     1812     TIP3     H2       HT       0.417000       1.00800           0
     29755 TIP3     1813     TIP3     OH2      OT      -0.834000       15.9994           0
     29756 TIP3     1813     TIP3     H1       HT       0.417000       1.00800           0
     29757 TIP3     1813     TIP3     H2       HT       0.417000       1.00800           0
     29758 TIP3     1814     TIP3     OH2      OT      -0.834000       15.9994           0
     29759 TIP3     1814     TIP3     H1       HT       0.417000       1.00800           0
     29760 TIP3     1814     TIP3     H2       HT       0.417000       1.00800           0
     29761 TIP3     1815     TIP3     OH2      OT      -0.834000       15.9994           0
     29762 TIP3     1815     TIP3     H1       HT       0.417000       1.00800           0
     29763 TIP3     1815     TIP3     H2       HT       0.417000       1.00800           0
     29764 TIP3     1816     TIP3     OH2      OT      -0.834000       15.9994           0
     29765 TIP3     1816     TIP3     H1       HT       0.417000       1.00800           0
     29766 TIP3     1816     TIP3     H2       HT       0.417000       1.00800           0
     29767 TIP3     1817     TIP3     OH2      OT      -0.834000       15.9994           0
     29768 TIP3     1817     TIP3     H1       HT       0.417000       1.00800           0
     29769 TIP3     1817     TIP3     H2       HT       0.417000       1.00800           0
     29770 TIP3     1818     TIP3     OH2      OT      -0.834000       15.9994           0
     29771 TIP3     1818     TIP3     H1       HT       0.417000       1.00800           0
     29772 TIP3     1818     TIP3     H2       HT       0.417000       1.00800           0
     29773 TIP3     1819     TIP3     OH2      OT      -0.834000       15.9994           0
     29774 TIP3     1819     TIP3     H1       HT       0.417000       1.00800           0
     29775 TIP3     1819     TIP3     H2       HT       0.417000       1.00800           0
     29776 TIP3     1820     TIP3     OH2      OT      -0.834000       15.9994           0
     29777 TIP3     1820     TIP3     H1       HT       0.417000       1.00800           0
     29778 TIP3     1820     TIP3     H2       HT       0.417000       1.00800           0
     29779 TIP3     1821     TIP3     OH2      OT      -0.834000       15.9994           0
     29780 TIP3     1821     TIP3     H1       HT       0.417000       1.00800           0
     29781 TIP3     1821     TIP3     H2       HT       0.417000       1.00800           0
     29782 TIP3     1822     TIP3     OH2      OT      -0.834000       15.9994           0
     29783 TIP3     1822     TIP3     H1       HT       0.417000       1.00800           0
     29784 TIP3     1822     TIP3     H2       HT       0.417000       1.00800           0
     29785 TIP3     1823     TIP3     OH2      OT      -0.834000       15.9994           0
     29786 TIP3     1823     TIP3     H1       HT       0.417000       1.00800           0
     29787 TIP3     1823     TIP3     H2       HT       0.417000       1.00800           0
     29788 TIP3     1824     TIP3     OH2      OT      -0.834000       15.9994           0
     29789 TIP3     1824     TIP3     H1       HT       0.417000       1.00800           0
     29790 TIP3     1824     TIP3     H2       HT       0.417000       1.00800           0
     29791 TIP3     1825     TIP3     OH2      OT      -0.834000       15.9994           0
     29792 TIP3     1825     TIP3     H1       HT       0.417000       1.00800           0
     29793 TIP3     1825     TIP3     H2       HT       0.417000       1.00800           0
     29794 TIP3     1826     TIP3     OH2      OT      -0.834000       15.9994           0
     29795 TIP3     1826     TIP3     H1       HT       0.417000       1.00800           0
     29796 TIP3     1826     TIP3     H2       HT       0.417000       1.00800           0
     29797 TIP3     1827     TIP3     OH2      OT      -0.834000       15.9994           0
     29798 TIP3     1827     TIP3     H1       HT       0.417000       1.00800           0
     29799 TIP3     1827     TIP3     H2       HT       0.417000       1.00800           0
     29800 TIP3     1828     TIP3     OH2      OT      -0.834000       15.9994           0
     29801 TIP3     1828     TIP3     H1       HT       0.417000       1.00800           0
     29802 TIP3     1828     TIP3     H2       HT       0.417000       1.00800           0
     29803 TIP3     1829     TIP3     OH2      OT      -0.834000       15.9994           0
     29804 TIP3     1829     TIP3     H1       HT       0.417000       1.00800           0
     29805 TIP3     1829     TIP3     H2       HT       0.417000       1.00800           0
     29806 TIP3     1830     TIP3     OH2      OT      -0.834000       15.9994           0
     29807 TIP3     1830     TIP3     H1       HT       0.417000       1.00800           0
     29808 TIP3     1830     TIP3     H2       HT       0.417000       1.00800           0
     29809 TIP3     1831     TIP3     OH2      OT      -0.834000       15.9994           0
     29810 TIP3     1831     TIP3     H1       HT       0.417000       1.00800           0
     29811 TIP3     1831     TIP3     H2       HT       0.417000       1.00800           0
     29812 TIP3     1832     TIP3     OH2      OT      -0.834000       15.9994           0
     29813 TIP3     1832     TIP3     H1       HT       0.417000       1.00800           0
     29814 TIP3     1832     TIP3     H2       HT       0.417000       1.00800           0
     29815 TIP3     1833     TIP3     OH2      OT      -0.834000       15.9994           0
     29816 TIP3     1833     TIP3     H1       HT       0.417000       1.00800           0
     29817 TIP3     1833     TIP3     H2       HT       0.417000       1.00800           0
     29818 TIP3     1834     TIP3     OH2      OT      -0.834000       15.9994           0
     29819 TIP3     1834     TIP3     H1       HT       0.417000       1.00800           0
     29820 TIP3     1834     TIP3     H2       HT       0.417000       1.00800           0
     29821 TIP3     1835     TIP3     OH2      OT      -0.834000       15.9994           0
     29822 TIP3     1835     TIP3     H1       HT       0.417000       1.00800           0
     29823 TIP3     1835     TIP3     H2       HT       0.417000       1.00800           0
     29824 TIP3     1836     TIP3     OH2      OT      -0.834000       15.9994           0
     29825 TIP3     1836     TIP3     H1       HT       0.417000       1.00800           0
     29826 TIP3     1836     TIP3     H2       HT       0.417000       1.00800           0
     29827 TIP3     1837     TIP3     OH2      OT      -0.834000       15.9994           0
     29828 TIP3     1837     TIP3     H1       HT       0.417000       1.00800           0
     29829 TIP3     1837     TIP3     H2       HT       0.417000       1.00800           0
     29830 TIP3     1838     TIP3     OH2      OT      -0.834000       15.9994           0
     29831 TIP3     1838     TIP3     H1       HT       0.417000       1.00800           0
     29832 TIP3     1838     TIP3     H2       HT       0.417000       1.00800           0
     29833 TIP3     1839     TIP3     OH2      OT      -0.834000       15.9994           0
     29834 TIP3     1839     TIP3     H1       HT       0.417000       1.00800           0
     29835 TIP3     1839     TIP3     H2       HT       0.417000       1.00800           0
     29836 TIP3     1840     TIP3     OH2      OT      -0.834000       15.9994           0
     29837 TIP3     1840     TIP3     H1       HT       0.417000       1.00800           0
     29838 TIP3     1840     TIP3     H2       HT       0.417000       1.00800           0
     29839 TIP3     1841     TIP3     OH2      OT      -0.834000       15.9994           0
     29840 TIP3     1841     TIP3     H1       HT       0.417000       1.00800           0
     29841 TIP3     1841     TIP3     H2       HT       0.417000       1.00800           0
     29842 TIP3     1842     TIP3     OH2      OT      -0.834000       15.9994           0
     29843 TIP3     1842     TIP3     H1       HT       0.417000       1.00800           0
     29844 TIP3     1842     TIP3     H2       HT       0.417000       1.00800           0
     29845 TIP3     1843     TIP3     OH2      OT      -0.834000       15.9994           0
     29846 TIP3     1843     TIP3     H1       HT       0.417000       1.00800           0
     29847 TIP3     1843     TIP3     H2       HT       0.417000       1.00800           0
     29848 TIP3     1844     TIP3     OH2      OT      -0.834000       15.9994           0
     29849 TIP3     1844     TIP3     H1       HT       0.417000       1.00800           0
     29850 TIP3     1844     TIP3     H2       HT       0.417000       1.00800           0
     29851 TIP3     1845     TIP3     OH2      OT      -0.834000       15.9994           0
     29852 TIP3     1845     TIP3     H1       HT       0.417000       1.00800           0
     29853 TIP3     1845     TIP3     H2       HT       0.417000       1.00800           0
     29854 TIP3     1846     TIP3     OH2      OT      -0.834000       15.9994           0
     29855 TIP3     1846     TIP3     H1       HT       0.417000       1.00800           0
     29856 TIP3     1846     TIP3     H2       HT       0.417000       1.00800           0
     29857 TIP3     1847     TIP3     OH2      OT      -0.834000       15.9994           0
     29858 TIP3     1847     TIP3     H1       HT       0.417000       1.00800           0
     29859 TIP3     1847     TIP3     H2       HT       0.417000       1.00800           0
     29860 TIP3     1848     TIP3     OH2      OT      -0.834000       15.9994           0
     29861 TIP3     1848     TIP3     H1       HT       0.417000       1.00800           0
     29862 TIP3     1848     TIP3     H2       HT       0.417000       1.00800           0
     29863 TIP3     1849     TIP3     OH2      OT      -0.834000       15.9994           0
     29864 TIP3     1849     TIP3     H1       HT       0.417000       1.00800           0
     29865 TIP3     1849     TIP3     H2       HT       0.417000       1.00800           0
     29866 TIP3     1850     TIP3     OH2      OT      -0.834000       15.9994           0
     29867 TIP3     1850     TIP3     H1       HT       0.417000       1.00800           0
     29868 TIP3     1850     TIP3     H2       HT       0.417000       1.00800           0
     29869 TIP3     1851     TIP3     OH2      OT      -0.834000       15.9994           0
     29870 TIP3     1851     TIP3     H1       HT       0.417000       1.00800           0
     29871 TIP3     1851     TIP3     H2       HT       0.417000       1.00800           0
     29872 TIP3     1852     TIP3     OH2      OT      -0.834000       15.9994           0
     29873 TIP3     1852     TIP3     H1       HT       0.417000       1.00800           0
     29874 TIP3     1852     TIP3     H2       HT       0.417000       1.00800           0
     29875 TIP3     1853     TIP3     OH2      OT      -0.834000       15.9994           0
     29876 TIP3     1853     TIP3     H1       HT       0.417000       1.00800           0
     29877 TIP3     1853     TIP3     H2       HT       0.417000       1.00800           0
     29878 TIP3     1854     TIP3     OH2      OT      -0.834000       15.9994           0
     29879 TIP3     1854     TIP3     H1       HT       0.417000       1.00800           0
     29880 TIP3     1854     TIP3     H2       HT       0.417000       1.00800           0
     29881 TIP3     1855     TIP3     OH2      OT      -0.834000       15.9994           0
     29882 TIP3     1855     TIP3     H1       HT       0.417000       1.00800           0
     29883 TIP3     1855     TIP3     H2       HT       0.417000       1.00800           0
     29884 TIP3     1856     TIP3     OH2      OT      -0.834000       15.9994           0
     29885 TIP3     1856     TIP3     H1       HT       0.417000       1.00800           0
     29886 TIP3     1856     TIP3     H2       HT       0.417000       1.00800           0
     29887 TIP3     1857     TIP3     OH2      OT      -0.834000       15.9994           0
     29888 TIP3     1857     TIP3     H1       HT       0.417000       1.00800           0
     29889 TIP3     1857     TIP3     H2       HT       0.417000       1.00800           0
     29890 TIP3     1858     TIP3     OH2      OT      -0.834000       15.9994           0
     29891 TIP3     1858     TIP3     H1       HT       0.417000       1.00800           0
     29892 TIP3     1858     TIP3     H2       HT       0.417000       1.00800           0
     29893 TIP3     1859     TIP3     OH2      OT      -0.834000       15.9994           0
     29894 TIP3     1859     TIP3     H1       HT       0.417000       1.00800           0
     29895 TIP3     1859     TIP3     H2       HT       0.417000       1.00800           0
     29896 TIP3     1860     TIP3     OH2      OT      -0.834000       15.9994           0
     29897 TIP3     1860     TIP3     H1       HT       0.417000       1.00800           0
     29898 TIP3     1860     TIP3     H2       HT       0.417000       1.00800           0
     29899 TIP3     1861     TIP3     OH2      OT      -0.834000       15.9994           0
     29900 TIP3     1861     TIP3     H1       HT       0.417000       1.00800           0
     29901 TIP3     1861     TIP3     H2       HT       0.417000       1.00800           0
     29902 TIP3     1862     TIP3     OH2      OT      -0.834000       15.9994           0
     29903 TIP3     1862     TIP3     H1       HT       0.417000       1.00800           0
     29904 TIP3     1862     TIP3     H2       HT       0.417000       1.00800           0
     29905 TIP3     1863     TIP3     OH2      OT      -0.834000       15.9994           0
     29906 TIP3     1863     TIP3     H1       HT       0.417000       1.00800           0
     29907 TIP3     1863     TIP3     H2       HT       0.417000       1.00800           0
     29908 TIP3     1864     TIP3     OH2      OT      -0.834000       15.9994           0
     29909 TIP3     1864     TIP3     H1       HT       0.417000       1.00800           0
     29910 TIP3     1864     TIP3     H2       HT       0.417000       1.00800           0
     29911 TIP3     1865     TIP3     OH2      OT      -0.834000       15.9994           0
     29912 TIP3     1865     TIP3     H1       HT       0.417000       1.00800           0
     29913 TIP3     1865     TIP3     H2       HT       0.417000       1.00800           0
     29914 TIP3     1866     TIP3     OH2      OT      -0.834000       15.9994           0
     29915 TIP3     1866     TIP3     H1       HT       0.417000       1.00800           0
     29916 TIP3     1866     TIP3     H2       HT       0.417000       1.00800           0
     29917 TIP3     1867     TIP3     OH2      OT      -0.834000       15.9994           0
     29918 TIP3     1867     TIP3     H1       HT       0.417000       1.00800           0
     29919 TIP3     1867     TIP3     H2       HT       0.417000       1.00800           0
     29920 TIP3     1868     TIP3     OH2      OT      -0.834000       15.9994           0
     29921 TIP3     1868     TIP3     H1       HT       0.417000       1.00800           0
     29922 TIP3     1868     TIP3     H2       HT       0.417000       1.00800           0
     29923 TIP3     1869     TIP3     OH2      OT      -0.834000       15.9994           0
     29924 TIP3     1869     TIP3     H1       HT       0.417000       1.00800           0
     29925 TIP3     1869     TIP3     H2       HT       0.417000       1.00800           0
     29926 TIP3     1870     TIP3     OH2      OT      -0.834000       15.9994           0
     29927 TIP3     1870     TIP3     H1       HT       0.417000       1.00800           0
     29928 TIP3     1870     TIP3     H2       HT       0.417000       1.00800           0
     29929 TIP3     1871     TIP3     OH2      OT      -0.834000       15.9994           0
     29930 TIP3     1871     TIP3     H1       HT       0.417000       1.00800           0
     29931 TIP3     1871     TIP3     H2       HT       0.417000       1.00800           0
     29932 TIP3     1872     TIP3     OH2      OT      -0.834000       15.9994           0
     29933 TIP3     1872     TIP3     H1       HT       0.417000       1.00800           0
     29934 TIP3     1872     TIP3     H2       HT       0.417000       1.00800           0
     29935 TIP3     1873     TIP3     OH2      OT      -0.834000       15.9994           0
     29936 TIP3     1873     TIP3     H1       HT       0.417000       1.00800           0
     29937 TIP3     1873     TIP3     H2       HT       0.417000       1.00800           0
     29938 TIP3     1874     TIP3     OH2      OT      -0.834000       15.9994           0
     29939 TIP3     1874     TIP3     H1       HT       0.417000       1.00800           0
     29940 TIP3     1874     TIP3     H2       HT       0.417000       1.00800           0
     29941 TIP3     1875     TIP3     OH2      OT      -0.834000       15.9994           0
     29942 TIP3     1875     TIP3     H1       HT       0.417000       1.00800           0
     29943 TIP3     1875     TIP3     H2       HT       0.417000       1.00800           0
     29944 TIP3     1876     TIP3     OH2      OT      -0.834000       15.9994           0
     29945 TIP3     1876     TIP3     H1       HT       0.417000       1.00800           0
     29946 TIP3     1876     TIP3     H2       HT       0.417000       1.00800           0
     29947 TIP3     1877     TIP3     OH2      OT      -0.834000       15.9994           0
     29948 TIP3     1877     TIP3     H1       HT       0.417000       1.00800           0
     29949 TIP3     1877     TIP3     H2       HT       0.417000       1.00800           0
     29950 TIP3     1878     TIP3     OH2      OT      -0.834000       15.9994           0
     29951 TIP3     1878     TIP3     H1       HT       0.417000       1.00800           0
     29952 TIP3     1878     TIP3     H2       HT       0.417000       1.00800           0
     29953 TIP3     1879     TIP3     OH2      OT      -0.834000       15.9994           0
     29954 TIP3     1879     TIP3     H1       HT       0.417000       1.00800           0
     29955 TIP3     1879     TIP3     H2       HT       0.417000       1.00800           0
     29956 TIP3     1880     TIP3     OH2      OT      -0.834000       15.9994           0
     29957 TIP3     1880     TIP3     H1       HT       0.417000       1.00800           0
     29958 TIP3     1880     TIP3     H2       HT       0.417000       1.00800           0
     29959 TIP3     1881     TIP3     OH2      OT      -0.834000       15.9994           0
     29960 TIP3     1881     TIP3     H1       HT       0.417000       1.00800           0
     29961 TIP3     1881     TIP3     H2       HT       0.417000       1.00800           0
     29962 TIP3     1882     TIP3     OH2      OT      -0.834000       15.9994           0
     29963 TIP3     1882     TIP3     H1       HT       0.417000       1.00800           0
     29964 TIP3     1882     TIP3     H2       HT       0.417000       1.00800           0
     29965 TIP3     1883     TIP3     OH2      OT      -0.834000       15.9994           0
     29966 TIP3     1883     TIP3     H1       HT       0.417000       1.00800           0
     29967 TIP3     1883     TIP3     H2       HT       0.417000       1.00800           0
     29968 TIP3     1884     TIP3     OH2      OT      -0.834000       15.9994           0
     29969 TIP3     1884     TIP3     H1       HT       0.417000       1.00800           0
     29970 TIP3     1884     TIP3     H2       HT       0.417000       1.00800           0
     29971 TIP3     1885     TIP3     OH2      OT      -0.834000       15.9994           0
     29972 TIP3     1885     TIP3     H1       HT       0.417000       1.00800           0
     29973 TIP3     1885     TIP3     H2       HT       0.417000       1.00800           0
     29974 TIP3     1886     TIP3     OH2      OT      -0.834000       15.9994           0
     29975 TIP3     1886     TIP3     H1       HT       0.417000       1.00800           0
     29976 TIP3     1886     TIP3     H2       HT       0.417000       1.00800           0
     29977 TIP3     1887     TIP3     OH2      OT      -0.834000       15.9994           0
     29978 TIP3     1887     TIP3     H1       HT       0.417000       1.00800           0
     29979 TIP3     1887     TIP3     H2       HT       0.417000       1.00800           0
     29980 TIP3     1888     TIP3     OH2      OT      -0.834000       15.9994           0
     29981 TIP3     1888     TIP3     H1       HT       0.417000       1.00800           0
     29982 TIP3     1888     TIP3     H2       HT       0.417000       1.00800           0
     29983 TIP3     1889     TIP3     OH2      OT      -0.834000       15.9994           0
     29984 TIP3     1889     TIP3     H1       HT       0.417000       1.00800           0
     29985 TIP3     1889     TIP3     H2       HT       0.417000       1.00800           0
     29986 TIP3     1890     TIP3     OH2      OT      -0.834000       15.9994           0
     29987 TIP3     1890     TIP3     H1       HT       0.417000       1.00800           0
     29988 TIP3     1890     TIP3     H2       HT       0.417000       1.00800           0
     29989 TIP3     1891     TIP3     OH2      OT      -0.834000       15.9994           0
     29990 TIP3     1891     TIP3     H1       HT       0.417000       1.00800           0
     29991 TIP3     1891     TIP3     H2       HT       0.417000       1.00800           0
     29992 TIP3     1892     TIP3     OH2      OT      -0.834000       15.9994           0
     29993 TIP3     1892     TIP3     H1       HT       0.417000       1.00800           0
     29994 TIP3     1892     TIP3     H2       HT       0.417000       1.00800           0
     29995 TIP3     1893     TIP3     OH2      OT      -0.834000       15.9994           0
     29996 TIP3     1893     TIP3     H1       HT       0.417000       1.00800           0
     29997 TIP3     1893     TIP3     H2       HT       0.417000       1.00800           0
     29998 TIP3     1894     TIP3     OH2      OT      -0.834000       15.9994           0
     29999 TIP3     1894     TIP3     H1       HT       0.417000       1.00800           0
     30000 TIP3     1894     TIP3     H2       HT       0.417000       1.00800           0
     30001 TIP3     1895     TIP3     OH2      OT      -0.834000       15.9994           0
     30002 TIP3     1895     TIP3     H1       HT       0.417000       1.00800           0
     30003 TIP3     1895     TIP3     H2       HT       0.417000       1.00800           0
     30004 TIP3     1896     TIP3     OH2      OT      -0.834000       15.9994           0
     30005 TIP3     1896     TIP3     H1       HT       0.417000       1.00800           0
     30006 TIP3     1896     TIP3     H2       HT       0.417000       1.00800           0
     30007 TIP3     1897     TIP3     OH2      OT      -0.834000       15.9994           0
     30008 TIP3     1897     TIP3     H1       HT       0.417000       1.00800           0
     30009 TIP3     1897     TIP3     H2       HT       0.417000       1.00800           0
     30010 TIP3     1898     TIP3     OH2      OT      -0.834000       15.9994           0
     30011 TIP3     1898     TIP3     H1       HT       0.417000       1.00800           0
     30012 TIP3     1898     TIP3     H2       HT       0.417000       1.00800           0
     30013 TIP3     1899     TIP3     OH2      OT      -0.834000       15.9994           0
     30014 TIP3     1899     TIP3     H1       HT       0.417000       1.00800           0
     30015 TIP3     1899     TIP3     H2       HT       0.417000       1.00800           0
     30016 TIP3     1900     TIP3     OH2      OT      -0.834000       15.9994           0
     30017 TIP3     1900     TIP3     H1       HT       0.417000       1.00800           0
     30018 TIP3     1900     TIP3     H2       HT       0.417000       1.00800           0
     30019 TIP3     1901     TIP3     OH2      OT      -0.834000       15.9994           0
     30020 TIP3     1901     TIP3     H1       HT       0.417000       1.00800           0
     30021 TIP3     1901     TIP3     H2       HT       0.417000       1.00800           0
     30022 TIP3     1902     TIP3     OH2      OT      -0.834000       15.9994           0
     30023 TIP3     1902     TIP3     H1       HT       0.417000       1.00800           0
     30024 TIP3     1902     TIP3     H2       HT       0.417000       1.00800           0
     30025 TIP3     1903     TIP3     OH2      OT      -0.834000       15.9994           0
     30026 TIP3     1903     TIP3     H1       HT       0.417000       1.00800           0
     30027 TIP3     1903     TIP3     H2       HT       0.417000       1.00800           0
     30028 TIP3     1904     TIP3     OH2      OT      -0.834000       15.9994           0
     30029 TIP3     1904     TIP3     H1       HT       0.417000       1.00800           0
     30030 TIP3     1904     TIP3     H2       HT       0.417000       1.00800           0
     30031 TIP3     1905     TIP3     OH2      OT      -0.834000       15.9994           0
     30032 TIP3     1905     TIP3     H1       HT       0.417000       1.00800           0
     30033 TIP3     1905     TIP3     H2       HT       0.417000       1.00800           0
     30034 TIP3     1906     TIP3     OH2      OT      -0.834000       15.9994           0
     30035 TIP3     1906     TIP3     H1       HT       0.417000       1.00800           0
     30036 TIP3     1906     TIP3     H2       HT       0.417000       1.00800           0
     30037 TIP3     1907     TIP3     OH2      OT      -0.834000       15.9994           0
     30038 TIP3     1907     TIP3     H1       HT       0.417000       1.00800           0
     30039 TIP3     1907     TIP3     H2       HT       0.417000       1.00800           0
     30040 TIP3     1908     TIP3     OH2      OT      -0.834000       15.9994           0
     30041 TIP3     1908     TIP3     H1       HT       0.417000       1.00800           0
     30042 TIP3     1908     TIP3     H2       HT       0.417000       1.00800           0
     30043 TIP3     1909     TIP3     OH2      OT      -0.834000       15.9994           0
     30044 TIP3     1909     TIP3     H1       HT       0.417000       1.00800           0
     30045 TIP3     1909     TIP3     H2       HT       0.417000       1.00800           0
     30046 TIP3     1910     TIP3     OH2      OT      -0.834000       15.9994           0
     30047 TIP3     1910     TIP3     H1       HT       0.417000       1.00800           0
     30048 TIP3     1910     TIP3     H2       HT       0.417000       1.00800           0
     30049 TIP3     1911     TIP3     OH2      OT      -0.834000       15.9994           0
     30050 TIP3     1911     TIP3     H1       HT       0.417000       1.00800           0
     30051 TIP3     1911     TIP3     H2       HT       0.417000       1.00800           0
     30052 TIP3     1912     TIP3     OH2      OT      -0.834000       15.9994           0
     30053 TIP3     1912     TIP3     H1       HT       0.417000       1.00800           0
     30054 TIP3     1912     TIP3     H2       HT       0.417000       1.00800           0
     30055 TIP3     1913     TIP3     OH2      OT      -0.834000       15.9994           0
     30056 TIP3     1913     TIP3     H1       HT       0.417000       1.00800           0
     30057 TIP3     1913     TIP3     H2       HT       0.417000       1.00800           0
     30058 TIP3     1914     TIP3     OH2      OT      -0.834000       15.9994           0
     30059 TIP3     1914     TIP3     H1       HT       0.417000       1.00800           0
     30060 TIP3     1914     TIP3     H2       HT       0.417000       1.00800           0
     30061 TIP3     1915     TIP3     OH2      OT      -0.834000       15.9994           0
     30062 TIP3     1915     TIP3     H1       HT       0.417000       1.00800           0
     30063 TIP3     1915     TIP3     H2       HT       0.417000       1.00800           0
     30064 TIP3     1916     TIP3     OH2      OT      -0.834000       15.9994           0
     30065 TIP3     1916     TIP3     H1       HT       0.417000       1.00800           0
     30066 TIP3     1916     TIP3     H2       HT       0.417000       1.00800           0
     30067 TIP3     1917     TIP3     OH2      OT      -0.834000       15.9994           0
     30068 TIP3     1917     TIP3     H1       HT       0.417000       1.00800           0
     30069 TIP3     1917     TIP3     H2       HT       0.417000       1.00800           0
     30070 TIP3     1918     TIP3     OH2      OT      -0.834000       15.9994           0
     30071 TIP3     1918     TIP3     H1       HT       0.417000       1.00800           0
     30072 TIP3     1918     TIP3     H2       HT       0.417000       1.00800           0
     30073 TIP3     1919     TIP3     OH2      OT      -0.834000       15.9994           0
     30074 TIP3     1919     TIP3     H1       HT       0.417000       1.00800           0
     30075 TIP3     1919     TIP3     H2       HT       0.417000       1.00800           0
     30076 TIP3     1920     TIP3     OH2      OT      -0.834000       15.9994           0
     30077 TIP3     1920     TIP3     H1       HT       0.417000       1.00800           0
     30078 TIP3     1920     TIP3     H2       HT       0.417000       1.00800           0
     30079 TIP3     1921     TIP3     OH2      OT      -0.834000       15.9994           0
     30080 TIP3     1921     TIP3     H1       HT       0.417000       1.00800           0
     30081 TIP3     1921     TIP3     H2       HT       0.417000       1.00800           0
     30082 TIP3     1922     TIP3     OH2      OT      -0.834000       15.9994           0
     30083 TIP3     1922     TIP3     H1       HT       0.417000       1.00800           0
     30084 TIP3     1922     TIP3     H2       HT       0.417000       1.00800           0
     30085 TIP3     1923     TIP3     OH2      OT      -0.834000       15.9994           0
     30086 TIP3     1923     TIP3     H1       HT       0.417000       1.00800           0
     30087 TIP3     1923     TIP3     H2       HT       0.417000       1.00800           0
     30088 TIP3     1924     TIP3     OH2      OT      -0.834000       15.9994           0
     30089 TIP3     1924     TIP3     H1       HT       0.417000       1.00800           0
     30090 TIP3     1924     TIP3     H2       HT       0.417000       1.00800           0
     30091 TIP3     1925     TIP3     OH2      OT      -0.834000       15.9994           0
     30092 TIP3     1925     TIP3     H1       HT       0.417000       1.00800           0
     30093 TIP3     1925     TIP3     H2       HT       0.417000       1.00800           0
     30094 TIP3     1926     TIP3     OH2      OT      -0.834000       15.9994           0
     30095 TIP3     1926     TIP3     H1       HT       0.417000       1.00800           0
     30096 TIP3     1926     TIP3     H2       HT       0.417000       1.00800           0
     30097 TIP3     1927     TIP3     OH2      OT      -0.834000       15.9994           0
     30098 TIP3     1927     TIP3     H1       HT       0.417000       1.00800           0
     30099 TIP3     1927     TIP3     H2       HT       0.417000       1.00800           0
     30100 TIP3     1928     TIP3     OH2      OT      -0.834000       15.9994           0
     30101 TIP3     1928     TIP3     H1       HT       0.417000       1.00800           0
     30102 TIP3     1928     TIP3     H2       HT       0.417000       1.00800           0
     30103 TIP3     1929     TIP3     OH2      OT      -0.834000       15.9994           0
     30104 TIP3     1929     TIP3     H1       HT       0.417000       1.00800           0
     30105 TIP3     1929     TIP3     H2       HT       0.417000       1.00800           0
     30106 TIP3     1930     TIP3     OH2      OT      -0.834000       15.9994           0
     30107 TIP3     1930     TIP3     H1       HT       0.417000       1.00800           0
     30108 TIP3     1930     TIP3     H2       HT       0.417000       1.00800           0
     30109 TIP3     1931     TIP3     OH2      OT      -0.834000       15.9994           0
     30110 TIP3     1931     TIP3     H1       HT       0.417000       1.00800           0
     30111 TIP3     1931     TIP3     H2       HT       0.417000       1.00800           0
     30112 TIP3     1932     TIP3     OH2      OT      -0.834000       15.9994           0
     30113 TIP3     1932     TIP3     H1       HT       0.417000       1.00800           0
     30114 TIP3     1932     TIP3     H2       HT       0.417000       1.00800           0
     30115 TIP3     1933     TIP3     OH2      OT      -0.834000       15.9994           0
     30116 TIP3     1933     TIP3     H1       HT       0.417000       1.00800           0
     30117 TIP3     1933     TIP3     H2       HT       0.417000       1.00800           0
     30118 TIP3     1934     TIP3     OH2      OT      -0.834000       15.9994           0
     30119 TIP3     1934     TIP3     H1       HT       0.417000       1.00800           0
     30120 TIP3     1934     TIP3     H2       HT       0.417000       1.00800           0
     30121 TIP3     1935     TIP3     OH2      OT      -0.834000       15.9994           0
     30122 TIP3     1935     TIP3     H1       HT       0.417000       1.00800           0
     30123 TIP3     1935     TIP3     H2       HT       0.417000       1.00800           0
     30124 TIP3     1936     TIP3     OH2      OT      -0.834000       15.9994           0
     30125 TIP3     1936     TIP3     H1       HT       0.417000       1.00800           0
     30126 TIP3     1936     TIP3     H2       HT       0.417000       1.00800           0
     30127 TIP3     1937     TIP3     OH2      OT      -0.834000       15.9994           0
     30128 TIP3     1937     TIP3     H1       HT       0.417000       1.00800           0
     30129 TIP3     1937     TIP3     H2       HT       0.417000       1.00800           0
     30130 TIP3     1938     TIP3     OH2      OT      -0.834000       15.9994           0
     30131 TIP3     1938     TIP3     H1       HT       0.417000       1.00800           0
     30132 TIP3     1938     TIP3     H2       HT       0.417000       1.00800           0
     30133 TIP3     1939     TIP3     OH2      OT      -0.834000       15.9994           0
     30134 TIP3     1939     TIP3     H1       HT       0.417000       1.00800           0
     30135 TIP3     1939     TIP3     H2       HT       0.417000       1.00800           0
     30136 TIP3     1940     TIP3     OH2      OT      -0.834000       15.9994           0
     30137 TIP3     1940     TIP3     H1       HT       0.417000       1.00800           0
     30138 TIP3     1940     TIP3     H2       HT       0.417000       1.00800           0
     30139 TIP3     1941     TIP3     OH2      OT      -0.834000       15.9994           0
     30140 TIP3     1941     TIP3     H1       HT       0.417000       1.00800           0
     30141 TIP3     1941     TIP3     H2       HT       0.417000       1.00800           0
     30142 TIP3     1942     TIP3     OH2      OT      -0.834000       15.9994           0
     30143 TIP3     1942     TIP3     H1       HT       0.417000       1.00800           0
     30144 TIP3     1942     TIP3     H2       HT       0.417000       1.00800           0
     30145 TIP3     1943     TIP3     OH2      OT      -0.834000       15.9994           0
     30146 TIP3     1943     TIP3     H1       HT       0.417000       1.00800           0
     30147 TIP3     1943     TIP3     H2       HT       0.417000       1.00800           0
     30148 TIP3     1944     TIP3     OH2      OT      -0.834000       15.9994           0
     30149 TIP3     1944     TIP3     H1       HT       0.417000       1.00800           0
     30150 TIP3     1944     TIP3     H2       HT       0.417000       1.00800           0
     30151 TIP3     1945     TIP3     OH2      OT      -0.834000       15.9994           0
     30152 TIP3     1945     TIP3     H1       HT       0.417000       1.00800           0
     30153 TIP3     1945     TIP3     H2       HT       0.417000       1.00800           0
     30154 TIP3     1946     TIP3     OH2      OT      -0.834000       15.9994           0
     30155 TIP3     1946     TIP3     H1       HT       0.417000       1.00800           0
     30156 TIP3     1946     TIP3     H2       HT       0.417000       1.00800           0
     30157 TIP3     1947     TIP3     OH2      OT      -0.834000       15.9994           0
     30158 TIP3     1947     TIP3     H1       HT       0.417000       1.00800           0
     30159 TIP3     1947     TIP3     H2       HT       0.417000       1.00800           0
     30160 TIP3     1948     TIP3     OH2      OT      -0.834000       15.9994           0
     30161 TIP3     1948     TIP3     H1       HT       0.417000       1.00800           0
     30162 TIP3     1948     TIP3     H2       HT       0.417000       1.00800           0
     30163 TIP3     1949     TIP3     OH2      OT      -0.834000       15.9994           0
     30164 TIP3     1949     TIP3     H1       HT       0.417000       1.00800           0
     30165 TIP3     1949     TIP3     H2       HT       0.417000       1.00800           0
     30166 TIP3     1950     TIP3     OH2      OT      -0.834000       15.9994           0
     30167 TIP3     1950     TIP3     H1       HT       0.417000       1.00800           0
     30168 TIP3     1950     TIP3     H2       HT       0.417000       1.00800           0
     30169 TIP3     1951     TIP3     OH2      OT      -0.834000       15.9994           0
     30170 TIP3     1951     TIP3     H1       HT       0.417000       1.00800           0
     30171 TIP3     1951     TIP3     H2       HT       0.417000       1.00800           0
     30172 TIP3     1952     TIP3     OH2      OT      -0.834000       15.9994           0
     30173 TIP3     1952     TIP3     H1       HT       0.417000       1.00800           0
     30174 TIP3     1952     TIP3     H2       HT       0.417000       1.00800           0
     30175 TIP3     1953     TIP3     OH2      OT      -0.834000       15.9994           0
     30176 TIP3     1953     TIP3     H1       HT       0.417000       1.00800           0
     30177 TIP3     1953     TIP3     H2       HT       0.417000       1.00800           0
     30178 TIP3     1954     TIP3     OH2      OT      -0.834000       15.9994           0
     30179 TIP3     1954     TIP3     H1       HT       0.417000       1.00800           0
     30180 TIP3     1954     TIP3     H2       HT       0.417000       1.00800           0
     30181 TIP3     1955     TIP3     OH2      OT      -0.834000       15.9994           0
     30182 TIP3     1955     TIP3     H1       HT       0.417000       1.00800           0
     30183 TIP3     1955     TIP3     H2       HT       0.417000       1.00800           0
     30184 TIP3     1956     TIP3     OH2      OT      -0.834000       15.9994           0
     30185 TIP3     1956     TIP3     H1       HT       0.417000       1.00800           0
     30186 TIP3     1956     TIP3     H2       HT       0.417000       1.00800           0
     30187 TIP3     1957     TIP3     OH2      OT      -0.834000       15.9994           0
     30188 TIP3     1957     TIP3     H1       HT       0.417000       1.00800           0
     30189 TIP3     1957     TIP3     H2       HT       0.417000       1.00800           0
     30190 TIP3     1958     TIP3     OH2      OT      -0.834000       15.9994           0
     30191 TIP3     1958     TIP3     H1       HT       0.417000       1.00800           0
     30192 TIP3     1958     TIP3     H2       HT       0.417000       1.00800           0
     30193 TIP3     1959     TIP3     OH2      OT      -0.834000       15.9994           0
     30194 TIP3     1959     TIP3     H1       HT       0.417000       1.00800           0
     30195 TIP3     1959     TIP3     H2       HT       0.417000       1.00800           0
     30196 TIP3     1960     TIP3     OH2      OT      -0.834000       15.9994           0
     30197 TIP3     1960     TIP3     H1       HT       0.417000       1.00800           0
     30198 TIP3     1960     TIP3     H2       HT       0.417000       1.00800           0
     30199 TIP3     1961     TIP3     OH2      OT      -0.834000       15.9994           0
     30200 TIP3     1961     TIP3     H1       HT       0.417000       1.00800           0
     30201 TIP3     1961     TIP3     H2       HT       0.417000       1.00800           0
     30202 TIP3     1962     TIP3     OH2      OT      -0.834000       15.9994           0
     30203 TIP3     1962     TIP3     H1       HT       0.417000       1.00800           0
     30204 TIP3     1962     TIP3     H2       HT       0.417000       1.00800           0
     30205 TIP3     1963     TIP3     OH2      OT      -0.834000       15.9994           0
     30206 TIP3     1963     TIP3     H1       HT       0.417000       1.00800           0
     30207 TIP3     1963     TIP3     H2       HT       0.417000       1.00800           0
     30208 TIP3     1964     TIP3     OH2      OT      -0.834000       15.9994           0
     30209 TIP3     1964     TIP3     H1       HT       0.417000       1.00800           0
     30210 TIP3     1964     TIP3     H2       HT       0.417000       1.00800           0
     30211 TIP3     1965     TIP3     OH2      OT      -0.834000       15.9994           0
     30212 TIP3     1965     TIP3     H1       HT       0.417000       1.00800           0
     30213 TIP3     1965     TIP3     H2       HT       0.417000       1.00800           0
     30214 TIP3     1966     TIP3     OH2      OT      -0.834000       15.9994           0
     30215 TIP3     1966     TIP3     H1       HT       0.417000       1.00800           0
     30216 TIP3     1966     TIP3     H2       HT       0.417000       1.00800           0
     30217 TIP3     1967     TIP3     OH2      OT      -0.834000       15.9994           0
     30218 TIP3     1967     TIP3     H1       HT       0.417000       1.00800           0
     30219 TIP3     1967     TIP3     H2       HT       0.417000       1.00800           0
     30220 TIP3     1968     TIP3     OH2      OT      -0.834000       15.9994           0
     30221 TIP3     1968     TIP3     H1       HT       0.417000       1.00800           0
     30222 TIP3     1968     TIP3     H2       HT       0.417000       1.00800           0
     30223 TIP3     1969     TIP3     OH2      OT      -0.834000       15.9994           0
     30224 TIP3     1969     TIP3     H1       HT       0.417000       1.00800           0
     30225 TIP3     1969     TIP3     H2       HT       0.417000       1.00800           0
     30226 TIP3     1970     TIP3     OH2      OT      -0.834000       15.9994           0
     30227 TIP3     1970     TIP3     H1       HT       0.417000       1.00800           0
     30228 TIP3     1970     TIP3     H2       HT       0.417000       1.00800           0
     30229 TIP3     1971     TIP3     OH2      OT      -0.834000       15.9994           0
     30230 TIP3     1971     TIP3     H1       HT       0.417000       1.00800           0
     30231 TIP3     1971     TIP3     H2       HT       0.417000       1.00800           0
     30232 TIP3     1972     TIP3     OH2      OT      -0.834000       15.9994           0
     30233 TIP3     1972     TIP3     H1       HT       0.417000       1.00800           0
     30234 TIP3     1972     TIP3     H2       HT       0.417000       1.00800           0
     30235 TIP3     1973     TIP3     OH2      OT      -0.834000       15.9994           0
     30236 TIP3     1973     TIP3     H1       HT       0.417000       1.00800           0
     30237 TIP3     1973     TIP3     H2       HT       0.417000       1.00800           0
     30238 TIP3     1974     TIP3     OH2      OT      -0.834000       15.9994           0
     30239 TIP3     1974     TIP3     H1       HT       0.417000       1.00800           0
     30240 TIP3     1974     TIP3     H2       HT       0.417000       1.00800           0
     30241 TIP3     1975     TIP3     OH2      OT      -0.834000       15.9994           0
     30242 TIP3     1975     TIP3     H1       HT       0.417000       1.00800           0
     30243 TIP3     1975     TIP3     H2       HT       0.417000       1.00800           0
     30244 TIP3     1976     TIP3     OH2      OT      -0.834000       15.9994           0
     30245 TIP3     1976     TIP3     H1       HT       0.417000       1.00800           0
     30246 TIP3     1976     TIP3     H2       HT       0.417000       1.00800           0
     30247 TIP3     1977     TIP3     OH2      OT      -0.834000       15.9994           0
     30248 TIP3     1977     TIP3     H1       HT       0.417000       1.00800           0
     30249 TIP3     1977     TIP3     H2       HT       0.417000       1.00800           0
     30250 TIP3     1978     TIP3     OH2      OT      -0.834000       15.9994           0
     30251 TIP3     1978     TIP3     H1       HT       0.417000       1.00800           0
     30252 TIP3     1978     TIP3     H2       HT       0.417000       1.00800           0
     30253 TIP3     1979     TIP3     OH2      OT      -0.834000       15.9994           0
     30254 TIP3     1979     TIP3     H1       HT       0.417000       1.00800           0
     30255 TIP3     1979     TIP3     H2       HT       0.417000       1.00800           0
     30256 TIP3     1980     TIP3     OH2      OT      -0.834000       15.9994           0
     30257 TIP3     1980     TIP3     H1       HT       0.417000       1.00800           0
     30258 TIP3     1980     TIP3     H2       HT       0.417000       1.00800           0
     30259 TIP3     1981     TIP3     OH2      OT      -0.834000       15.9994           0
     30260 TIP3     1981     TIP3     H1       HT       0.417000       1.00800           0
     30261 TIP3     1981     TIP3     H2       HT       0.417000       1.00800           0
     30262 TIP3     1982     TIP3     OH2      OT      -0.834000       15.9994           0
     30263 TIP3     1982     TIP3     H1       HT       0.417000       1.00800           0
     30264 TIP3     1982     TIP3     H2       HT       0.417000       1.00800           0
     30265 TIP3     1983     TIP3     OH2      OT      -0.834000       15.9994           0
     30266 TIP3     1983     TIP3     H1       HT       0.417000       1.00800           0
     30267 TIP3     1983     TIP3     H2       HT       0.417000       1.00800           0
     30268 TIP3     1984     TIP3     OH2      OT      -0.834000       15.9994           0
     30269 TIP3     1984     TIP3     H1       HT       0.417000       1.00800           0
     30270 TIP3     1984     TIP3     H2       HT       0.417000       1.00800           0
     30271 TIP3     1985     TIP3     OH2      OT      -0.834000       15.9994           0
     30272 TIP3     1985     TIP3     H1       HT       0.417000       1.00800           0
     30273 TIP3     1985     TIP3     H2       HT       0.417000       1.00800           0
     30274 TIP3     1986     TIP3     OH2      OT      -0.834000       15.9994           0
     30275 TIP3     1986     TIP3     H1       HT       0.417000       1.00800           0
     30276 TIP3     1986     TIP3     H2       HT       0.417000       1.00800           0
     30277 TIP3     1987     TIP3     OH2      OT      -0.834000       15.9994           0
     30278 TIP3     1987     TIP3     H1       HT       0.417000       1.00800           0
     30279 TIP3     1987     TIP3     H2       HT       0.417000       1.00800           0
     30280 TIP3     1988     TIP3     OH2      OT      -0.834000       15.9994           0
     30281 TIP3     1988     TIP3     H1       HT       0.417000       1.00800           0
     30282 TIP3     1988     TIP3     H2       HT       0.417000       1.00800           0
     30283 TIP3     1989     TIP3     OH2      OT      -0.834000       15.9994           0
     30284 TIP3     1989     TIP3     H1       HT       0.417000       1.00800           0
     30285 TIP3     1989     TIP3     H2       HT       0.417000       1.00800           0
     30286 TIP3     1990     TIP3     OH2      OT      -0.834000       15.9994           0
     30287 TIP3     1990     TIP3     H1       HT       0.417000       1.00800           0
     30288 TIP3     1990     TIP3     H2       HT       0.417000       1.00800           0
     30289 TIP3     1991     TIP3     OH2      OT      -0.834000       15.9994           0
     30290 TIP3     1991     TIP3     H1       HT       0.417000       1.00800           0
     30291 TIP3     1991     TIP3     H2       HT       0.417000       1.00800           0
     30292 TIP3     1992     TIP3     OH2      OT      -0.834000       15.9994           0
     30293 TIP3     1992     TIP3     H1       HT       0.417000       1.00800           0
     30294 TIP3     1992     TIP3     H2       HT       0.417000       1.00800           0
     30295 TIP3     1993     TIP3     OH2      OT      -0.834000       15.9994           0
     30296 TIP3     1993     TIP3     H1       HT       0.417000       1.00800           0
     30297 TIP3     1993     TIP3     H2       HT       0.417000       1.00800           0
     30298 TIP3     1994     TIP3     OH2      OT      -0.834000       15.9994           0
     30299 TIP3     1994     TIP3     H1       HT       0.417000       1.00800           0
     30300 TIP3     1994     TIP3     H2       HT       0.417000       1.00800           0
     30301 TIP3     1995     TIP3     OH2      OT      -0.834000       15.9994           0
     30302 TIP3     1995     TIP3     H1       HT       0.417000       1.00800           0
     30303 TIP3     1995     TIP3     H2       HT       0.417000       1.00800           0
     30304 TIP3     1996     TIP3     OH2      OT      -0.834000       15.9994           0
     30305 TIP3     1996     TIP3     H1       HT       0.417000       1.00800           0
     30306 TIP3     1996     TIP3     H2       HT       0.417000       1.00800           0
     30307 TIP3     1997     TIP3     OH2      OT      -0.834000       15.9994           0
     30308 TIP3     1997     TIP3     H1       HT       0.417000       1.00800           0
     30309 TIP3     1997     TIP3     H2       HT       0.417000       1.00800           0
     30310 TIP3     1998     TIP3     OH2      OT      -0.834000       15.9994           0
     30311 TIP3     1998     TIP3     H1       HT       0.417000       1.00800           0
     30312 TIP3     1998     TIP3     H2       HT       0.417000       1.00800           0
     30313 TIP3     1999     TIP3     OH2      OT      -0.834000       15.9994           0
     30314 TIP3     1999     TIP3     H1       HT       0.417000       1.00800           0
     30315 TIP3     1999     TIP3     H2       HT       0.417000       1.00800           0
     30316 TIP3     2000     TIP3     OH2      OT      -0.834000       15.9994           0
     30317 TIP3     2000     TIP3     H1       HT       0.417000       1.00800           0
     30318 TIP3     2000     TIP3     H2       HT       0.417000       1.00800           0
     30319 TIP3     2001     TIP3     OH2      OT      -0.834000       15.9994           0
     30320 TIP3     2001     TIP3     H1       HT       0.417000       1.00800           0
     30321 TIP3     2001     TIP3     H2       HT       0.417000       1.00800           0
     30322 TIP3     2002     TIP3     OH2      OT      -0.834000       15.9994           0
     30323 TIP3     2002     TIP3     H1       HT       0.417000       1.00800           0
     30324 TIP3     2002     TIP3     H2       HT       0.417000       1.00800           0
     30325 TIP3     2003     TIP3     OH2      OT      -0.834000       15.9994           0
     30326 TIP3     2003     TIP3     H1       HT       0.417000       1.00800           0
     30327 TIP3     2003     TIP3     H2       HT       0.417000       1.00800           0
     30328 TIP3     2004     TIP3     OH2      OT      -0.834000       15.9994           0
     30329 TIP3     2004     TIP3     H1       HT       0.417000       1.00800           0
     30330 TIP3     2004     TIP3     H2       HT       0.417000       1.00800           0
     30331 TIP3     2005     TIP3     OH2      OT      -0.834000       15.9994           0
     30332 TIP3     2005     TIP3     H1       HT       0.417000       1.00800           0
     30333 TIP3     2005     TIP3     H2       HT       0.417000       1.00800           0
     30334 TIP3     2006     TIP3     OH2      OT      -0.834000       15.9994           0
     30335 TIP3     2006     TIP3     H1       HT       0.417000       1.00800           0
     30336 TIP3     2006     TIP3     H2       HT       0.417000       1.00800           0
     30337 TIP3     2007     TIP3     OH2      OT      -0.834000       15.9994           0
     30338 TIP3     2007     TIP3     H1       HT       0.417000       1.00800           0
     30339 TIP3     2007     TIP3     H2       HT       0.417000       1.00800           0
     30340 TIP3     2008     TIP3     OH2      OT      -0.834000       15.9994           0
     30341 TIP3     2008     TIP3     H1       HT       0.417000       1.00800           0
     30342 TIP3     2008     TIP3     H2       HT       0.417000       1.00800           0
     30343 TIP3     2009     TIP3     OH2      OT      -0.834000       15.9994           0
     30344 TIP3     2009     TIP3     H1       HT       0.417000       1.00800           0
     30345 TIP3     2009     TIP3     H2       HT       0.417000       1.00800           0
     30346 TIP3     2010     TIP3     OH2      OT      -0.834000       15.9994           0
     30347 TIP3     2010     TIP3     H1       HT       0.417000       1.00800           0
     30348 TIP3     2010     TIP3     H2       HT       0.417000       1.00800           0
     30349 TIP3     2011     TIP3     OH2      OT      -0.834000       15.9994           0
     30350 TIP3     2011     TIP3     H1       HT       0.417000       1.00800           0
     30351 TIP3     2011     TIP3     H2       HT       0.417000       1.00800           0
     30352 TIP3     2012     TIP3     OH2      OT      -0.834000       15.9994           0
     30353 TIP3     2012     TIP3     H1       HT       0.417000       1.00800           0
     30354 TIP3     2012     TIP3     H2       HT       0.417000       1.00800           0
     30355 TIP3     2013     TIP3     OH2      OT      -0.834000       15.9994           0
     30356 TIP3     2013     TIP3     H1       HT       0.417000       1.00800           0
     30357 TIP3     2013     TIP3     H2       HT       0.417000       1.00800           0
     30358 TIP3     2014     TIP3     OH2      OT      -0.834000       15.9994           0
     30359 TIP3     2014     TIP3     H1       HT       0.417000       1.00800           0
     30360 TIP3     2014     TIP3     H2       HT       0.417000       1.00800           0
     30361 TIP3     2015     TIP3     OH2      OT      -0.834000       15.9994           0
     30362 TIP3     2015     TIP3     H1       HT       0.417000       1.00800           0
     30363 TIP3     2015     TIP3     H2       HT       0.417000       1.00800           0
     30364 TIP3     2016     TIP3     OH2      OT      -0.834000       15.9994           0
     30365 TIP3     2016     TIP3     H1       HT       0.417000       1.00800           0
     30366 TIP3     2016     TIP3     H2       HT       0.417000       1.00800           0
     30367 TIP3     2017     TIP3     OH2      OT      -0.834000       15.9994           0
     30368 TIP3     2017     TIP3     H1       HT       0.417000       1.00800           0
     30369 TIP3     2017     TIP3     H2       HT       0.417000       1.00800           0
     30370 TIP3     2018     TIP3     OH2      OT      -0.834000       15.9994           0
     30371 TIP3     2018     TIP3     H1       HT       0.417000       1.00800           0
     30372 TIP3     2018     TIP3     H2       HT       0.417000       1.00800           0
     30373 TIP3     2019     TIP3     OH2      OT      -0.834000       15.9994           0
     30374 TIP3     2019     TIP3     H1       HT       0.417000       1.00800           0
     30375 TIP3     2019     TIP3     H2       HT       0.417000       1.00800           0
     30376 TIP3     2020     TIP3     OH2      OT      -0.834000       15.9994           0
     30377 TIP3     2020     TIP3     H1       HT       0.417000       1.00800           0
     30378 TIP3     2020     TIP3     H2       HT       0.417000       1.00800           0
     30379 TIP3     2021     TIP3     OH2      OT      -0.834000       15.9994           0
     30380 TIP3     2021     TIP3     H1       HT       0.417000       1.00800           0
     30381 TIP3     2021     TIP3     H2       HT       0.417000       1.00800           0
     30382 TIP3     2022     TIP3     OH2      OT      -0.834000       15.9994           0
     30383 TIP3     2022     TIP3     H1       HT       0.417000       1.00800           0
     30384 TIP3     2022     TIP3     H2       HT       0.417000       1.00800           0
     30385 TIP3     2023     TIP3     OH2      OT      -0.834000       15.9994           0
     30386 TIP3     2023     TIP3     H1       HT       0.417000       1.00800           0
     30387 TIP3     2023     TIP3     H2       HT       0.417000       1.00800           0
     30388 TIP3     2024     TIP3     OH2      OT      -0.834000       15.9994           0
     30389 TIP3     2024     TIP3     H1       HT       0.417000       1.00800           0
     30390 TIP3     2024     TIP3     H2       HT       0.417000       1.00800           0
     30391 TIP3     2025     TIP3     OH2      OT      -0.834000       15.9994           0
     30392 TIP3     2025     TIP3     H1       HT       0.417000       1.00800           0
     30393 TIP3     2025     TIP3     H2       HT       0.417000       1.00800           0
     30394 TIP3     2026     TIP3     OH2      OT      -0.834000       15.9994           0
     30395 TIP3     2026     TIP3     H1       HT       0.417000       1.00800           0
     30396 TIP3     2026     TIP3     H2       HT       0.417000       1.00800           0
     30397 TIP3     2027     TIP3     OH2      OT      -0.834000       15.9994           0
     30398 TIP3     2027     TIP3     H1       HT       0.417000       1.00800           0
     30399 TIP3     2027     TIP3     H2       HT       0.417000       1.00800           0
     30400 TIP3     2028     TIP3     OH2      OT      -0.834000       15.9994           0
     30401 TIP3     2028     TIP3     H1       HT       0.417000       1.00800           0
     30402 TIP3     2028     TIP3     H2       HT       0.417000       1.00800           0
     30403 TIP3     2029     TIP3     OH2      OT      -0.834000       15.9994           0
     30404 TIP3     2029     TIP3     H1       HT       0.417000       1.00800           0
     30405 TIP3     2029     TIP3     H2       HT       0.417000       1.00800           0
     30406 TIP3     2030     TIP3     OH2      OT      -0.834000       15.9994           0
     30407 TIP3     2030     TIP3     H1       HT       0.417000       1.00800           0
     30408 TIP3     2030     TIP3     H2       HT       0.417000       1.00800           0
     30409 TIP3     2031     TIP3     OH2      OT      -0.834000       15.9994           0
     30410 TIP3     2031     TIP3     H1       HT       0.417000       1.00800           0
     30411 TIP3     2031     TIP3     H2       HT       0.417000       1.00800           0
     30412 TIP3     2032     TIP3     OH2      OT      -0.834000       15.9994           0
     30413 TIP3     2032     TIP3     H1       HT       0.417000       1.00800           0
     30414 TIP3     2032     TIP3     H2       HT       0.417000       1.00800           0
     30415 TIP3     2033     TIP3     OH2      OT      -0.834000       15.9994           0
     30416 TIP3     2033     TIP3     H1       HT       0.417000       1.00800           0
     30417 TIP3     2033     TIP3     H2       HT       0.417000       1.00800           0
     30418 TIP3     2034     TIP3     OH2      OT      -0.834000       15.9994           0
     30419 TIP3     2034     TIP3     H1       HT       0.417000       1.00800           0
     30420 TIP3     2034     TIP3     H2       HT       0.417000       1.00800           0
     30421 TIP3     2035     TIP3     OH2      OT      -0.834000       15.9994           0
     30422 TIP3     2035     TIP3     H1       HT       0.417000       1.00800           0
     30423 TIP3     2035     TIP3     H2       HT       0.417000       1.00800           0
     30424 TIP3     2036     TIP3     OH2      OT      -0.834000       15.9994           0
     30425 TIP3     2036     TIP3     H1       HT       0.417000       1.00800           0
     30426 TIP3     2036     TIP3     H2       HT       0.417000       1.00800           0
     30427 TIP3     2037     TIP3     OH2      OT      -0.834000       15.9994           0
     30428 TIP3     2037     TIP3     H1       HT       0.417000       1.00800           0
     30429 TIP3     2037     TIP3     H2       HT       0.417000       1.00800           0
     30430 TIP3     2038     TIP3     OH2      OT      -0.834000       15.9994           0
     30431 TIP3     2038     TIP3     H1       HT       0.417000       1.00800           0
     30432 TIP3     2038     TIP3     H2       HT       0.417000       1.00800           0
     30433 TIP3     2039     TIP3     OH2      OT      -0.834000       15.9994           0
     30434 TIP3     2039     TIP3     H1       HT       0.417000       1.00800           0
     30435 TIP3     2039     TIP3     H2       HT       0.417000       1.00800           0
     30436 TIP3     2040     TIP3     OH2      OT      -0.834000       15.9994           0
     30437 TIP3     2040     TIP3     H1       HT       0.417000       1.00800           0
     30438 TIP3     2040     TIP3     H2       HT       0.417000       1.00800           0
     30439 TIP3     2041     TIP3     OH2      OT      -0.834000       15.9994           0
     30440 TIP3     2041     TIP3     H1       HT       0.417000       1.00800           0
     30441 TIP3     2041     TIP3     H2       HT       0.417000       1.00800           0
     30442 TIP3     2042     TIP3     OH2      OT      -0.834000       15.9994           0
     30443 TIP3     2042     TIP3     H1       HT       0.417000       1.00800           0
     30444 TIP3     2042     TIP3     H2       HT       0.417000       1.00800           0
     30445 TIP3     2043     TIP3     OH2      OT      -0.834000       15.9994           0
     30446 TIP3     2043     TIP3     H1       HT       0.417000       1.00800           0
     30447 TIP3     2043     TIP3     H2       HT       0.417000       1.00800           0
     30448 TIP3     2044     TIP3     OH2      OT      -0.834000       15.9994           0
     30449 TIP3     2044     TIP3     H1       HT       0.417000       1.00800           0
     30450 TIP3     2044     TIP3     H2       HT       0.417000       1.00800           0
     30451 TIP3     2045     TIP3     OH2      OT      -0.834000       15.9994           0
     30452 TIP3     2045     TIP3     H1       HT       0.417000       1.00800           0
     30453 TIP3     2045     TIP3     H2       HT       0.417000       1.00800           0
     30454 TIP3     2046     TIP3     OH2      OT      -0.834000       15.9994           0
     30455 TIP3     2046     TIP3     H1       HT       0.417000       1.00800           0
     30456 TIP3     2046     TIP3     H2       HT       0.417000       1.00800           0
     30457 TIP3     2047     TIP3     OH2      OT      -0.834000       15.9994           0
     30458 TIP3     2047     TIP3     H1       HT       0.417000       1.00800           0
     30459 TIP3     2047     TIP3     H2       HT       0.417000       1.00800           0
     30460 TIP3     2048     TIP3     OH2      OT      -0.834000       15.9994           0
     30461 TIP3     2048     TIP3     H1       HT       0.417000       1.00800           0
     30462 TIP3     2048     TIP3     H2       HT       0.417000       1.00800           0
     30463 TIP3     2049     TIP3     OH2      OT      -0.834000       15.9994           0
     30464 TIP3     2049     TIP3     H1       HT       0.417000       1.00800           0
     30465 TIP3     2049     TIP3     H2       HT       0.417000       1.00800           0
     30466 TIP3     2050     TIP3     OH2      OT      -0.834000       15.9994           0
     30467 TIP3     2050     TIP3     H1       HT       0.417000       1.00800           0
     30468 TIP3     2050     TIP3     H2       HT       0.417000       1.00800           0
     30469 TIP3     2051     TIP3     OH2      OT      -0.834000       15.9994           0
     30470 TIP3     2051     TIP3     H1       HT       0.417000       1.00800           0
     30471 TIP3     2051     TIP3     H2       HT       0.417000       1.00800           0
     30472 TIP3     2052     TIP3     OH2      OT      -0.834000       15.9994           0
     30473 TIP3     2052     TIP3     H1       HT       0.417000       1.00800           0
     30474 TIP3     2052     TIP3     H2       HT       0.417000       1.00800           0
     30475 TIP3     2053     TIP3     OH2      OT      -0.834000       15.9994           0
     30476 TIP3     2053     TIP3     H1       HT       0.417000       1.00800           0
     30477 TIP3     2053     TIP3     H2       HT       0.417000       1.00800           0
     30478 TIP3     2054     TIP3     OH2      OT      -0.834000       15.9994           0
     30479 TIP3     2054     TIP3     H1       HT       0.417000       1.00800           0
     30480 TIP3     2054     TIP3     H2       HT       0.417000       1.00800           0
     30481 TIP3     2055     TIP3     OH2      OT      -0.834000       15.9994           0
     30482 TIP3     2055     TIP3     H1       HT       0.417000       1.00800           0
     30483 TIP3     2055     TIP3     H2       HT       0.417000       1.00800           0
     30484 TIP3     2056     TIP3     OH2      OT      -0.834000       15.9994           0
     30485 TIP3     2056     TIP3     H1       HT       0.417000       1.00800           0
     30486 TIP3     2056     TIP3     H2       HT       0.417000       1.00800           0
     30487 TIP3     2057     TIP3     OH2      OT      -0.834000       15.9994           0
     30488 TIP3     2057     TIP3     H1       HT       0.417000       1.00800           0
     30489 TIP3     2057     TIP3     H2       HT       0.417000       1.00800           0
     30490 TIP3     2058     TIP3     OH2      OT      -0.834000       15.9994           0
     30491 TIP3     2058     TIP3     H1       HT       0.417000       1.00800           0
     30492 TIP3     2058     TIP3     H2       HT       0.417000       1.00800           0
     30493 TIP3     2059     TIP3     OH2      OT      -0.834000       15.9994           0
     30494 TIP3     2059     TIP3     H1       HT       0.417000       1.00800           0
     30495 TIP3     2059     TIP3     H2       HT       0.417000       1.00800           0
     30496 TIP3     2060     TIP3     OH2      OT      -0.834000       15.9994           0
     30497 TIP3     2060     TIP3     H1       HT       0.417000       1.00800           0
     30498 TIP3     2060     TIP3     H2       HT       0.417000       1.00800           0
     30499 TIP3     2061     TIP3     OH2      OT      -0.834000       15.9994           0
     30500 TIP3     2061     TIP3     H1       HT       0.417000       1.00800           0
     30501 TIP3     2061     TIP3     H2       HT       0.417000       1.00800           0
     30502 TIP3     2062     TIP3     OH2      OT      -0.834000       15.9994           0
     30503 TIP3     2062     TIP3     H1       HT       0.417000       1.00800           0
     30504 TIP3     2062     TIP3     H2       HT       0.417000       1.00800           0
     30505 TIP3     2063     TIP3     OH2      OT      -0.834000       15.9994           0
     30506 TIP3     2063     TIP3     H1       HT       0.417000       1.00800           0
     30507 TIP3     2063     TIP3     H2       HT       0.417000       1.00800           0
     30508 TIP3     2064     TIP3     OH2      OT      -0.834000       15.9994           0
     30509 TIP3     2064     TIP3     H1       HT       0.417000       1.00800           0
     30510 TIP3     2064     TIP3     H2       HT       0.417000       1.00800           0
     30511 TIP3     2065     TIP3     OH2      OT      -0.834000       15.9994           0
     30512 TIP3     2065     TIP3     H1       HT       0.417000       1.00800           0
     30513 TIP3     2065     TIP3     H2       HT       0.417000       1.00800           0
     30514 TIP3     2066     TIP3     OH2      OT      -0.834000       15.9994           0
     30515 TIP3     2066     TIP3     H1       HT       0.417000       1.00800           0
     30516 TIP3     2066     TIP3     H2       HT       0.417000       1.00800           0
     30517 TIP3     2067     TIP3     OH2      OT      -0.834000       15.9994           0
     30518 TIP3     2067     TIP3     H1       HT       0.417000       1.00800           0
     30519 TIP3     2067     TIP3     H2       HT       0.417000       1.00800           0
     30520 TIP3     2068     TIP3     OH2      OT      -0.834000       15.9994           0
     30521 TIP3     2068     TIP3     H1       HT       0.417000       1.00800           0
     30522 TIP3     2068     TIP3     H2       HT       0.417000       1.00800           0
     30523 TIP3     2069     TIP3     OH2      OT      -0.834000       15.9994           0
     30524 TIP3     2069     TIP3     H1       HT       0.417000       1.00800           0
     30525 TIP3     2069     TIP3     H2       HT       0.417000       1.00800           0
     30526 TIP3     2070     TIP3     OH2      OT      -0.834000       15.9994           0
     30527 TIP3     2070     TIP3     H1       HT       0.417000       1.00800           0
     30528 TIP3     2070     TIP3     H2       HT       0.417000       1.00800           0
     30529 TIP3     2071     TIP3     OH2      OT      -0.834000       15.9994           0
     30530 TIP3     2071     TIP3     H1       HT       0.417000       1.00800           0
     30531 TIP3     2071     TIP3     H2       HT       0.417000       1.00800           0
     30532 TIP3     2072     TIP3     OH2      OT      -0.834000       15.9994           0
     30533 TIP3     2072     TIP3     H1       HT       0.417000       1.00800           0
     30534 TIP3     2072     TIP3     H2       HT       0.417000       1.00800           0
     30535 TIP3     2073     TIP3     OH2      OT      -0.834000       15.9994           0
     30536 TIP3     2073     TIP3     H1       HT       0.417000       1.00800           0
     30537 TIP3     2073     TIP3     H2       HT       0.417000       1.00800           0
     30538 TIP3     2074     TIP3     OH2      OT      -0.834000       15.9994           0
     30539 TIP3     2074     TIP3     H1       HT       0.417000       1.00800           0
     30540 TIP3     2074     TIP3     H2       HT       0.417000       1.00800           0
     30541 TIP3     2075     TIP3     OH2      OT      -0.834000       15.9994           0
     30542 TIP3     2075     TIP3     H1       HT       0.417000       1.00800           0
     30543 TIP3     2075     TIP3     H2       HT       0.417000       1.00800           0
     30544 TIP3     2076     TIP3     OH2      OT      -0.834000       15.9994           0
     30545 TIP3     2076     TIP3     H1       HT       0.417000       1.00800           0
     30546 TIP3     2076     TIP3     H2       HT       0.417000       1.00800           0
     30547 TIP3     2077     TIP3     OH2      OT      -0.834000       15.9994           0
     30548 TIP3     2077     TIP3     H1       HT       0.417000       1.00800           0
     30549 TIP3     2077     TIP3     H2       HT       0.417000       1.00800           0
     30550 TIP3     2078     TIP3     OH2      OT      -0.834000       15.9994           0
     30551 TIP3     2078     TIP3     H1       HT       0.417000       1.00800           0
     30552 TIP3     2078     TIP3     H2       HT       0.417000       1.00800           0
     30553 TIP3     2079     TIP3     OH2      OT      -0.834000       15.9994           0
     30554 TIP3     2079     TIP3     H1       HT       0.417000       1.00800           0
     30555 TIP3     2079     TIP3     H2       HT       0.417000       1.00800           0
     30556 TIP3     2080     TIP3     OH2      OT      -0.834000       15.9994           0
     30557 TIP3     2080     TIP3     H1       HT       0.417000       1.00800           0
     30558 TIP3     2080     TIP3     H2       HT       0.417000       1.00800           0
     30559 TIP3     2081     TIP3     OH2      OT      -0.834000       15.9994           0
     30560 TIP3     2081     TIP3     H1       HT       0.417000       1.00800           0
     30561 TIP3     2081     TIP3     H2       HT       0.417000       1.00800           0
     30562 TIP3     2082     TIP3     OH2      OT      -0.834000       15.9994           0
     30563 TIP3     2082     TIP3     H1       HT       0.417000       1.00800           0
     30564 TIP3     2082     TIP3     H2       HT       0.417000       1.00800           0
     30565 TIP3     2083     TIP3     OH2      OT      -0.834000       15.9994           0
     30566 TIP3     2083     TIP3     H1       HT       0.417000       1.00800           0
     30567 TIP3     2083     TIP3     H2       HT       0.417000       1.00800           0
     30568 TIP3     2084     TIP3     OH2      OT      -0.834000       15.9994           0
     30569 TIP3     2084     TIP3     H1       HT       0.417000       1.00800           0
     30570 TIP3     2084     TIP3     H2       HT       0.417000       1.00800           0
     30571 TIP3     2085     TIP3     OH2      OT      -0.834000       15.9994           0
     30572 TIP3     2085     TIP3     H1       HT       0.417000       1.00800           0
     30573 TIP3     2085     TIP3     H2       HT       0.417000       1.00800           0
     30574 TIP3     2086     TIP3     OH2      OT      -0.834000       15.9994           0
     30575 TIP3     2086     TIP3     H1       HT       0.417000       1.00800           0
     30576 TIP3     2086     TIP3     H2       HT       0.417000       1.00800           0
     30577 TIP3     2087     TIP3     OH2      OT      -0.834000       15.9994           0
     30578 TIP3     2087     TIP3     H1       HT       0.417000       1.00800           0
     30579 TIP3     2087     TIP3     H2       HT       0.417000       1.00800           0
     30580 TIP3     2088     TIP3     OH2      OT      -0.834000       15.9994           0
     30581 TIP3     2088     TIP3     H1       HT       0.417000       1.00800           0
     30582 TIP3     2088     TIP3     H2       HT       0.417000       1.00800           0
     30583 TIP3     2089     TIP3     OH2      OT      -0.834000       15.9994           0
     30584 TIP3     2089     TIP3     H1       HT       0.417000       1.00800           0
     30585 TIP3     2089     TIP3     H2       HT       0.417000       1.00800           0
     30586 TIP3     2090     TIP3     OH2      OT      -0.834000       15.9994           0
     30587 TIP3     2090     TIP3     H1       HT       0.417000       1.00800           0
     30588 TIP3     2090     TIP3     H2       HT       0.417000       1.00800           0
     30589 TIP3     2091     TIP3     OH2      OT      -0.834000       15.9994           0
     30590 TIP3     2091     TIP3     H1       HT       0.417000       1.00800           0
     30591 TIP3     2091     TIP3     H2       HT       0.417000       1.00800           0
     30592 TIP3     2092     TIP3     OH2      OT      -0.834000       15.9994           0
     30593 TIP3     2092     TIP3     H1       HT       0.417000       1.00800           0
     30594 TIP3     2092     TIP3     H2       HT       0.417000       1.00800           0
     30595 TIP3     2093     TIP3     OH2      OT      -0.834000       15.9994           0
     30596 TIP3     2093     TIP3     H1       HT       0.417000       1.00800           0
     30597 TIP3     2093     TIP3     H2       HT       0.417000       1.00800           0
     30598 TIP3     2094     TIP3     OH2      OT      -0.834000       15.9994           0
     30599 TIP3     2094     TIP3     H1       HT       0.417000       1.00800           0
     30600 TIP3     2094     TIP3     H2       HT       0.417000       1.00800           0
     30601 TIP3     2095     TIP3     OH2      OT      -0.834000       15.9994           0
     30602 TIP3     2095     TIP3     H1       HT       0.417000       1.00800           0
     30603 TIP3     2095     TIP3     H2       HT       0.417000       1.00800           0
     30604 TIP3     2096     TIP3     OH2      OT      -0.834000       15.9994           0
     30605 TIP3     2096     TIP3     H1       HT       0.417000       1.00800           0
     30606 TIP3     2096     TIP3     H2       HT       0.417000       1.00800           0
     30607 TIP3     2097     TIP3     OH2      OT      -0.834000       15.9994           0
     30608 TIP3     2097     TIP3     H1       HT       0.417000       1.00800           0
     30609 TIP3     2097     TIP3     H2       HT       0.417000       1.00800           0
     30610 TIP3     2098     TIP3     OH2      OT      -0.834000       15.9994           0
     30611 TIP3     2098     TIP3     H1       HT       0.417000       1.00800           0
     30612 TIP3     2098     TIP3     H2       HT       0.417000       1.00800           0
     30613 TIP3     2099     TIP3     OH2      OT      -0.834000       15.9994           0
     30614 TIP3     2099     TIP3     H1       HT       0.417000       1.00800           0
     30615 TIP3     2099     TIP3     H2       HT       0.417000       1.00800           0
     30616 TIP3     2100     TIP3     OH2      OT      -0.834000       15.9994           0
     30617 TIP3     2100     TIP3     H1       HT       0.417000       1.00800           0
     30618 TIP3     2100     TIP3     H2       HT       0.417000       1.00800           0
     30619 TIP3     2101     TIP3     OH2      OT      -0.834000       15.9994           0
     30620 TIP3     2101     TIP3     H1       HT       0.417000       1.00800           0
     30621 TIP3     2101     TIP3     H2       HT       0.417000       1.00800           0
     30622 TIP3     2102     TIP3     OH2      OT      -0.834000       15.9994           0
     30623 TIP3     2102     TIP3     H1       HT       0.417000       1.00800           0
     30624 TIP3     2102     TIP3     H2       HT       0.417000       1.00800           0
     30625 TIP3     2103     TIP3     OH2      OT      -0.834000       15.9994           0
     30626 TIP3     2103     TIP3     H1       HT       0.417000       1.00800           0
     30627 TIP3     2103     TIP3     H2       HT       0.417000       1.00800           0
     30628 TIP3     2104     TIP3     OH2      OT      -0.834000       15.9994           0
     30629 TIP3     2104     TIP3     H1       HT       0.417000       1.00800           0
     30630 TIP3     2104     TIP3     H2       HT       0.417000       1.00800           0
     30631 TIP3     2105     TIP3     OH2      OT      -0.834000       15.9994           0
     30632 TIP3     2105     TIP3     H1       HT       0.417000       1.00800           0
     30633 TIP3     2105     TIP3     H2       HT       0.417000       1.00800           0
     30634 TIP3     2106     TIP3     OH2      OT      -0.834000       15.9994           0
     30635 TIP3     2106     TIP3     H1       HT       0.417000       1.00800           0
     30636 TIP3     2106     TIP3     H2       HT       0.417000       1.00800           0
     30637 TIP3     2107     TIP3     OH2      OT      -0.834000       15.9994           0
     30638 TIP3     2107     TIP3     H1       HT       0.417000       1.00800           0
     30639 TIP3     2107     TIP3     H2       HT       0.417000       1.00800           0
     30640 TIP3     2108     TIP3     OH2      OT      -0.834000       15.9994           0
     30641 TIP3     2108     TIP3     H1       HT       0.417000       1.00800           0
     30642 TIP3     2108     TIP3     H2       HT       0.417000       1.00800           0
     30643 TIP3     2109     TIP3     OH2      OT      -0.834000       15.9994           0
     30644 TIP3     2109     TIP3     H1       HT       0.417000       1.00800           0
     30645 TIP3     2109     TIP3     H2       HT       0.417000       1.00800           0
     30646 TIP3     2110     TIP3     OH2      OT      -0.834000       15.9994           0
     30647 TIP3     2110     TIP3     H1       HT       0.417000       1.00800           0
     30648 TIP3     2110     TIP3     H2       HT       0.417000       1.00800           0
     30649 TIP3     2111     TIP3     OH2      OT      -0.834000       15.9994           0
     30650 TIP3     2111     TIP3     H1       HT       0.417000       1.00800           0
     30651 TIP3     2111     TIP3     H2       HT       0.417000       1.00800           0
     30652 TIP3     2112     TIP3     OH2      OT      -0.834000       15.9994           0
     30653 TIP3     2112     TIP3     H1       HT       0.417000       1.00800           0
     30654 TIP3     2112     TIP3     H2       HT       0.417000       1.00800           0
     30655 TIP3     2113     TIP3     OH2      OT      -0.834000       15.9994           0
     30656 TIP3     2113     TIP3     H1       HT       0.417000       1.00800           0
     30657 TIP3     2113     TIP3     H2       HT       0.417000       1.00800           0
     30658 TIP3     2114     TIP3     OH2      OT      -0.834000       15.9994           0
     30659 TIP3     2114     TIP3     H1       HT       0.417000       1.00800           0
     30660 TIP3     2114     TIP3     H2       HT       0.417000       1.00800           0
     30661 TIP3     2115     TIP3     OH2      OT      -0.834000       15.9994           0
     30662 TIP3     2115     TIP3     H1       HT       0.417000       1.00800           0
     30663 TIP3     2115     TIP3     H2       HT       0.417000       1.00800           0
     30664 TIP3     2116     TIP3     OH2      OT      -0.834000       15.9994           0
     30665 TIP3     2116     TIP3     H1       HT       0.417000       1.00800           0
     30666 TIP3     2116     TIP3     H2       HT       0.417000       1.00800           0
     30667 TIP3     2117     TIP3     OH2      OT      -0.834000       15.9994           0
     30668 TIP3     2117     TIP3     H1       HT       0.417000       1.00800           0
     30669 TIP3     2117     TIP3     H2       HT       0.417000       1.00800           0
     30670 TIP3     2118     TIP3     OH2      OT      -0.834000       15.9994           0
     30671 TIP3     2118     TIP3     H1       HT       0.417000       1.00800           0
     30672 TIP3     2118     TIP3     H2       HT       0.417000       1.00800           0
     30673 TIP3     2119     TIP3     OH2      OT      -0.834000       15.9994           0
     30674 TIP3     2119     TIP3     H1       HT       0.417000       1.00800           0
     30675 TIP3     2119     TIP3     H2       HT       0.417000       1.00800           0
     30676 TIP3     2120     TIP3     OH2      OT      -0.834000       15.9994           0
     30677 TIP3     2120     TIP3     H1       HT       0.417000       1.00800           0
     30678 TIP3     2120     TIP3     H2       HT       0.417000       1.00800           0
     30679 TIP3     2121     TIP3     OH2      OT      -0.834000       15.9994           0
     30680 TIP3     2121     TIP3     H1       HT       0.417000       1.00800           0
     30681 TIP3     2121     TIP3     H2       HT       0.417000       1.00800           0
     30682 TIP3     2122     TIP3     OH2      OT      -0.834000       15.9994           0
     30683 TIP3     2122     TIP3     H1       HT       0.417000       1.00800           0
     30684 TIP3     2122     TIP3     H2       HT       0.417000       1.00800           0
     30685 TIP3     2123     TIP3     OH2      OT      -0.834000       15.9994           0
     30686 TIP3     2123     TIP3     H1       HT       0.417000       1.00800           0
     30687 TIP3     2123     TIP3     H2       HT       0.417000       1.00800           0
     30688 TIP3     2124     TIP3     OH2      OT      -0.834000       15.9994           0
     30689 TIP3     2124     TIP3     H1       HT       0.417000       1.00800           0
     30690 TIP3     2124     TIP3     H2       HT       0.417000       1.00800           0
     30691 TIP3     2125     TIP3     OH2      OT      -0.834000       15.9994           0
     30692 TIP3     2125     TIP3     H1       HT       0.417000       1.00800           0
     30693 TIP3     2125     TIP3     H2       HT       0.417000       1.00800           0
     30694 TIP3     2126     TIP3     OH2      OT      -0.834000       15.9994           0
     30695 TIP3     2126     TIP3     H1       HT       0.417000       1.00800           0
     30696 TIP3     2126     TIP3     H2       HT       0.417000       1.00800           0
     30697 TIP3     2127     TIP3     OH2      OT      -0.834000       15.9994           0
     30698 TIP3     2127     TIP3     H1       HT       0.417000       1.00800           0
     30699 TIP3     2127     TIP3     H2       HT       0.417000       1.00800           0
     30700 TIP3     2128     TIP3     OH2      OT      -0.834000       15.9994           0
     30701 TIP3     2128     TIP3     H1       HT       0.417000       1.00800           0
     30702 TIP3     2128     TIP3     H2       HT       0.417000       1.00800           0
     30703 TIP3     2129     TIP3     OH2      OT      -0.834000       15.9994           0
     30704 TIP3     2129     TIP3     H1       HT       0.417000       1.00800           0
     30705 TIP3     2129     TIP3     H2       HT       0.417000       1.00800           0
     30706 TIP3     2130     TIP3     OH2      OT      -0.834000       15.9994           0
     30707 TIP3     2130     TIP3     H1       HT       0.417000       1.00800           0
     30708 TIP3     2130     TIP3     H2       HT       0.417000       1.00800           0
     30709 TIP3     2131     TIP3     OH2      OT      -0.834000       15.9994           0
     30710 TIP3     2131     TIP3     H1       HT       0.417000       1.00800           0
     30711 TIP3     2131     TIP3     H2       HT       0.417000       1.00800           0
     30712 TIP3     2132     TIP3     OH2      OT      -0.834000       15.9994           0
     30713 TIP3     2132     TIP3     H1       HT       0.417000       1.00800           0
     30714 TIP3     2132     TIP3     H2       HT       0.417000       1.00800           0
     30715 TIP3     2133     TIP3     OH2      OT      -0.834000       15.9994           0
     30716 TIP3     2133     TIP3     H1       HT       0.417000       1.00800           0
     30717 TIP3     2133     TIP3     H2       HT       0.417000       1.00800           0
     30718 TIP3     2134     TIP3     OH2      OT      -0.834000       15.9994           0
     30719 TIP3     2134     TIP3     H1       HT       0.417000       1.00800           0
     30720 TIP3     2134     TIP3     H2       HT       0.417000       1.00800           0
     30721 TIP3     2135     TIP3     OH2      OT      -0.834000       15.9994           0
     30722 TIP3     2135     TIP3     H1       HT       0.417000       1.00800           0
     30723 TIP3     2135     TIP3     H2       HT       0.417000       1.00800           0
     30724 TIP3     2136     TIP3     OH2      OT      -0.834000       15.9994           0
     30725 TIP3     2136     TIP3     H1       HT       0.417000       1.00800           0
     30726 TIP3     2136     TIP3     H2       HT       0.417000       1.00800           0
     30727 TIP3     2137     TIP3     OH2      OT      -0.834000       15.9994           0
     30728 TIP3     2137     TIP3     H1       HT       0.417000       1.00800           0
     30729 TIP3     2137     TIP3     H2       HT       0.417000       1.00800           0
     30730 TIP3     2138     TIP3     OH2      OT      -0.834000       15.9994           0
     30731 TIP3     2138     TIP3     H1       HT       0.417000       1.00800           0
     30732 TIP3     2138     TIP3     H2       HT       0.417000       1.00800           0
     30733 TIP3     2139     TIP3     OH2      OT      -0.834000       15.9994           0
     30734 TIP3     2139     TIP3     H1       HT       0.417000       1.00800           0
     30735 TIP3     2139     TIP3     H2       HT       0.417000       1.00800           0
     30736 TIP3     2140     TIP3     OH2      OT      -0.834000       15.9994           0
     30737 TIP3     2140     TIP3     H1       HT       0.417000       1.00800           0
     30738 TIP3     2140     TIP3     H2       HT       0.417000       1.00800           0
     30739 TIP3     2141     TIP3     OH2      OT      -0.834000       15.9994           0
     30740 TIP3     2141     TIP3     H1       HT       0.417000       1.00800           0
     30741 TIP3     2141     TIP3     H2       HT       0.417000       1.00800           0
     30742 TIP3     2142     TIP3     OH2      OT      -0.834000       15.9994           0
     30743 TIP3     2142     TIP3     H1       HT       0.417000       1.00800           0
     30744 TIP3     2142     TIP3     H2       HT       0.417000       1.00800           0
     30745 TIP3     2143     TIP3     OH2      OT      -0.834000       15.9994           0
     30746 TIP3     2143     TIP3     H1       HT       0.417000       1.00800           0
     30747 TIP3     2143     TIP3     H2       HT       0.417000       1.00800           0
     30748 TIP3     2144     TIP3     OH2      OT      -0.834000       15.9994           0
     30749 TIP3     2144     TIP3     H1       HT       0.417000       1.00800           0
     30750 TIP3     2144     TIP3     H2       HT       0.417000       1.00800           0
     30751 TIP3     2145     TIP3     OH2      OT      -0.834000       15.9994           0
     30752 TIP3     2145     TIP3     H1       HT       0.417000       1.00800           0
     30753 TIP3     2145     TIP3     H2       HT       0.417000       1.00800           0
     30754 TIP3     2146     TIP3     OH2      OT      -0.834000       15.9994           0
     30755 TIP3     2146     TIP3     H1       HT       0.417000       1.00800           0
     30756 TIP3     2146     TIP3     H2       HT       0.417000       1.00800           0
     30757 TIP3     2147     TIP3     OH2      OT      -0.834000       15.9994           0
     30758 TIP3     2147     TIP3     H1       HT       0.417000       1.00800           0
     30759 TIP3     2147     TIP3     H2       HT       0.417000       1.00800           0
     30760 TIP3     2148     TIP3     OH2      OT      -0.834000       15.9994           0
     30761 TIP3     2148     TIP3     H1       HT       0.417000       1.00800           0
     30762 TIP3     2148     TIP3     H2       HT       0.417000       1.00800           0
     30763 TIP3     2149     TIP3     OH2      OT      -0.834000       15.9994           0
     30764 TIP3     2149     TIP3     H1       HT       0.417000       1.00800           0
     30765 TIP3     2149     TIP3     H2       HT       0.417000       1.00800           0
     30766 TIP3     2150     TIP3     OH2      OT      -0.834000       15.9994           0
     30767 TIP3     2150     TIP3     H1       HT       0.417000       1.00800           0
     30768 TIP3     2150     TIP3     H2       HT       0.417000       1.00800           0
     30769 TIP3     2151     TIP3     OH2      OT      -0.834000       15.9994           0
     30770 TIP3     2151     TIP3     H1       HT       0.417000       1.00800           0
     30771 TIP3     2151     TIP3     H2       HT       0.417000       1.00800           0
     30772 TIP3     2152     TIP3     OH2      OT      -0.834000       15.9994           0
     30773 TIP3     2152     TIP3     H1       HT       0.417000       1.00800           0
     30774 TIP3     2152     TIP3     H2       HT       0.417000       1.00800           0
     30775 TIP3     2153     TIP3     OH2      OT      -0.834000       15.9994           0
     30776 TIP3     2153     TIP3     H1       HT       0.417000       1.00800           0
     30777 TIP3     2153     TIP3     H2       HT       0.417000       1.00800           0
     30778 TIP3     2154     TIP3     OH2      OT      -0.834000       15.9994           0
     30779 TIP3     2154     TIP3     H1       HT       0.417000       1.00800           0
     30780 TIP3     2154     TIP3     H2       HT       0.417000       1.00800           0
     30781 TIP3     2155     TIP3     OH2      OT      -0.834000       15.9994           0
     30782 TIP3     2155     TIP3     H1       HT       0.417000       1.00800           0
     30783 TIP3     2155     TIP3     H2       HT       0.417000       1.00800           0
     30784 TIP3     2156     TIP3     OH2      OT      -0.834000       15.9994           0
     30785 TIP3     2156     TIP3     H1       HT       0.417000       1.00800           0
     30786 TIP3     2156     TIP3     H2       HT       0.417000       1.00800           0
     30787 TIP3     2157     TIP3     OH2      OT      -0.834000       15.9994           0
     30788 TIP3     2157     TIP3     H1       HT       0.417000       1.00800           0
     30789 TIP3     2157     TIP3     H2       HT       0.417000       1.00800           0
     30790 TIP3     2158     TIP3     OH2      OT      -0.834000       15.9994           0
     30791 TIP3     2158     TIP3     H1       HT       0.417000       1.00800           0
     30792 TIP3     2158     TIP3     H2       HT       0.417000       1.00800           0
     30793 TIP3     2159     TIP3     OH2      OT      -0.834000       15.9994           0
     30794 TIP3     2159     TIP3     H1       HT       0.417000       1.00800           0
     30795 TIP3     2159     TIP3     H2       HT       0.417000       1.00800           0
     30796 TIP3     2160     TIP3     OH2      OT      -0.834000       15.9994           0
     30797 TIP3     2160     TIP3     H1       HT       0.417000       1.00800           0
     30798 TIP3     2160     TIP3     H2       HT       0.417000       1.00800           0
     30799 TIP3     2161     TIP3     OH2      OT      -0.834000       15.9994           0
     30800 TIP3     2161     TIP3     H1       HT       0.417000       1.00800           0
     30801 TIP3     2161     TIP3     H2       HT       0.417000       1.00800           0
     30802 TIP3     2162     TIP3     OH2      OT      -0.834000       15.9994           0
     30803 TIP3     2162     TIP3     H1       HT       0.417000       1.00800           0
     30804 TIP3     2162     TIP3     H2       HT       0.417000       1.00800           0
     30805 TIP3     2163     TIP3     OH2      OT      -0.834000       15.9994           0
     30806 TIP3     2163     TIP3     H1       HT       0.417000       1.00800           0
     30807 TIP3     2163     TIP3     H2       HT       0.417000       1.00800           0
     30808 TIP3     2164     TIP3     OH2      OT      -0.834000       15.9994           0
     30809 TIP3     2164     TIP3     H1       HT       0.417000       1.00800           0
     30810 TIP3     2164     TIP3     H2       HT       0.417000       1.00800           0
     30811 TIP3     2165     TIP3     OH2      OT      -0.834000       15.9994           0
     30812 TIP3     2165     TIP3     H1       HT       0.417000       1.00800           0
     30813 TIP3     2165     TIP3     H2       HT       0.417000       1.00800           0
     30814 TIP3     2166     TIP3     OH2      OT      -0.834000       15.9994           0
     30815 TIP3     2166     TIP3     H1       HT       0.417000       1.00800           0
     30816 TIP3     2166     TIP3     H2       HT       0.417000       1.00800           0
     30817 TIP3     2167     TIP3     OH2      OT      -0.834000       15.9994           0
     30818 TIP3     2167     TIP3     H1       HT       0.417000       1.00800           0
     30819 TIP3     2167     TIP3     H2       HT       0.417000       1.00800           0
     30820 TIP3     2168     TIP3     OH2      OT      -0.834000       15.9994           0
     30821 TIP3     2168     TIP3     H1       HT       0.417000       1.00800           0
     30822 TIP3     2168     TIP3     H2       HT       0.417000       1.00800           0
     30823 TIP3     2169     TIP3     OH2      OT      -0.834000       15.9994           0
     30824 TIP3     2169     TIP3     H1       HT       0.417000       1.00800           0
     30825 TIP3     2169     TIP3     H2       HT       0.417000       1.00800           0
     30826 TIP3     2170     TIP3     OH2      OT      -0.834000       15.9994           0
     30827 TIP3     2170     TIP3     H1       HT       0.417000       1.00800           0
     30828 TIP3     2170     TIP3     H2       HT       0.417000       1.00800           0
     30829 TIP3     2171     TIP3     OH2      OT      -0.834000       15.9994           0
     30830 TIP3     2171     TIP3     H1       HT       0.417000       1.00800           0
     30831 TIP3     2171     TIP3     H2       HT       0.417000       1.00800           0
     30832 TIP3     2172     TIP3     OH2      OT      -0.834000       15.9994           0
     30833 TIP3     2172     TIP3     H1       HT       0.417000       1.00800           0
     30834 TIP3     2172     TIP3     H2       HT       0.417000       1.00800           0
     30835 TIP3     2173     TIP3     OH2      OT      -0.834000       15.9994           0
     30836 TIP3     2173     TIP3     H1       HT       0.417000       1.00800           0
     30837 TIP3     2173     TIP3     H2       HT       0.417000       1.00800           0
     30838 TIP3     2174     TIP3     OH2      OT      -0.834000       15.9994           0
     30839 TIP3     2174     TIP3     H1       HT       0.417000       1.00800           0
     30840 TIP3     2174     TIP3     H2       HT       0.417000       1.00800           0
     30841 TIP3     2175     TIP3     OH2      OT      -0.834000       15.9994           0
     30842 TIP3     2175     TIP3     H1       HT       0.417000       1.00800           0
     30843 TIP3     2175     TIP3     H2       HT       0.417000       1.00800           0
     30844 TIP3     2176     TIP3     OH2      OT      -0.834000       15.9994           0
     30845 TIP3     2176     TIP3     H1       HT       0.417000       1.00800           0
     30846 TIP3     2176     TIP3     H2       HT       0.417000       1.00800           0
     30847 TIP3     2177     TIP3     OH2      OT      -0.834000       15.9994           0
     30848 TIP3     2177     TIP3     H1       HT       0.417000       1.00800           0
     30849 TIP3     2177     TIP3     H2       HT       0.417000       1.00800           0
     30850 TIP3     2178     TIP3     OH2      OT      -0.834000       15.9994           0
     30851 TIP3     2178     TIP3     H1       HT       0.417000       1.00800           0
     30852 TIP3     2178     TIP3     H2       HT       0.417000       1.00800           0
     30853 TIP3     2179     TIP3     OH2      OT      -0.834000       15.9994           0
     30854 TIP3     2179     TIP3     H1       HT       0.417000       1.00800           0
     30855 TIP3     2179     TIP3     H2       HT       0.417000       1.00800           0
     30856 TIP3     2180     TIP3     OH2      OT      -0.834000       15.9994           0
     30857 TIP3     2180     TIP3     H1       HT       0.417000       1.00800           0
     30858 TIP3     2180     TIP3     H2       HT       0.417000       1.00800           0
     30859 TIP3     2181     TIP3     OH2      OT      -0.834000       15.9994           0
     30860 TIP3     2181     TIP3     H1       HT       0.417000       1.00800           0
     30861 TIP3     2181     TIP3     H2       HT       0.417000       1.00800           0
     30862 TIP3     2182     TIP3     OH2      OT      -0.834000       15.9994           0
     30863 TIP3     2182     TIP3     H1       HT       0.417000       1.00800           0
     30864 TIP3     2182     TIP3     H2       HT       0.417000       1.00800           0
     30865 TIP3     2183     TIP3     OH2      OT      -0.834000       15.9994           0
     30866 TIP3     2183     TIP3     H1       HT       0.417000       1.00800           0
     30867 TIP3     2183     TIP3     H2       HT       0.417000       1.00800           0
     30868 TIP3     2184     TIP3     OH2      OT      -0.834000       15.9994           0
     30869 TIP3     2184     TIP3     H1       HT       0.417000       1.00800           0
     30870 TIP3     2184     TIP3     H2       HT       0.417000       1.00800           0
     30871 TIP3     2185     TIP3     OH2      OT      -0.834000       15.9994           0
     30872 TIP3     2185     TIP3     H1       HT       0.417000       1.00800           0
     30873 TIP3     2185     TIP3     H2       HT       0.417000       1.00800           0
     30874 TIP3     2186     TIP3     OH2      OT      -0.834000       15.9994           0
     30875 TIP3     2186     TIP3     H1       HT       0.417000       1.00800           0
     30876 TIP3     2186     TIP3     H2       HT       0.417000       1.00800           0
     30877 TIP3     2187     TIP3     OH2      OT      -0.834000       15.9994           0
     30878 TIP3     2187     TIP3     H1       HT       0.417000       1.00800           0
     30879 TIP3     2187     TIP3     H2       HT       0.417000       1.00800           0
     30880 TIP3     2188     TIP3     OH2      OT      -0.834000       15.9994           0
     30881 TIP3     2188     TIP3     H1       HT       0.417000       1.00800           0
     30882 TIP3     2188     TIP3     H2       HT       0.417000       1.00800           0
     30883 TIP3     2189     TIP3     OH2      OT      -0.834000       15.9994           0
     30884 TIP3     2189     TIP3     H1       HT       0.417000       1.00800           0
     30885 TIP3     2189     TIP3     H2       HT       0.417000       1.00800           0
     30886 TIP3     2190     TIP3     OH2      OT      -0.834000       15.9994           0
     30887 TIP3     2190     TIP3     H1       HT       0.417000       1.00800           0
     30888 TIP3     2190     TIP3     H2       HT       0.417000       1.00800           0
     30889 TIP3     2191     TIP3     OH2      OT      -0.834000       15.9994           0
     30890 TIP3     2191     TIP3     H1       HT       0.417000       1.00800           0
     30891 TIP3     2191     TIP3     H2       HT       0.417000       1.00800           0
     30892 TIP3     2192     TIP3     OH2      OT      -0.834000       15.9994           0
     30893 TIP3     2192     TIP3     H1       HT       0.417000       1.00800           0
     30894 TIP3     2192     TIP3     H2       HT       0.417000       1.00800           0
     30895 TIP3     2193     TIP3     OH2      OT      -0.834000       15.9994           0
     30896 TIP3     2193     TIP3     H1       HT       0.417000       1.00800           0
     30897 TIP3     2193     TIP3     H2       HT       0.417000       1.00800           0
     30898 TIP3     2194     TIP3     OH2      OT      -0.834000       15.9994           0
     30899 TIP3     2194     TIP3     H1       HT       0.417000       1.00800           0
     30900 TIP3     2194     TIP3     H2       HT       0.417000       1.00800           0
     30901 TIP3     2195     TIP3     OH2      OT      -0.834000       15.9994           0
     30902 TIP3     2195     TIP3     H1       HT       0.417000       1.00800           0
     30903 TIP3     2195     TIP3     H2       HT       0.417000       1.00800           0
     30904 TIP3     2196     TIP3     OH2      OT      -0.834000       15.9994           0
     30905 TIP3     2196     TIP3     H1       HT       0.417000       1.00800           0
     30906 TIP3     2196     TIP3     H2       HT       0.417000       1.00800           0
     30907 TIP3     2197     TIP3     OH2      OT      -0.834000       15.9994           0
     30908 TIP3     2197     TIP3     H1       HT       0.417000       1.00800           0
     30909 TIP3     2197     TIP3     H2       HT       0.417000       1.00800           0
     30910 TIP3     2198     TIP3     OH2      OT      -0.834000       15.9994           0
     30911 TIP3     2198     TIP3     H1       HT       0.417000       1.00800           0
     30912 TIP3     2198     TIP3     H2       HT       0.417000       1.00800           0
     30913 TIP3     2199     TIP3     OH2      OT      -0.834000       15.9994           0
     30914 TIP3     2199     TIP3     H1       HT       0.417000       1.00800           0
     30915 TIP3     2199     TIP3     H2       HT       0.417000       1.00800           0
     30916 TIP3     2200     TIP3     OH2      OT      -0.834000       15.9994           0
     30917 TIP3     2200     TIP3     H1       HT       0.417000       1.00800           0
     30918 TIP3     2200     TIP3     H2       HT       0.417000       1.00800           0
     30919 TIP3     2201     TIP3     OH2      OT      -0.834000       15.9994           0
     30920 TIP3     2201     TIP3     H1       HT       0.417000       1.00800           0
     30921 TIP3     2201     TIP3     H2       HT       0.417000       1.00800           0
     30922 TIP3     2202     TIP3     OH2      OT      -0.834000       15.9994           0
     30923 TIP3     2202     TIP3     H1       HT       0.417000       1.00800           0
     30924 TIP3     2202     TIP3     H2       HT       0.417000       1.00800           0
     30925 TIP3     2203     TIP3     OH2      OT      -0.834000       15.9994           0
     30926 TIP3     2203     TIP3     H1       HT       0.417000       1.00800           0
     30927 TIP3     2203     TIP3     H2       HT       0.417000       1.00800           0
     30928 TIP3     2204     TIP3     OH2      OT      -0.834000       15.9994           0
     30929 TIP3     2204     TIP3     H1       HT       0.417000       1.00800           0
     30930 TIP3     2204     TIP3     H2       HT       0.417000       1.00800           0
     30931 TIP3     2205     TIP3     OH2      OT      -0.834000       15.9994           0
     30932 TIP3     2205     TIP3     H1       HT       0.417000       1.00800           0
     30933 TIP3     2205     TIP3     H2       HT       0.417000       1.00800           0
     30934 TIP3     2206     TIP3     OH2      OT      -0.834000       15.9994           0
     30935 TIP3     2206     TIP3     H1       HT       0.417000       1.00800           0
     30936 TIP3     2206     TIP3     H2       HT       0.417000       1.00800           0
     30937 TIP3     2207     TIP3     OH2      OT      -0.834000       15.9994           0
     30938 TIP3     2207     TIP3     H1       HT       0.417000       1.00800           0
     30939 TIP3     2207     TIP3     H2       HT       0.417000       1.00800           0
     30940 TIP3     2208     TIP3     OH2      OT      -0.834000       15.9994           0
     30941 TIP3     2208     TIP3     H1       HT       0.417000       1.00800           0
     30942 TIP3     2208     TIP3     H2       HT       0.417000       1.00800           0
     30943 TIP3     2209     TIP3     OH2      OT      -0.834000       15.9994           0
     30944 TIP3     2209     TIP3     H1       HT       0.417000       1.00800           0
     30945 TIP3     2209     TIP3     H2       HT       0.417000       1.00800           0
     30946 TIP3     2210     TIP3     OH2      OT      -0.834000       15.9994           0
     30947 TIP3     2210     TIP3     H1       HT       0.417000       1.00800           0
     30948 TIP3     2210     TIP3     H2       HT       0.417000       1.00800           0
     30949 TIP3     2211     TIP3     OH2      OT      -0.834000       15.9994           0
     30950 TIP3     2211     TIP3     H1       HT       0.417000       1.00800           0
     30951 TIP3     2211     TIP3     H2       HT       0.417000       1.00800           0
     30952 TIP3     2212     TIP3     OH2      OT      -0.834000       15.9994           0
     30953 TIP3     2212     TIP3     H1       HT       0.417000       1.00800           0
     30954 TIP3     2212     TIP3     H2       HT       0.417000       1.00800           0
     30955 TIP3     2213     TIP3     OH2      OT      -0.834000       15.9994           0
     30956 TIP3     2213     TIP3     H1       HT       0.417000       1.00800           0
     30957 TIP3     2213     TIP3     H2       HT       0.417000       1.00800           0
     30958 TIP3     2214     TIP3     OH2      OT      -0.834000       15.9994           0
     30959 TIP3     2214     TIP3     H1       HT       0.417000       1.00800           0
     30960 TIP3     2214     TIP3     H2       HT       0.417000       1.00800           0
     30961 TIP3     2215     TIP3     OH2      OT      -0.834000       15.9994           0
     30962 TIP3     2215     TIP3     H1       HT       0.417000       1.00800           0
     30963 TIP3     2215     TIP3     H2       HT       0.417000       1.00800           0
     30964 TIP3     2216     TIP3     OH2      OT      -0.834000       15.9994           0
     30965 TIP3     2216     TIP3     H1       HT       0.417000       1.00800           0
     30966 TIP3     2216     TIP3     H2       HT       0.417000       1.00800           0
     30967 TIP3     2217     TIP3     OH2      OT      -0.834000       15.9994           0
     30968 TIP3     2217     TIP3     H1       HT       0.417000       1.00800           0
     30969 TIP3     2217     TIP3     H2       HT       0.417000       1.00800           0
     30970 TIP3     2218     TIP3     OH2      OT      -0.834000       15.9994           0
     30971 TIP3     2218     TIP3     H1       HT       0.417000       1.00800           0
     30972 TIP3     2218     TIP3     H2       HT       0.417000       1.00800           0
     30973 TIP3     2219     TIP3     OH2      OT      -0.834000       15.9994           0
     30974 TIP3     2219     TIP3     H1       HT       0.417000       1.00800           0
     30975 TIP3     2219     TIP3     H2       HT       0.417000       1.00800           0
     30976 TIP3     2220     TIP3     OH2      OT      -0.834000       15.9994           0
     30977 TIP3     2220     TIP3     H1       HT       0.417000       1.00800           0
     30978 TIP3     2220     TIP3     H2       HT       0.417000       1.00800           0
     30979 TIP3     2221     TIP3     OH2      OT      -0.834000       15.9994           0
     30980 TIP3     2221     TIP3     H1       HT       0.417000       1.00800           0
     30981 TIP3     2221     TIP3     H2       HT       0.417000       1.00800           0
     30982 TIP3     2222     TIP3     OH2      OT      -0.834000       15.9994           0
     30983 TIP3     2222     TIP3     H1       HT       0.417000       1.00800           0
     30984 TIP3     2222     TIP3     H2       HT       0.417000       1.00800           0
     30985 TIP3     2223     TIP3     OH2      OT      -0.834000       15.9994           0
     30986 TIP3     2223     TIP3     H1       HT       0.417000       1.00800           0
     30987 TIP3     2223     TIP3     H2       HT       0.417000       1.00800           0
     30988 TIP3     2224     TIP3     OH2      OT      -0.834000       15.9994           0
     30989 TIP3     2224     TIP3     H1       HT       0.417000       1.00800           0
     30990 TIP3     2224     TIP3     H2       HT       0.417000       1.00800           0
     30991 TIP3     2225     TIP3     OH2      OT      -0.834000       15.9994           0
     30992 TIP3     2225     TIP3     H1       HT       0.417000       1.00800           0
     30993 TIP3     2225     TIP3     H2       HT       0.417000       1.00800           0
     30994 TIP3     2226     TIP3     OH2      OT      -0.834000       15.9994           0
     30995 TIP3     2226     TIP3     H1       HT       0.417000       1.00800           0
     30996 TIP3     2226     TIP3     H2       HT       0.417000       1.00800           0
     30997 TIP3     2227     TIP3     OH2      OT      -0.834000       15.9994           0
     30998 TIP3     2227     TIP3     H1       HT       0.417000       1.00800           0
     30999 TIP3     2227     TIP3     H2       HT       0.417000       1.00800           0
     31000 TIP3     2228     TIP3     OH2      OT      -0.834000       15.9994           0
     31001 TIP3     2228     TIP3     H1       HT       0.417000       1.00800           0
     31002 TIP3     2228     TIP3     H2       HT       0.417000       1.00800           0
     31003 TIP3     2229     TIP3     OH2      OT      -0.834000       15.9994           0
     31004 TIP3     2229     TIP3     H1       HT       0.417000       1.00800           0
     31005 TIP3     2229     TIP3     H2       HT       0.417000       1.00800           0
     31006 TIP3     2230     TIP3     OH2      OT      -0.834000       15.9994           0
     31007 TIP3     2230     TIP3     H1       HT       0.417000       1.00800           0
     31008 TIP3     2230     TIP3     H2       HT       0.417000       1.00800           0
     31009 TIP3     2231     TIP3     OH2      OT      -0.834000       15.9994           0
     31010 TIP3     2231     TIP3     H1       HT       0.417000       1.00800           0
     31011 TIP3     2231     TIP3     H2       HT       0.417000       1.00800           0
     31012 TIP3     2232     TIP3     OH2      OT      -0.834000       15.9994           0
     31013 TIP3     2232     TIP3     H1       HT       0.417000       1.00800           0
     31014 TIP3     2232     TIP3     H2       HT       0.417000       1.00800           0
     31015 TIP3     2233     TIP3     OH2      OT      -0.834000       15.9994           0
     31016 TIP3     2233     TIP3     H1       HT       0.417000       1.00800           0
     31017 TIP3     2233     TIP3     H2       HT       0.417000       1.00800           0
     31018 TIP3     2234     TIP3     OH2      OT      -0.834000       15.9994           0
     31019 TIP3     2234     TIP3     H1       HT       0.417000       1.00800           0
     31020 TIP3     2234     TIP3     H2       HT       0.417000       1.00800           0
     31021 TIP3     2235     TIP3     OH2      OT      -0.834000       15.9994           0
     31022 TIP3     2235     TIP3     H1       HT       0.417000       1.00800           0
     31023 TIP3     2235     TIP3     H2       HT       0.417000       1.00800           0
     31024 TIP3     2236     TIP3     OH2      OT      -0.834000       15.9994           0
     31025 TIP3     2236     TIP3     H1       HT       0.417000       1.00800           0
     31026 TIP3     2236     TIP3     H2       HT       0.417000       1.00800           0
     31027 TIP3     2237     TIP3     OH2      OT      -0.834000       15.9994           0
     31028 TIP3     2237     TIP3     H1       HT       0.417000       1.00800           0
     31029 TIP3     2237     TIP3     H2       HT       0.417000       1.00800           0
     31030 TIP3     2238     TIP3     OH2      OT      -0.834000       15.9994           0
     31031 TIP3     2238     TIP3     H1       HT       0.417000       1.00800           0
     31032 TIP3     2238     TIP3     H2       HT       0.417000       1.00800           0
     31033 TIP3     2239     TIP3     OH2      OT      -0.834000       15.9994           0
     31034 TIP3     2239     TIP3     H1       HT       0.417000       1.00800           0
     31035 TIP3     2239     TIP3     H2       HT       0.417000       1.00800           0
     31036 TIP3     2240     TIP3     OH2      OT      -0.834000       15.9994           0
     31037 TIP3     2240     TIP3     H1       HT       0.417000       1.00800           0
     31038 TIP3     2240     TIP3     H2       HT       0.417000       1.00800           0
     31039 TIP3     2241     TIP3     OH2      OT      -0.834000       15.9994           0
     31040 TIP3     2241     TIP3     H1       HT       0.417000       1.00800           0
     31041 TIP3     2241     TIP3     H2       HT       0.417000       1.00800           0
     31042 TIP3     2242     TIP3     OH2      OT      -0.834000       15.9994           0
     31043 TIP3     2242     TIP3     H1       HT       0.417000       1.00800           0
     31044 TIP3     2242     TIP3     H2       HT       0.417000       1.00800           0
     31045 TIP3     2243     TIP3     OH2      OT      -0.834000       15.9994           0
     31046 TIP3     2243     TIP3     H1       HT       0.417000       1.00800           0
     31047 TIP3     2243     TIP3     H2       HT       0.417000       1.00800           0
     31048 TIP3     2244     TIP3     OH2      OT      -0.834000       15.9994           0
     31049 TIP3     2244     TIP3     H1       HT       0.417000       1.00800           0
     31050 TIP3     2244     TIP3     H2       HT       0.417000       1.00800           0
     31051 TIP3     2245     TIP3     OH2      OT      -0.834000       15.9994           0
     31052 TIP3     2245     TIP3     H1       HT       0.417000       1.00800           0
     31053 TIP3     2245     TIP3     H2       HT       0.417000       1.00800           0
     31054 TIP3     2246     TIP3     OH2      OT      -0.834000       15.9994           0
     31055 TIP3     2246     TIP3     H1       HT       0.417000       1.00800           0
     31056 TIP3     2246     TIP3     H2       HT       0.417000       1.00800           0
     31057 TIP3     2247     TIP3     OH2      OT      -0.834000       15.9994           0
     31058 TIP3     2247     TIP3     H1       HT       0.417000       1.00800           0
     31059 TIP3     2247     TIP3     H2       HT       0.417000       1.00800           0
     31060 TIP3     2248     TIP3     OH2      OT      -0.834000       15.9994           0
     31061 TIP3     2248     TIP3     H1       HT       0.417000       1.00800           0
     31062 TIP3     2248     TIP3     H2       HT       0.417000       1.00800           0
     31063 TIP3     2249     TIP3     OH2      OT      -0.834000       15.9994           0
     31064 TIP3     2249     TIP3     H1       HT       0.417000       1.00800           0
     31065 TIP3     2249     TIP3     H2       HT       0.417000       1.00800           0
     31066 TIP3     2250     TIP3     OH2      OT      -0.834000       15.9994           0
     31067 TIP3     2250     TIP3     H1       HT       0.417000       1.00800           0
     31068 TIP3     2250     TIP3     H2       HT       0.417000       1.00800           0
     31069 TIP3     2251     TIP3     OH2      OT      -0.834000       15.9994           0
     31070 TIP3     2251     TIP3     H1       HT       0.417000       1.00800           0
     31071 TIP3     2251     TIP3     H2       HT       0.417000       1.00800           0
     31072 TIP3     2252     TIP3     OH2      OT      -0.834000       15.9994           0
     31073 TIP3     2252     TIP3     H1       HT       0.417000       1.00800           0
     31074 TIP3     2252     TIP3     H2       HT       0.417000       1.00800           0
     31075 TIP3     2253     TIP3     OH2      OT      -0.834000       15.9994           0
     31076 TIP3     2253     TIP3     H1       HT       0.417000       1.00800           0
     31077 TIP3     2253     TIP3     H2       HT       0.417000       1.00800           0
     31078 TIP3     2254     TIP3     OH2      OT      -0.834000       15.9994           0
     31079 TIP3     2254     TIP3     H1       HT       0.417000       1.00800           0
     31080 TIP3     2254     TIP3     H2       HT       0.417000       1.00800           0
     31081 TIP3     2255     TIP3     OH2      OT      -0.834000       15.9994           0
     31082 TIP3     2255     TIP3     H1       HT       0.417000       1.00800           0
     31083 TIP3     2255     TIP3     H2       HT       0.417000       1.00800           0
     31084 TIP3     2256     TIP3     OH2      OT      -0.834000       15.9994           0
     31085 TIP3     2256     TIP3     H1       HT       0.417000       1.00800           0
     31086 TIP3     2256     TIP3     H2       HT       0.417000       1.00800           0
     31087 TIP3     2257     TIP3     OH2      OT      -0.834000       15.9994           0
     31088 TIP3     2257     TIP3     H1       HT       0.417000       1.00800           0
     31089 TIP3     2257     TIP3     H2       HT       0.417000       1.00800           0
     31090 TIP3     2258     TIP3     OH2      OT      -0.834000       15.9994           0
     31091 TIP3     2258     TIP3     H1       HT       0.417000       1.00800           0
     31092 TIP3     2258     TIP3     H2       HT       0.417000       1.00800           0
     31093 TIP3     2259     TIP3     OH2      OT      -0.834000       15.9994           0
     31094 TIP3     2259     TIP3     H1       HT       0.417000       1.00800           0
     31095 TIP3     2259     TIP3     H2       HT       0.417000       1.00800           0
     31096 TIP3     2260     TIP3     OH2      OT      -0.834000       15.9994           0
     31097 TIP3     2260     TIP3     H1       HT       0.417000       1.00800           0
     31098 TIP3     2260     TIP3     H2       HT       0.417000       1.00800           0
     31099 TIP3     2261     TIP3     OH2      OT      -0.834000       15.9994           0
     31100 TIP3     2261     TIP3     H1       HT       0.417000       1.00800           0
     31101 TIP3     2261     TIP3     H2       HT       0.417000       1.00800           0
     31102 TIP3     2262     TIP3     OH2      OT      -0.834000       15.9994           0
     31103 TIP3     2262     TIP3     H1       HT       0.417000       1.00800           0
     31104 TIP3     2262     TIP3     H2       HT       0.417000       1.00800           0
     31105 TIP3     2263     TIP3     OH2      OT      -0.834000       15.9994           0
     31106 TIP3     2263     TIP3     H1       HT       0.417000       1.00800           0
     31107 TIP3     2263     TIP3     H2       HT       0.417000       1.00800           0
     31108 TIP3     2264     TIP3     OH2      OT      -0.834000       15.9994           0
     31109 TIP3     2264     TIP3     H1       HT       0.417000       1.00800           0
     31110 TIP3     2264     TIP3     H2       HT       0.417000       1.00800           0
     31111 TIP3     2265     TIP3     OH2      OT      -0.834000       15.9994           0
     31112 TIP3     2265     TIP3     H1       HT       0.417000       1.00800           0
     31113 TIP3     2265     TIP3     H2       HT       0.417000       1.00800           0
     31114 TIP3     2266     TIP3     OH2      OT      -0.834000       15.9994           0
     31115 TIP3     2266     TIP3     H1       HT       0.417000       1.00800           0
     31116 TIP3     2266     TIP3     H2       HT       0.417000       1.00800           0
     31117 TIP3     2267     TIP3     OH2      OT      -0.834000       15.9994           0
     31118 TIP3     2267     TIP3     H1       HT       0.417000       1.00800           0
     31119 TIP3     2267     TIP3     H2       HT       0.417000       1.00800           0
     31120 TIP3     2268     TIP3     OH2      OT      -0.834000       15.9994           0
     31121 TIP3     2268     TIP3     H1       HT       0.417000       1.00800           0
     31122 TIP3     2268     TIP3     H2       HT       0.417000       1.00800           0
     31123 TIP3     2269     TIP3     OH2      OT      -0.834000       15.9994           0
     31124 TIP3     2269     TIP3     H1       HT       0.417000       1.00800           0
     31125 TIP3     2269     TIP3     H2       HT       0.417000       1.00800           0
     31126 TIP3     2270     TIP3     OH2      OT      -0.834000       15.9994           0
     31127 TIP3     2270     TIP3     H1       HT       0.417000       1.00800           0
     31128 TIP3     2270     TIP3     H2       HT       0.417000       1.00800           0
     31129 TIP3     2271     TIP3     OH2      OT      -0.834000       15.9994           0
     31130 TIP3     2271     TIP3     H1       HT       0.417000       1.00800           0
     31131 TIP3     2271     TIP3     H2       HT       0.417000       1.00800           0
     31132 TIP3     2272     TIP3     OH2      OT      -0.834000       15.9994           0
     31133 TIP3     2272     TIP3     H1       HT       0.417000       1.00800           0
     31134 TIP3     2272     TIP3     H2       HT       0.417000       1.00800           0
     31135 TIP3     2273     TIP3     OH2      OT      -0.834000       15.9994           0
     31136 TIP3     2273     TIP3     H1       HT       0.417000       1.00800           0
     31137 TIP3     2273     TIP3     H2       HT       0.417000       1.00800           0
     31138 TIP3     2274     TIP3     OH2      OT      -0.834000       15.9994           0
     31139 TIP3     2274     TIP3     H1       HT       0.417000       1.00800           0
     31140 TIP3     2274     TIP3     H2       HT       0.417000       1.00800           0
     31141 TIP3     2275     TIP3     OH2      OT      -0.834000       15.9994           0
     31142 TIP3     2275     TIP3     H1       HT       0.417000       1.00800           0
     31143 TIP3     2275     TIP3     H2       HT       0.417000       1.00800           0
     31144 TIP3     2276     TIP3     OH2      OT      -0.834000       15.9994           0
     31145 TIP3     2276     TIP3     H1       HT       0.417000       1.00800           0
     31146 TIP3     2276     TIP3     H2       HT       0.417000       1.00800           0
     31147 TIP3     2277     TIP3     OH2      OT      -0.834000       15.9994           0
     31148 TIP3     2277     TIP3     H1       HT       0.417000       1.00800           0
     31149 TIP3     2277     TIP3     H2       HT       0.417000       1.00800           0
     31150 TIP3     2278     TIP3     OH2      OT      -0.834000       15.9994           0
     31151 TIP3     2278     TIP3     H1       HT       0.417000       1.00800           0
     31152 TIP3     2278     TIP3     H2       HT       0.417000       1.00800           0
     31153 TIP3     2279     TIP3     OH2      OT      -0.834000       15.9994           0
     31154 TIP3     2279     TIP3     H1       HT       0.417000       1.00800           0
     31155 TIP3     2279     TIP3     H2       HT       0.417000       1.00800           0
     31156 TIP3     2280     TIP3     OH2      OT      -0.834000       15.9994           0
     31157 TIP3     2280     TIP3     H1       HT       0.417000       1.00800           0
     31158 TIP3     2280     TIP3     H2       HT       0.417000       1.00800           0
     31159 TIP3     2281     TIP3     OH2      OT      -0.834000       15.9994           0
     31160 TIP3     2281     TIP3     H1       HT       0.417000       1.00800           0
     31161 TIP3     2281     TIP3     H2       HT       0.417000       1.00800           0
     31162 TIP3     2282     TIP3     OH2      OT      -0.834000       15.9994           0
     31163 TIP3     2282     TIP3     H1       HT       0.417000       1.00800           0
     31164 TIP3     2282     TIP3     H2       HT       0.417000       1.00800           0
     31165 TIP3     2283     TIP3     OH2      OT      -0.834000       15.9994           0
     31166 TIP3     2283     TIP3     H1       HT       0.417000       1.00800           0
     31167 TIP3     2283     TIP3     H2       HT       0.417000       1.00800           0
     31168 TIP3     2284     TIP3     OH2      OT      -0.834000       15.9994           0
     31169 TIP3     2284     TIP3     H1       HT       0.417000       1.00800           0
     31170 TIP3     2284     TIP3     H2       HT       0.417000       1.00800           0
     31171 TIP3     2285     TIP3     OH2      OT      -0.834000       15.9994           0
     31172 TIP3     2285     TIP3     H1       HT       0.417000       1.00800           0
     31173 TIP3     2285     TIP3     H2       HT       0.417000       1.00800           0
     31174 TIP3     2286     TIP3     OH2      OT      -0.834000       15.9994           0
     31175 TIP3     2286     TIP3     H1       HT       0.417000       1.00800           0
     31176 TIP3     2286     TIP3     H2       HT       0.417000       1.00800           0
     31177 TIP3     2287     TIP3     OH2      OT      -0.834000       15.9994           0
     31178 TIP3     2287     TIP3     H1       HT       0.417000       1.00800           0
     31179 TIP3     2287     TIP3     H2       HT       0.417000       1.00800           0
     31180 TIP3     2288     TIP3     OH2      OT      -0.834000       15.9994           0
     31181 TIP3     2288     TIP3     H1       HT       0.417000       1.00800           0
     31182 TIP3     2288     TIP3     H2       HT       0.417000       1.00800           0
     31183 TIP3     2289     TIP3     OH2      OT      -0.834000       15.9994           0
     31184 TIP3     2289     TIP3     H1       HT       0.417000       1.00800           0
     31185 TIP3     2289     TIP3     H2       HT       0.417000       1.00800           0
     31186 TIP3     2290     TIP3     OH2      OT      -0.834000       15.9994           0
     31187 TIP3     2290     TIP3     H1       HT       0.417000       1.00800           0
     31188 TIP3     2290     TIP3     H2       HT       0.417000       1.00800           0
     31189 TIP3     2291     TIP3     OH2      OT      -0.834000       15.9994           0
     31190 TIP3     2291     TIP3     H1       HT       0.417000       1.00800           0
     31191 TIP3     2291     TIP3     H2       HT       0.417000       1.00800           0
     31192 TIP3     2292     TIP3     OH2      OT      -0.834000       15.9994           0
     31193 TIP3     2292     TIP3     H1       HT       0.417000       1.00800           0
     31194 TIP3     2292     TIP3     H2       HT       0.417000       1.00800           0
     31195 TIP3     2293     TIP3     OH2      OT      -0.834000       15.9994           0
     31196 TIP3     2293     TIP3     H1       HT       0.417000       1.00800           0
     31197 TIP3     2293     TIP3     H2       HT       0.417000       1.00800           0
     31198 TIP3     2294     TIP3     OH2      OT      -0.834000       15.9994           0
     31199 TIP3     2294     TIP3     H1       HT       0.417000       1.00800           0
     31200 TIP3     2294     TIP3     H2       HT       0.417000       1.00800           0
     31201 TIP3     2295     TIP3     OH2      OT      -0.834000       15.9994           0
     31202 TIP3     2295     TIP3     H1       HT       0.417000       1.00800           0
     31203 TIP3     2295     TIP3     H2       HT       0.417000       1.00800           0
     31204 TIP3     2296     TIP3     OH2      OT      -0.834000       15.9994           0
     31205 TIP3     2296     TIP3     H1       HT       0.417000       1.00800           0
     31206 TIP3     2296     TIP3     H2       HT       0.417000       1.00800           0
     31207 TIP3     2297     TIP3     OH2      OT      -0.834000       15.9994           0
     31208 TIP3     2297     TIP3     H1       HT       0.417000       1.00800           0
     31209 TIP3     2297     TIP3     H2       HT       0.417000       1.00800           0
     31210 TIP3     2298     TIP3     OH2      OT      -0.834000       15.9994           0
     31211 TIP3     2298     TIP3     H1       HT       0.417000       1.00800           0
     31212 TIP3     2298     TIP3     H2       HT       0.417000       1.00800           0
     31213 TIP3     2299     TIP3     OH2      OT      -0.834000       15.9994           0
     31214 TIP3     2299     TIP3     H1       HT       0.417000       1.00800           0
     31215 TIP3     2299     TIP3     H2       HT       0.417000       1.00800           0
     31216 TIP3     2300     TIP3     OH2      OT      -0.834000       15.9994           0
     31217 TIP3     2300     TIP3     H1       HT       0.417000       1.00800           0
     31218 TIP3     2300     TIP3     H2       HT       0.417000       1.00800           0
     31219 TIP3     2301     TIP3     OH2      OT      -0.834000       15.9994           0
     31220 TIP3     2301     TIP3     H1       HT       0.417000       1.00800           0
     31221 TIP3     2301     TIP3     H2       HT       0.417000       1.00800           0
     31222 TIP3     2302     TIP3     OH2      OT      -0.834000       15.9994           0
     31223 TIP3     2302     TIP3     H1       HT       0.417000       1.00800           0
     31224 TIP3     2302     TIP3     H2       HT       0.417000       1.00800           0
     31225 TIP3     2303     TIP3     OH2      OT      -0.834000       15.9994           0
     31226 TIP3     2303     TIP3     H1       HT       0.417000       1.00800           0
     31227 TIP3     2303     TIP3     H2       HT       0.417000       1.00800           0
     31228 TIP3     2304     TIP3     OH2      OT      -0.834000       15.9994           0
     31229 TIP3     2304     TIP3     H1       HT       0.417000       1.00800           0
     31230 TIP3     2304     TIP3     H2       HT       0.417000       1.00800           0
     31231 TIP3     2305     TIP3     OH2      OT      -0.834000       15.9994           0
     31232 TIP3     2305     TIP3     H1       HT       0.417000       1.00800           0
     31233 TIP3     2305     TIP3     H2       HT       0.417000       1.00800           0
     31234 TIP3     2306     TIP3     OH2      OT      -0.834000       15.9994           0
     31235 TIP3     2306     TIP3     H1       HT       0.417000       1.00800           0
     31236 TIP3     2306     TIP3     H2       HT       0.417000       1.00800           0
     31237 TIP3     2307     TIP3     OH2      OT      -0.834000       15.9994           0
     31238 TIP3     2307     TIP3     H1       HT       0.417000       1.00800           0
     31239 TIP3     2307     TIP3     H2       HT       0.417000       1.00800           0
     31240 TIP3     2308     TIP3     OH2      OT      -0.834000       15.9994           0
     31241 TIP3     2308     TIP3     H1       HT       0.417000       1.00800           0
     31242 TIP3     2308     TIP3     H2       HT       0.417000       1.00800           0
     31243 TIP3     2309     TIP3     OH2      OT      -0.834000       15.9994           0
     31244 TIP3     2309     TIP3     H1       HT       0.417000       1.00800           0
     31245 TIP3     2309     TIP3     H2       HT       0.417000       1.00800           0
     31246 TIP3     2310     TIP3     OH2      OT      -0.834000       15.9994           0
     31247 TIP3     2310     TIP3     H1       HT       0.417000       1.00800           0
     31248 TIP3     2310     TIP3     H2       HT       0.417000       1.00800           0
     31249 TIP3     2311     TIP3     OH2      OT      -0.834000       15.9994           0
     31250 TIP3     2311     TIP3     H1       HT       0.417000       1.00800           0
     31251 TIP3     2311     TIP3     H2       HT       0.417000       1.00800           0
     31252 TIP3     2312     TIP3     OH2      OT      -0.834000       15.9994           0
     31253 TIP3     2312     TIP3     H1       HT       0.417000       1.00800           0
     31254 TIP3     2312     TIP3     H2       HT       0.417000       1.00800           0
     31255 TIP3     2313     TIP3     OH2      OT      -0.834000       15.9994           0
     31256 TIP3     2313     TIP3     H1       HT       0.417000       1.00800           0
     31257 TIP3     2313     TIP3     H2       HT       0.417000       1.00800           0
     31258 TIP3     2314     TIP3     OH2      OT      -0.834000       15.9994           0
     31259 TIP3     2314     TIP3     H1       HT       0.417000       1.00800           0
     31260 TIP3     2314     TIP3     H2       HT       0.417000       1.00800           0
     31261 TIP3     2315     TIP3     OH2      OT      -0.834000       15.9994           0
     31262 TIP3     2315     TIP3     H1       HT       0.417000       1.00800           0
     31263 TIP3     2315     TIP3     H2       HT       0.417000       1.00800           0
     31264 TIP3     2316     TIP3     OH2      OT      -0.834000       15.9994           0
     31265 TIP3     2316     TIP3     H1       HT       0.417000       1.00800           0
     31266 TIP3     2316     TIP3     H2       HT       0.417000       1.00800           0
     31267 TIP3     2317     TIP3     OH2      OT      -0.834000       15.9994           0
     31268 TIP3     2317     TIP3     H1       HT       0.417000       1.00800           0
     31269 TIP3     2317     TIP3     H2       HT       0.417000       1.00800           0
     31270 TIP3     2318     TIP3     OH2      OT      -0.834000       15.9994           0
     31271 TIP3     2318     TIP3     H1       HT       0.417000       1.00800           0
     31272 TIP3     2318     TIP3     H2       HT       0.417000       1.00800           0
     31273 TIP3     2319     TIP3     OH2      OT      -0.834000       15.9994           0
     31274 TIP3     2319     TIP3     H1       HT       0.417000       1.00800           0
     31275 TIP3     2319     TIP3     H2       HT       0.417000       1.00800           0
     31276 TIP3     2320     TIP3     OH2      OT      -0.834000       15.9994           0
     31277 TIP3     2320     TIP3     H1       HT       0.417000       1.00800           0
     31278 TIP3     2320     TIP3     H2       HT       0.417000       1.00800           0
     31279 TIP3     2321     TIP3     OH2      OT      -0.834000       15.9994           0
     31280 TIP3     2321     TIP3     H1       HT       0.417000       1.00800           0
     31281 TIP3     2321     TIP3     H2       HT       0.417000       1.00800           0
     31282 TIP3     2322     TIP3     OH2      OT      -0.834000       15.9994           0
     31283 TIP3     2322     TIP3     H1       HT       0.417000       1.00800           0
     31284 TIP3     2322     TIP3     H2       HT       0.417000       1.00800           0
     31285 TIP3     2323     TIP3     OH2      OT      -0.834000       15.9994           0
     31286 TIP3     2323     TIP3     H1       HT       0.417000       1.00800           0
     31287 TIP3     2323     TIP3     H2       HT       0.417000       1.00800           0
     31288 TIP3     2324     TIP3     OH2      OT      -0.834000       15.9994           0
     31289 TIP3     2324     TIP3     H1       HT       0.417000       1.00800           0
     31290 TIP3     2324     TIP3     H2       HT       0.417000       1.00800           0
     31291 TIP3     2325     TIP3     OH2      OT      -0.834000       15.9994           0
     31292 TIP3     2325     TIP3     H1       HT       0.417000       1.00800           0
     31293 TIP3     2325     TIP3     H2       HT       0.417000       1.00800           0
     31294 TIP3     2326     TIP3     OH2      OT      -0.834000       15.9994           0
     31295 TIP3     2326     TIP3     H1       HT       0.417000       1.00800           0
     31296 TIP3     2326     TIP3     H2       HT       0.417000       1.00800           0
     31297 TIP3     2327     TIP3     OH2      OT      -0.834000       15.9994           0
     31298 TIP3     2327     TIP3     H1       HT       0.417000       1.00800           0
     31299 TIP3     2327     TIP3     H2       HT       0.417000       1.00800           0
     31300 TIP3     2328     TIP3     OH2      OT      -0.834000       15.9994           0
     31301 TIP3     2328     TIP3     H1       HT       0.417000       1.00800           0
     31302 TIP3     2328     TIP3     H2       HT       0.417000       1.00800           0
     31303 TIP3     2329     TIP3     OH2      OT      -0.834000       15.9994           0
     31304 TIP3     2329     TIP3     H1       HT       0.417000       1.00800           0
     31305 TIP3     2329     TIP3     H2       HT       0.417000       1.00800           0
     31306 TIP3     2330     TIP3     OH2      OT      -0.834000       15.9994           0
     31307 TIP3     2330     TIP3     H1       HT       0.417000       1.00800           0
     31308 TIP3     2330     TIP3     H2       HT       0.417000       1.00800           0
     31309 TIP3     2331     TIP3     OH2      OT      -0.834000       15.9994           0
     31310 TIP3     2331     TIP3     H1       HT       0.417000       1.00800           0
     31311 TIP3     2331     TIP3     H2       HT       0.417000       1.00800           0
     31312 TIP3     2332     TIP3     OH2      OT      -0.834000       15.9994           0
     31313 TIP3     2332     TIP3     H1       HT       0.417000       1.00800           0
     31314 TIP3     2332     TIP3     H2       HT       0.417000       1.00800           0
     31315 TIP3     2333     TIP3     OH2      OT      -0.834000       15.9994           0
     31316 TIP3     2333     TIP3     H1       HT       0.417000       1.00800           0
     31317 TIP3     2333     TIP3     H2       HT       0.417000       1.00800           0
     31318 TIP3     2334     TIP3     OH2      OT      -0.834000       15.9994           0
     31319 TIP3     2334     TIP3     H1       HT       0.417000       1.00800           0
     31320 TIP3     2334     TIP3     H2       HT       0.417000       1.00800           0
     31321 TIP3     2335     TIP3     OH2      OT      -0.834000       15.9994           0
     31322 TIP3     2335     TIP3     H1       HT       0.417000       1.00800           0
     31323 TIP3     2335     TIP3     H2       HT       0.417000       1.00800           0
     31324 TIP3     2336     TIP3     OH2      OT      -0.834000       15.9994           0
     31325 TIP3     2336     TIP3     H1       HT       0.417000       1.00800           0
     31326 TIP3     2336     TIP3     H2       HT       0.417000       1.00800           0
     31327 TIP3     2337     TIP3     OH2      OT      -0.834000       15.9994           0
     31328 TIP3     2337     TIP3     H1       HT       0.417000       1.00800           0
     31329 TIP3     2337     TIP3     H2       HT       0.417000       1.00800           0
     31330 TIP3     2338     TIP3     OH2      OT      -0.834000       15.9994           0
     31331 TIP3     2338     TIP3     H1       HT       0.417000       1.00800           0
     31332 TIP3     2338     TIP3     H2       HT       0.417000       1.00800           0
     31333 TIP3     2339     TIP3     OH2      OT      -0.834000       15.9994           0
     31334 TIP3     2339     TIP3     H1       HT       0.417000       1.00800           0
     31335 TIP3     2339     TIP3     H2       HT       0.417000       1.00800           0
     31336 TIP3     2340     TIP3     OH2      OT      -0.834000       15.9994           0
     31337 TIP3     2340     TIP3     H1       HT       0.417000       1.00800           0
     31338 TIP3     2340     TIP3     H2       HT       0.417000       1.00800           0
     31339 TIP3     2341     TIP3     OH2      OT      -0.834000       15.9994           0
     31340 TIP3     2341     TIP3     H1       HT       0.417000       1.00800           0
     31341 TIP3     2341     TIP3     H2       HT       0.417000       1.00800           0
     31342 TIP3     2342     TIP3     OH2      OT      -0.834000       15.9994           0
     31343 TIP3     2342     TIP3     H1       HT       0.417000       1.00800           0
     31344 TIP3     2342     TIP3     H2       HT       0.417000       1.00800           0
     31345 TIP3     2343     TIP3     OH2      OT      -0.834000       15.9994           0
     31346 TIP3     2343     TIP3     H1       HT       0.417000       1.00800           0
     31347 TIP3     2343     TIP3     H2       HT       0.417000       1.00800           0
     31348 TIP3     2344     TIP3     OH2      OT      -0.834000       15.9994           0
     31349 TIP3     2344     TIP3     H1       HT       0.417000       1.00800           0
     31350 TIP3     2344     TIP3     H2       HT       0.417000       1.00800           0
     31351 TIP3     2345     TIP3     OH2      OT      -0.834000       15.9994           0
     31352 TIP3     2345     TIP3     H1       HT       0.417000       1.00800           0
     31353 TIP3     2345     TIP3     H2       HT       0.417000       1.00800           0
     31354 TIP3     2346     TIP3     OH2      OT      -0.834000       15.9994           0
     31355 TIP3     2346     TIP3     H1       HT       0.417000       1.00800           0
     31356 TIP3     2346     TIP3     H2       HT       0.417000       1.00800           0
     31357 TIP3     2347     TIP3     OH2      OT      -0.834000       15.9994           0
     31358 TIP3     2347     TIP3     H1       HT       0.417000       1.00800           0
     31359 TIP3     2347     TIP3     H2       HT       0.417000       1.00800           0
     31360 TIP3     2348     TIP3     OH2      OT      -0.834000       15.9994           0
     31361 TIP3     2348     TIP3     H1       HT       0.417000       1.00800           0
     31362 TIP3     2348     TIP3     H2       HT       0.417000       1.00800           0
     31363 TIP3     2349     TIP3     OH2      OT      -0.834000       15.9994           0
     31364 TIP3     2349     TIP3     H1       HT       0.417000       1.00800           0
     31365 TIP3     2349     TIP3     H2       HT       0.417000       1.00800           0
     31366 TIP3     2350     TIP3     OH2      OT      -0.834000       15.9994           0
     31367 TIP3     2350     TIP3     H1       HT       0.417000       1.00800           0
     31368 TIP3     2350     TIP3     H2       HT       0.417000       1.00800           0
     31369 TIP3     2351     TIP3     OH2      OT      -0.834000       15.9994           0
     31370 TIP3     2351     TIP3     H1       HT       0.417000       1.00800           0
     31371 TIP3     2351     TIP3     H2       HT       0.417000       1.00800           0
     31372 TIP3     2352     TIP3     OH2      OT      -0.834000       15.9994           0
     31373 TIP3     2352     TIP3     H1       HT       0.417000       1.00800           0
     31374 TIP3     2352     TIP3     H2       HT       0.417000       1.00800           0
     31375 TIP3     2353     TIP3     OH2      OT      -0.834000       15.9994           0
     31376 TIP3     2353     TIP3     H1       HT       0.417000       1.00800           0
     31377 TIP3     2353     TIP3     H2       HT       0.417000       1.00800           0
     31378 TIP3     2354     TIP3     OH2      OT      -0.834000       15.9994           0
     31379 TIP3     2354     TIP3     H1       HT       0.417000       1.00800           0
     31380 TIP3     2354     TIP3     H2       HT       0.417000       1.00800           0
     31381 TIP3     2355     TIP3     OH2      OT      -0.834000       15.9994           0
     31382 TIP3     2355     TIP3     H1       HT       0.417000       1.00800           0
     31383 TIP3     2355     TIP3     H2       HT       0.417000       1.00800           0
     31384 TIP3     2356     TIP3     OH2      OT      -0.834000       15.9994           0
     31385 TIP3     2356     TIP3     H1       HT       0.417000       1.00800           0
     31386 TIP3     2356     TIP3     H2       HT       0.417000       1.00800           0
     31387 TIP3     2357     TIP3     OH2      OT      -0.834000       15.9994           0
     31388 TIP3     2357     TIP3     H1       HT       0.417000       1.00800           0
     31389 TIP3     2357     TIP3     H2       HT       0.417000       1.00800           0
     31390 TIP3     2358     TIP3     OH2      OT      -0.834000       15.9994           0
     31391 TIP3     2358     TIP3     H1       HT       0.417000       1.00800           0
     31392 TIP3     2358     TIP3     H2       HT       0.417000       1.00800           0
     31393 TIP3     2359     TIP3     OH2      OT      -0.834000       15.9994           0
     31394 TIP3     2359     TIP3     H1       HT       0.417000       1.00800           0
     31395 TIP3     2359     TIP3     H2       HT       0.417000       1.00800           0
     31396 TIP3     2360     TIP3     OH2      OT      -0.834000       15.9994           0
     31397 TIP3     2360     TIP3     H1       HT       0.417000       1.00800           0
     31398 TIP3     2360     TIP3     H2       HT       0.417000       1.00800           0
     31399 TIP3     2361     TIP3     OH2      OT      -0.834000       15.9994           0
     31400 TIP3     2361     TIP3     H1       HT       0.417000       1.00800           0
     31401 TIP3     2361     TIP3     H2       HT       0.417000       1.00800           0
     31402 TIP3     2362     TIP3     OH2      OT      -0.834000       15.9994           0
     31403 TIP3     2362     TIP3     H1       HT       0.417000       1.00800           0
     31404 TIP3     2362     TIP3     H2       HT       0.417000       1.00800           0
     31405 TIP3     2363     TIP3     OH2      OT      -0.834000       15.9994           0
     31406 TIP3     2363     TIP3     H1       HT       0.417000       1.00800           0
     31407 TIP3     2363     TIP3     H2       HT       0.417000       1.00800           0
     31408 TIP3     2364     TIP3     OH2      OT      -0.834000       15.9994           0
     31409 TIP3     2364     TIP3     H1       HT       0.417000       1.00800           0
     31410 TIP3     2364     TIP3     H2       HT       0.417000       1.00800           0
     31411 TIP3     2365     TIP3     OH2      OT      -0.834000       15.9994           0
     31412 TIP3     2365     TIP3     H1       HT       0.417000       1.00800           0
     31413 TIP3     2365     TIP3     H2       HT       0.417000       1.00800           0
     31414 TIP3     2366     TIP3     OH2      OT      -0.834000       15.9994           0
     31415 TIP3     2366     TIP3     H1       HT       0.417000       1.00800           0
     31416 TIP3     2366     TIP3     H2       HT       0.417000       1.00800           0
     31417 TIP3     2367     TIP3     OH2      OT      -0.834000       15.9994           0
     31418 TIP3     2367     TIP3     H1       HT       0.417000       1.00800           0
     31419 TIP3     2367     TIP3     H2       HT       0.417000       1.00800           0
     31420 TIP3     2368     TIP3     OH2      OT      -0.834000       15.9994           0
     31421 TIP3     2368     TIP3     H1       HT       0.417000       1.00800           0
     31422 TIP3     2368     TIP3     H2       HT       0.417000       1.00800           0
     31423 TIP3     2369     TIP3     OH2      OT      -0.834000       15.9994           0
     31424 TIP3     2369     TIP3     H1       HT       0.417000       1.00800           0
     31425 TIP3     2369     TIP3     H2       HT       0.417000       1.00800           0
     31426 TIP3     2370     TIP3     OH2      OT      -0.834000       15.9994           0
     31427 TIP3     2370     TIP3     H1       HT       0.417000       1.00800           0
     31428 TIP3     2370     TIP3     H2       HT       0.417000       1.00800           0
     31429 TIP3     2371     TIP3     OH2      OT      -0.834000       15.9994           0
     31430 TIP3     2371     TIP3     H1       HT       0.417000       1.00800           0
     31431 TIP3     2371     TIP3     H2       HT       0.417000       1.00800           0
     31432 TIP3     2372     TIP3     OH2      OT      -0.834000       15.9994           0
     31433 TIP3     2372     TIP3     H1       HT       0.417000       1.00800           0
     31434 TIP3     2372     TIP3     H2       HT       0.417000       1.00800           0
     31435 TIP3     2373     TIP3     OH2      OT      -0.834000       15.9994           0
     31436 TIP3     2373     TIP3     H1       HT       0.417000       1.00800           0
     31437 TIP3     2373     TIP3     H2       HT       0.417000       1.00800           0
     31438 TIP3     2374     TIP3     OH2      OT      -0.834000       15.9994           0
     31439 TIP3     2374     TIP3     H1       HT       0.417000       1.00800           0
     31440 TIP3     2374     TIP3     H2       HT       0.417000       1.00800           0
     31441 TIP3     2375     TIP3     OH2      OT      -0.834000       15.9994           0
     31442 TIP3     2375     TIP3     H1       HT       0.417000       1.00800           0
     31443 TIP3     2375     TIP3     H2       HT       0.417000       1.00800           0
     31444 TIP3     2376     TIP3     OH2      OT      -0.834000       15.9994           0
     31445 TIP3     2376     TIP3     H1       HT       0.417000       1.00800           0
     31446 TIP3     2376     TIP3     H2       HT       0.417000       1.00800           0
     31447 TIP3     2377     TIP3     OH2      OT      -0.834000       15.9994           0
     31448 TIP3     2377     TIP3     H1       HT       0.417000       1.00800           0
     31449 TIP3     2377     TIP3     H2       HT       0.417000       1.00800           0
     31450 TIP3     2378     TIP3     OH2      OT      -0.834000       15.9994           0
     31451 TIP3     2378     TIP3     H1       HT       0.417000       1.00800           0
     31452 TIP3     2378     TIP3     H2       HT       0.417000       1.00800           0
     31453 TIP3     2379     TIP3     OH2      OT      -0.834000       15.9994           0
     31454 TIP3     2379     TIP3     H1       HT       0.417000       1.00800           0
     31455 TIP3     2379     TIP3     H2       HT       0.417000       1.00800           0
     31456 TIP3     2380     TIP3     OH2      OT      -0.834000       15.9994           0
     31457 TIP3     2380     TIP3     H1       HT       0.417000       1.00800           0
     31458 TIP3     2380     TIP3     H2       HT       0.417000       1.00800           0
     31459 TIP3     2381     TIP3     OH2      OT      -0.834000       15.9994           0
     31460 TIP3     2381     TIP3     H1       HT       0.417000       1.00800           0
     31461 TIP3     2381     TIP3     H2       HT       0.417000       1.00800           0
     31462 TIP3     2382     TIP3     OH2      OT      -0.834000       15.9994           0
     31463 TIP3     2382     TIP3     H1       HT       0.417000       1.00800           0
     31464 TIP3     2382     TIP3     H2       HT       0.417000       1.00800           0
     31465 TIP3     2383     TIP3     OH2      OT      -0.834000       15.9994           0
     31466 TIP3     2383     TIP3     H1       HT       0.417000       1.00800           0
     31467 TIP3     2383     TIP3     H2       HT       0.417000       1.00800           0
     31468 TIP3     2384     TIP3     OH2      OT      -0.834000       15.9994           0
     31469 TIP3     2384     TIP3     H1       HT       0.417000       1.00800           0
     31470 TIP3     2384     TIP3     H2       HT       0.417000       1.00800           0
     31471 TIP3     2385     TIP3     OH2      OT      -0.834000       15.9994           0
     31472 TIP3     2385     TIP3     H1       HT       0.417000       1.00800           0
     31473 TIP3     2385     TIP3     H2       HT       0.417000       1.00800           0
     31474 TIP3     2386     TIP3     OH2      OT      -0.834000       15.9994           0
     31475 TIP3     2386     TIP3     H1       HT       0.417000       1.00800           0
     31476 TIP3     2386     TIP3     H2       HT       0.417000       1.00800           0
     31477 TIP3     2387     TIP3     OH2      OT      -0.834000       15.9994           0
     31478 TIP3     2387     TIP3     H1       HT       0.417000       1.00800           0
     31479 TIP3     2387     TIP3     H2       HT       0.417000       1.00800           0
     31480 TIP3     2388     TIP3     OH2      OT      -0.834000       15.9994           0
     31481 TIP3     2388     TIP3     H1       HT       0.417000       1.00800           0
     31482 TIP3     2388     TIP3     H2       HT       0.417000       1.00800           0
     31483 TIP3     2389     TIP3     OH2      OT      -0.834000       15.9994           0
     31484 TIP3     2389     TIP3     H1       HT       0.417000       1.00800           0
     31485 TIP3     2389     TIP3     H2       HT       0.417000       1.00800           0
     31486 TIP3     2390     TIP3     OH2      OT      -0.834000       15.9994           0
     31487 TIP3     2390     TIP3     H1       HT       0.417000       1.00800           0
     31488 TIP3     2390     TIP3     H2       HT       0.417000       1.00800           0
     31489 TIP3     2391     TIP3     OH2      OT      -0.834000       15.9994           0
     31490 TIP3     2391     TIP3     H1       HT       0.417000       1.00800           0
     31491 TIP3     2391     TIP3     H2       HT       0.417000       1.00800           0
     31492 TIP3     2392     TIP3     OH2      OT      -0.834000       15.9994           0
     31493 TIP3     2392     TIP3     H1       HT       0.417000       1.00800           0
     31494 TIP3     2392     TIP3     H2       HT       0.417000       1.00800           0
     31495 TIP3     2393     TIP3     OH2      OT      -0.834000       15.9994           0
     31496 TIP3     2393     TIP3     H1       HT       0.417000       1.00800           0
     31497 TIP3     2393     TIP3     H2       HT       0.417000       1.00800           0
     31498 TIP3     2394     TIP3     OH2      OT      -0.834000       15.9994           0
     31499 TIP3     2394     TIP3     H1       HT       0.417000       1.00800           0
     31500 TIP3     2394     TIP3     H2       HT       0.417000       1.00800           0
     31501 TIP3     2395     TIP3     OH2      OT      -0.834000       15.9994           0
     31502 TIP3     2395     TIP3     H1       HT       0.417000       1.00800           0
     31503 TIP3     2395     TIP3     H2       HT       0.417000       1.00800           0
     31504 TIP3     2396     TIP3     OH2      OT      -0.834000       15.9994           0
     31505 TIP3     2396     TIP3     H1       HT       0.417000       1.00800           0
     31506 TIP3     2396     TIP3     H2       HT       0.417000       1.00800           0
     31507 TIP3     2397     TIP3     OH2      OT      -0.834000       15.9994           0
     31508 TIP3     2397     TIP3     H1       HT       0.417000       1.00800           0
     31509 TIP3     2397     TIP3     H2       HT       0.417000       1.00800           0
     31510 TIP3     2398     TIP3     OH2      OT      -0.834000       15.9994           0
     31511 TIP3     2398     TIP3     H1       HT       0.417000       1.00800           0
     31512 TIP3     2398     TIP3     H2       HT       0.417000       1.00800           0
     31513 TIP3     2399     TIP3     OH2      OT      -0.834000       15.9994           0
     31514 TIP3     2399     TIP3     H1       HT       0.417000       1.00800           0
     31515 TIP3     2399     TIP3     H2       HT       0.417000       1.00800           0
     31516 TIP3     2400     TIP3     OH2      OT      -0.834000       15.9994           0
     31517 TIP3     2400     TIP3     H1       HT       0.417000       1.00800           0
     31518 TIP3     2400     TIP3     H2       HT       0.417000       1.00800           0
     31519 TIP3     2401     TIP3     OH2      OT      -0.834000       15.9994           0
     31520 TIP3     2401     TIP3     H1       HT       0.417000       1.00800           0
     31521 TIP3     2401     TIP3     H2       HT       0.417000       1.00800           0
     31522 TIP3     2402     TIP3     OH2      OT      -0.834000       15.9994           0
     31523 TIP3     2402     TIP3     H1       HT       0.417000       1.00800           0
     31524 TIP3     2402     TIP3     H2       HT       0.417000       1.00800           0
     31525 TIP3     2403     TIP3     OH2      OT      -0.834000       15.9994           0
     31526 TIP3     2403     TIP3     H1       HT       0.417000       1.00800           0
     31527 TIP3     2403     TIP3     H2       HT       0.417000       1.00800           0
     31528 TIP3     2404     TIP3     OH2      OT      -0.834000       15.9994           0
     31529 TIP3     2404     TIP3     H1       HT       0.417000       1.00800           0
     31530 TIP3     2404     TIP3     H2       HT       0.417000       1.00800           0
     31531 TIP3     2405     TIP3     OH2      OT      -0.834000       15.9994           0
     31532 TIP3     2405     TIP3     H1       HT       0.417000       1.00800           0
     31533 TIP3     2405     TIP3     H2       HT       0.417000       1.00800           0
     31534 TIP3     2406     TIP3     OH2      OT      -0.834000       15.9994           0
     31535 TIP3     2406     TIP3     H1       HT       0.417000       1.00800           0
     31536 TIP3     2406     TIP3     H2       HT       0.417000       1.00800           0
     31537 TIP3     2407     TIP3     OH2      OT      -0.834000       15.9994           0
     31538 TIP3     2407     TIP3     H1       HT       0.417000       1.00800           0
     31539 TIP3     2407     TIP3     H2       HT       0.417000       1.00800           0
     31540 TIP3     2408     TIP3     OH2      OT      -0.834000       15.9994           0
     31541 TIP3     2408     TIP3     H1       HT       0.417000       1.00800           0
     31542 TIP3     2408     TIP3     H2       HT       0.417000       1.00800           0
     31543 TIP3     2409     TIP3     OH2      OT      -0.834000       15.9994           0
     31544 TIP3     2409     TIP3     H1       HT       0.417000       1.00800           0
     31545 TIP3     2409     TIP3     H2       HT       0.417000       1.00800           0
     31546 TIP3     2410     TIP3     OH2      OT      -0.834000       15.9994           0
     31547 TIP3     2410     TIP3     H1       HT       0.417000       1.00800           0
     31548 TIP3     2410     TIP3     H2       HT       0.417000       1.00800           0
     31549 TIP3     2411     TIP3     OH2      OT      -0.834000       15.9994           0
     31550 TIP3     2411     TIP3     H1       HT       0.417000       1.00800           0
     31551 TIP3     2411     TIP3     H2       HT       0.417000       1.00800           0
     31552 TIP3     2412     TIP3     OH2      OT      -0.834000       15.9994           0
     31553 TIP3     2412     TIP3     H1       HT       0.417000       1.00800           0
     31554 TIP3     2412     TIP3     H2       HT       0.417000       1.00800           0
     31555 TIP3     2413     TIP3     OH2      OT      -0.834000       15.9994           0
     31556 TIP3     2413     TIP3     H1       HT       0.417000       1.00800           0
     31557 TIP3     2413     TIP3     H2       HT       0.417000       1.00800           0
     31558 TIP3     2414     TIP3     OH2      OT      -0.834000       15.9994           0
     31559 TIP3     2414     TIP3     H1       HT       0.417000       1.00800           0
     31560 TIP3     2414     TIP3     H2       HT       0.417000       1.00800           0
     31561 TIP3     2415     TIP3     OH2      OT      -0.834000       15.9994           0
     31562 TIP3     2415     TIP3     H1       HT       0.417000       1.00800           0
     31563 TIP3     2415     TIP3     H2       HT       0.417000       1.00800           0
     31564 TIP3     2416     TIP3     OH2      OT      -0.834000       15.9994           0
     31565 TIP3     2416     TIP3     H1       HT       0.417000       1.00800           0
     31566 TIP3     2416     TIP3     H2       HT       0.417000       1.00800           0
     31567 TIP3     2417     TIP3     OH2      OT      -0.834000       15.9994           0
     31568 TIP3     2417     TIP3     H1       HT       0.417000       1.00800           0
     31569 TIP3     2417     TIP3     H2       HT       0.417000       1.00800           0
     31570 TIP3     2418     TIP3     OH2      OT      -0.834000       15.9994           0
     31571 TIP3     2418     TIP3     H1       HT       0.417000       1.00800           0
     31572 TIP3     2418     TIP3     H2       HT       0.417000       1.00800           0
     31573 TIP3     2419     TIP3     OH2      OT      -0.834000       15.9994           0
     31574 TIP3     2419     TIP3     H1       HT       0.417000       1.00800           0
     31575 TIP3     2419     TIP3     H2       HT       0.417000       1.00800           0
     31576 TIP3     2420     TIP3     OH2      OT      -0.834000       15.9994           0
     31577 TIP3     2420     TIP3     H1       HT       0.417000       1.00800           0
     31578 TIP3     2420     TIP3     H2       HT       0.417000       1.00800           0
     31579 TIP3     2421     TIP3     OH2      OT      -0.834000       15.9994           0
     31580 TIP3     2421     TIP3     H1       HT       0.417000       1.00800           0
     31581 TIP3     2421     TIP3     H2       HT       0.417000       1.00800           0
     31582 TIP3     2422     TIP3     OH2      OT      -0.834000       15.9994           0
     31583 TIP3     2422     TIP3     H1       HT       0.417000       1.00800           0
     31584 TIP3     2422     TIP3     H2       HT       0.417000       1.00800           0
     31585 TIP3     2423     TIP3     OH2      OT      -0.834000       15.9994           0
     31586 TIP3     2423     TIP3     H1       HT       0.417000       1.00800           0
     31587 TIP3     2423     TIP3     H2       HT       0.417000       1.00800           0
     31588 TIP3     2424     TIP3     OH2      OT      -0.834000       15.9994           0
     31589 TIP3     2424     TIP3     H1       HT       0.417000       1.00800           0
     31590 TIP3     2424     TIP3     H2       HT       0.417000       1.00800           0
     31591 TIP3     2425     TIP3     OH2      OT      -0.834000       15.9994           0
     31592 TIP3     2425     TIP3     H1       HT       0.417000       1.00800           0
     31593 TIP3     2425     TIP3     H2       HT       0.417000       1.00800           0
     31594 TIP3     2426     TIP3     OH2      OT      -0.834000       15.9994           0
     31595 TIP3     2426     TIP3     H1       HT       0.417000       1.00800           0
     31596 TIP3     2426     TIP3     H2       HT       0.417000       1.00800           0
     31597 TIP3     2427     TIP3     OH2      OT      -0.834000       15.9994           0
     31598 TIP3     2427     TIP3     H1       HT       0.417000       1.00800           0
     31599 TIP3     2427     TIP3     H2       HT       0.417000       1.00800           0
     31600 TIP3     2428     TIP3     OH2      OT      -0.834000       15.9994           0
     31601 TIP3     2428     TIP3     H1       HT       0.417000       1.00800           0
     31602 TIP3     2428     TIP3     H2       HT       0.417000       1.00800           0
     31603 TIP3     2429     TIP3     OH2      OT      -0.834000       15.9994           0
     31604 TIP3     2429     TIP3     H1       HT       0.417000       1.00800           0
     31605 TIP3     2429     TIP3     H2       HT       0.417000       1.00800           0
     31606 TIP3     2430     TIP3     OH2      OT      -0.834000       15.9994           0
     31607 TIP3     2430     TIP3     H1       HT       0.417000       1.00800           0
     31608 TIP3     2430     TIP3     H2       HT       0.417000       1.00800           0
     31609 TIP3     2431     TIP3     OH2      OT      -0.834000       15.9994           0
     31610 TIP3     2431     TIP3     H1       HT       0.417000       1.00800           0
     31611 TIP3     2431     TIP3     H2       HT       0.417000       1.00800           0
     31612 TIP3     2432     TIP3     OH2      OT      -0.834000       15.9994           0
     31613 TIP3     2432     TIP3     H1       HT       0.417000       1.00800           0
     31614 TIP3     2432     TIP3     H2       HT       0.417000       1.00800           0
     31615 TIP3     2433     TIP3     OH2      OT      -0.834000       15.9994           0
     31616 TIP3     2433     TIP3     H1       HT       0.417000       1.00800           0
     31617 TIP3     2433     TIP3     H2       HT       0.417000       1.00800           0
     31618 TIP3     2434     TIP3     OH2      OT      -0.834000       15.9994           0
     31619 TIP3     2434     TIP3     H1       HT       0.417000       1.00800           0
     31620 TIP3     2434     TIP3     H2       HT       0.417000       1.00800           0
     31621 TIP3     2435     TIP3     OH2      OT      -0.834000       15.9994           0
     31622 TIP3     2435     TIP3     H1       HT       0.417000       1.00800           0
     31623 TIP3     2435     TIP3     H2       HT       0.417000       1.00800           0
     31624 TIP3     2436     TIP3     OH2      OT      -0.834000       15.9994           0
     31625 TIP3     2436     TIP3     H1       HT       0.417000       1.00800           0
     31626 TIP3     2436     TIP3     H2       HT       0.417000       1.00800           0
     31627 TIP3     2437     TIP3     OH2      OT      -0.834000       15.9994           0
     31628 TIP3     2437     TIP3     H1       HT       0.417000       1.00800           0
     31629 TIP3     2437     TIP3     H2       HT       0.417000       1.00800           0
     31630 TIP3     2438     TIP3     OH2      OT      -0.834000       15.9994           0
     31631 TIP3     2438     TIP3     H1       HT       0.417000       1.00800           0
     31632 TIP3     2438     TIP3     H2       HT       0.417000       1.00800           0
     31633 TIP3     2439     TIP3     OH2      OT      -0.834000       15.9994           0
     31634 TIP3     2439     TIP3     H1       HT       0.417000       1.00800           0
     31635 TIP3     2439     TIP3     H2       HT       0.417000       1.00800           0
     31636 TIP3     2440     TIP3     OH2      OT      -0.834000       15.9994           0
     31637 TIP3     2440     TIP3     H1       HT       0.417000       1.00800           0
     31638 TIP3     2440     TIP3     H2       HT       0.417000       1.00800           0
     31639 TIP3     2441     TIP3     OH2      OT      -0.834000       15.9994           0
     31640 TIP3     2441     TIP3     H1       HT       0.417000       1.00800           0
     31641 TIP3     2441     TIP3     H2       HT       0.417000       1.00800           0
     31642 TIP3     2442     TIP3     OH2      OT      -0.834000       15.9994           0
     31643 TIP3     2442     TIP3     H1       HT       0.417000       1.00800           0
     31644 TIP3     2442     TIP3     H2       HT       0.417000       1.00800           0
     31645 TIP3     2443     TIP3     OH2      OT      -0.834000       15.9994           0
     31646 TIP3     2443     TIP3     H1       HT       0.417000       1.00800           0
     31647 TIP3     2443     TIP3     H2       HT       0.417000       1.00800           0
     31648 TIP3     2444     TIP3     OH2      OT      -0.834000       15.9994           0
     31649 TIP3     2444     TIP3     H1       HT       0.417000       1.00800           0
     31650 TIP3     2444     TIP3     H2       HT       0.417000       1.00800           0
     31651 TIP3     2445     TIP3     OH2      OT      -0.834000       15.9994           0
     31652 TIP3     2445     TIP3     H1       HT       0.417000       1.00800           0
     31653 TIP3     2445     TIP3     H2       HT       0.417000       1.00800           0
     31654 TIP3     2446     TIP3     OH2      OT      -0.834000       15.9994           0
     31655 TIP3     2446     TIP3     H1       HT       0.417000       1.00800           0
     31656 TIP3     2446     TIP3     H2       HT       0.417000       1.00800           0
     31657 TIP3     2447     TIP3     OH2      OT      -0.834000       15.9994           0
     31658 TIP3     2447     TIP3     H1       HT       0.417000       1.00800           0
     31659 TIP3     2447     TIP3     H2       HT       0.417000       1.00800           0
     31660 TIP3     2448     TIP3     OH2      OT      -0.834000       15.9994           0
     31661 TIP3     2448     TIP3     H1       HT       0.417000       1.00800           0
     31662 TIP3     2448     TIP3     H2       HT       0.417000       1.00800           0
     31663 TIP3     2449     TIP3     OH2      OT      -0.834000       15.9994           0
     31664 TIP3     2449     TIP3     H1       HT       0.417000       1.00800           0
     31665 TIP3     2449     TIP3     H2       HT       0.417000       1.00800           0
     31666 TIP3     2450     TIP3     OH2      OT      -0.834000       15.9994           0
     31667 TIP3     2450     TIP3     H1       HT       0.417000       1.00800           0
     31668 TIP3     2450     TIP3     H2       HT       0.417000       1.00800           0
     31669 TIP3     2451     TIP3     OH2      OT      -0.834000       15.9994           0
     31670 TIP3     2451     TIP3     H1       HT       0.417000       1.00800           0
     31671 TIP3     2451     TIP3     H2       HT       0.417000       1.00800           0
     31672 TIP3     2452     TIP3     OH2      OT      -0.834000       15.9994           0
     31673 TIP3     2452     TIP3     H1       HT       0.417000       1.00800           0
     31674 TIP3     2452     TIP3     H2       HT       0.417000       1.00800           0
     31675 TIP3     2453     TIP3     OH2      OT      -0.834000       15.9994           0
     31676 TIP3     2453     TIP3     H1       HT       0.417000       1.00800           0
     31677 TIP3     2453     TIP3     H2       HT       0.417000       1.00800           0
     31678 TIP3     2454     TIP3     OH2      OT      -0.834000       15.9994           0
     31679 TIP3     2454     TIP3     H1       HT       0.417000       1.00800           0
     31680 TIP3     2454     TIP3     H2       HT       0.417000       1.00800           0
     31681 TIP3     2455     TIP3     OH2      OT      -0.834000       15.9994           0
     31682 TIP3     2455     TIP3     H1       HT       0.417000       1.00800           0
     31683 TIP3     2455     TIP3     H2       HT       0.417000       1.00800           0
     31684 TIP3     2456     TIP3     OH2      OT      -0.834000       15.9994           0
     31685 TIP3     2456     TIP3     H1       HT       0.417000       1.00800           0
     31686 TIP3     2456     TIP3     H2       HT       0.417000       1.00800           0
     31687 TIP3     2457     TIP3     OH2      OT      -0.834000       15.9994           0
     31688 TIP3     2457     TIP3     H1       HT       0.417000       1.00800           0
     31689 TIP3     2457     TIP3     H2       HT       0.417000       1.00800           0
     31690 TIP3     2458     TIP3     OH2      OT      -0.834000       15.9994           0
     31691 TIP3     2458     TIP3     H1       HT       0.417000       1.00800           0
     31692 TIP3     2458     TIP3     H2       HT       0.417000       1.00800           0
     31693 TIP3     2459     TIP3     OH2      OT      -0.834000       15.9994           0
     31694 TIP3     2459     TIP3     H1       HT       0.417000       1.00800           0
     31695 TIP3     2459     TIP3     H2       HT       0.417000       1.00800           0
     31696 TIP3     2460     TIP3     OH2      OT      -0.834000       15.9994           0
     31697 TIP3     2460     TIP3     H1       HT       0.417000       1.00800           0
     31698 TIP3     2460     TIP3     H2       HT       0.417000       1.00800           0
     31699 TIP3     2461     TIP3     OH2      OT      -0.834000       15.9994           0
     31700 TIP3     2461     TIP3     H1       HT       0.417000       1.00800           0
     31701 TIP3     2461     TIP3     H2       HT       0.417000       1.00800           0
     31702 TIP3     2462     TIP3     OH2      OT      -0.834000       15.9994           0
     31703 TIP3     2462     TIP3     H1       HT       0.417000       1.00800           0
     31704 TIP3     2462     TIP3     H2       HT       0.417000       1.00800           0
     31705 TIP3     2463     TIP3     OH2      OT      -0.834000       15.9994           0
     31706 TIP3     2463     TIP3     H1       HT       0.417000       1.00800           0
     31707 TIP3     2463     TIP3     H2       HT       0.417000       1.00800           0
     31708 TIP3     2464     TIP3     OH2      OT      -0.834000       15.9994           0
     31709 TIP3     2464     TIP3     H1       HT       0.417000       1.00800           0
     31710 TIP3     2464     TIP3     H2       HT       0.417000       1.00800           0
     31711 TIP3     2465     TIP3     OH2      OT      -0.834000       15.9994           0
     31712 TIP3     2465     TIP3     H1       HT       0.417000       1.00800           0
     31713 TIP3     2465     TIP3     H2       HT       0.417000       1.00800           0
     31714 TIP3     2466     TIP3     OH2      OT      -0.834000       15.9994           0
     31715 TIP3     2466     TIP3     H1       HT       0.417000       1.00800           0
     31716 TIP3     2466     TIP3     H2       HT       0.417000       1.00800           0
     31717 TIP3     2467     TIP3     OH2      OT      -0.834000       15.9994           0
     31718 TIP3     2467     TIP3     H1       HT       0.417000       1.00800           0
     31719 TIP3     2467     TIP3     H2       HT       0.417000       1.00800           0
     31720 TIP3     2468     TIP3     OH2      OT      -0.834000       15.9994           0
     31721 TIP3     2468     TIP3     H1       HT       0.417000       1.00800           0
     31722 TIP3     2468     TIP3     H2       HT       0.417000       1.00800           0
     31723 TIP3     2469     TIP3     OH2      OT      -0.834000       15.9994           0
     31724 TIP3     2469     TIP3     H1       HT       0.417000       1.00800           0
     31725 TIP3     2469     TIP3     H2       HT       0.417000       1.00800           0
     31726 TIP3     2470     TIP3     OH2      OT      -0.834000       15.9994           0
     31727 TIP3     2470     TIP3     H1       HT       0.417000       1.00800           0
     31728 TIP3     2470     TIP3     H2       HT       0.417000       1.00800           0
     31729 TIP3     2471     TIP3     OH2      OT      -0.834000       15.9994           0
     31730 TIP3     2471     TIP3     H1       HT       0.417000       1.00800           0
     31731 TIP3     2471     TIP3     H2       HT       0.417000       1.00800           0
     31732 TIP3     2472     TIP3     OH2      OT      -0.834000       15.9994           0
     31733 TIP3     2472     TIP3     H1       HT       0.417000       1.00800           0
     31734 TIP3     2472     TIP3     H2       HT       0.417000       1.00800           0
     31735 TIP3     2473     TIP3     OH2      OT      -0.834000       15.9994           0
     31736 TIP3     2473     TIP3     H1       HT       0.417000       1.00800           0
     31737 TIP3     2473     TIP3     H2       HT       0.417000       1.00800           0
     31738 TIP3     2474     TIP3     OH2      OT      -0.834000       15.9994           0
     31739 TIP3     2474     TIP3     H1       HT       0.417000       1.00800           0
     31740 TIP3     2474     TIP3     H2       HT       0.417000       1.00800           0
     31741 TIP3     2475     TIP3     OH2      OT      -0.834000       15.9994           0
     31742 TIP3     2475     TIP3     H1       HT       0.417000       1.00800           0
     31743 TIP3     2475     TIP3     H2       HT       0.417000       1.00800           0
     31744 TIP3     2476     TIP3     OH2      OT      -0.834000       15.9994           0
     31745 TIP3     2476     TIP3     H1       HT       0.417000       1.00800           0
     31746 TIP3     2476     TIP3     H2       HT       0.417000       1.00800           0
     31747 TIP3     2477     TIP3     OH2      OT      -0.834000       15.9994           0
     31748 TIP3     2477     TIP3     H1       HT       0.417000       1.00800           0
     31749 TIP3     2477     TIP3     H2       HT       0.417000       1.00800           0
     31750 TIP3     2478     TIP3     OH2      OT      -0.834000       15.9994           0
     31751 TIP3     2478     TIP3     H1       HT       0.417000       1.00800           0
     31752 TIP3     2478     TIP3     H2       HT       0.417000       1.00800           0
     31753 TIP3     2479     TIP3     OH2      OT      -0.834000       15.9994           0
     31754 TIP3     2479     TIP3     H1       HT       0.417000       1.00800           0
     31755 TIP3     2479     TIP3     H2       HT       0.417000       1.00800           0
     31756 TIP3     2480     TIP3     OH2      OT      -0.834000       15.9994           0
     31757 TIP3     2480     TIP3     H1       HT       0.417000       1.00800           0
     31758 TIP3     2480     TIP3     H2       HT       0.417000       1.00800           0
     31759 TIP3     2481     TIP3     OH2      OT      -0.834000       15.9994           0
     31760 TIP3     2481     TIP3     H1       HT       0.417000       1.00800           0
     31761 TIP3     2481     TIP3     H2       HT       0.417000       1.00800           0
     31762 TIP3     2482     TIP3     OH2      OT      -0.834000       15.9994           0
     31763 TIP3     2482     TIP3     H1       HT       0.417000       1.00800           0
     31764 TIP3     2482     TIP3     H2       HT       0.417000       1.00800           0
     31765 TIP3     2483     TIP3     OH2      OT      -0.834000       15.9994           0
     31766 TIP3     2483     TIP3     H1       HT       0.417000       1.00800           0
     31767 TIP3     2483     TIP3     H2       HT       0.417000       1.00800           0
     31768 TIP3     2484     TIP3     OH2      OT      -0.834000       15.9994           0
     31769 TIP3     2484     TIP3     H1       HT       0.417000       1.00800           0
     31770 TIP3     2484     TIP3     H2       HT       0.417000       1.00800           0
     31771 TIP3     2485     TIP3     OH2      OT      -0.834000       15.9994           0
     31772 TIP3     2485     TIP3     H1       HT       0.417000       1.00800           0
     31773 TIP3     2485     TIP3     H2       HT       0.417000       1.00800           0
     31774 TIP3     2486     TIP3     OH2      OT      -0.834000       15.9994           0
     31775 TIP3     2486     TIP3     H1       HT       0.417000       1.00800           0
     31776 TIP3     2486     TIP3     H2       HT       0.417000       1.00800           0
     31777 TIP3     2487     TIP3     OH2      OT      -0.834000       15.9994           0
     31778 TIP3     2487     TIP3     H1       HT       0.417000       1.00800           0
     31779 TIP3     2487     TIP3     H2       HT       0.417000       1.00800           0
     31780 TIP3     2488     TIP3     OH2      OT      -0.834000       15.9994           0
     31781 TIP3     2488     TIP3     H1       HT       0.417000       1.00800           0
     31782 TIP3     2488     TIP3     H2       HT       0.417000       1.00800           0
     31783 TIP3     2489     TIP3     OH2      OT      -0.834000       15.9994           0
     31784 TIP3     2489     TIP3     H1       HT       0.417000       1.00800           0
     31785 TIP3     2489     TIP3     H2       HT       0.417000       1.00800           0
     31786 TIP3     2490     TIP3     OH2      OT      -0.834000       15.9994           0
     31787 TIP3     2490     TIP3     H1       HT       0.417000       1.00800           0
     31788 TIP3     2490     TIP3     H2       HT       0.417000       1.00800           0
     31789 TIP3     2491     TIP3     OH2      OT      -0.834000       15.9994           0
     31790 TIP3     2491     TIP3     H1       HT       0.417000       1.00800           0
     31791 TIP3     2491     TIP3     H2       HT       0.417000       1.00800           0
     31792 TIP3     2492     TIP3     OH2      OT      -0.834000       15.9994           0
     31793 TIP3     2492     TIP3     H1       HT       0.417000       1.00800           0
     31794 TIP3     2492     TIP3     H2       HT       0.417000       1.00800           0
     31795 TIP3     2493     TIP3     OH2      OT      -0.834000       15.9994           0
     31796 TIP3     2493     TIP3     H1       HT       0.417000       1.00800           0
     31797 TIP3     2493     TIP3     H2       HT       0.417000       1.00800           0
     31798 TIP3     2494     TIP3     OH2      OT      -0.834000       15.9994           0
     31799 TIP3     2494     TIP3     H1       HT       0.417000       1.00800           0
     31800 TIP3     2494     TIP3     H2       HT       0.417000       1.00800           0
     31801 TIP3     2495     TIP3     OH2      OT      -0.834000       15.9994           0
     31802 TIP3     2495     TIP3     H1       HT       0.417000       1.00800           0
     31803 TIP3     2495     TIP3     H2       HT       0.417000       1.00800           0
     31804 TIP3     2496     TIP3     OH2      OT      -0.834000       15.9994           0
     31805 TIP3     2496     TIP3     H1       HT       0.417000       1.00800           0
     31806 TIP3     2496     TIP3     H2       HT       0.417000       1.00800           0
     31807 TIP3     2497     TIP3     OH2      OT      -0.834000       15.9994           0
     31808 TIP3     2497     TIP3     H1       HT       0.417000       1.00800           0
     31809 TIP3     2497     TIP3     H2       HT       0.417000       1.00800           0
     31810 TIP3     2498     TIP3     OH2      OT      -0.834000       15.9994           0
     31811 TIP3     2498     TIP3     H1       HT       0.417000       1.00800           0
     31812 TIP3     2498     TIP3     H2       HT       0.417000       1.00800           0
     31813 TIP3     2499     TIP3     OH2      OT      -0.834000       15.9994           0
     31814 TIP3     2499     TIP3     H1       HT       0.417000       1.00800           0
     31815 TIP3     2499     TIP3     H2       HT       0.417000       1.00800           0
     31816 TIP3     2500     TIP3     OH2      OT      -0.834000       15.9994           0
     31817 TIP3     2500     TIP3     H1       HT       0.417000       1.00800           0
     31818 TIP3     2500     TIP3     H2       HT       0.417000       1.00800           0
     31819 TIP3     2501     TIP3     OH2      OT      -0.834000       15.9994           0
     31820 TIP3     2501     TIP3     H1       HT       0.417000       1.00800           0
     31821 TIP3     2501     TIP3     H2       HT       0.417000       1.00800           0
     31822 TIP3     2502     TIP3     OH2      OT      -0.834000       15.9994           0
     31823 TIP3     2502     TIP3     H1       HT       0.417000       1.00800           0
     31824 TIP3     2502     TIP3     H2       HT       0.417000       1.00800           0
     31825 TIP3     2503     TIP3     OH2      OT      -0.834000       15.9994           0
     31826 TIP3     2503     TIP3     H1       HT       0.417000       1.00800           0
     31827 TIP3     2503     TIP3     H2       HT       0.417000       1.00800           0
     31828 TIP3     2504     TIP3     OH2      OT      -0.834000       15.9994           0
     31829 TIP3     2504     TIP3     H1       HT       0.417000       1.00800           0
     31830 TIP3     2504     TIP3     H2       HT       0.417000       1.00800           0
     31831 TIP3     2505     TIP3     OH2      OT      -0.834000       15.9994           0
     31832 TIP3     2505     TIP3     H1       HT       0.417000       1.00800           0
     31833 TIP3     2505     TIP3     H2       HT       0.417000       1.00800           0
     31834 TIP3     2506     TIP3     OH2      OT      -0.834000       15.9994           0
     31835 TIP3     2506     TIP3     H1       HT       0.417000       1.00800           0
     31836 TIP3     2506     TIP3     H2       HT       0.417000       1.00800           0
     31837 TIP3     2507     TIP3     OH2      OT      -0.834000       15.9994           0
     31838 TIP3     2507     TIP3     H1       HT       0.417000       1.00800           0
     31839 TIP3     2507     TIP3     H2       HT       0.417000       1.00800           0
     31840 TIP3     2508     TIP3     OH2      OT      -0.834000       15.9994           0
     31841 TIP3     2508     TIP3     H1       HT       0.417000       1.00800           0
     31842 TIP3     2508     TIP3     H2       HT       0.417000       1.00800           0
     31843 TIP3     2509     TIP3     OH2      OT      -0.834000       15.9994           0
     31844 TIP3     2509     TIP3     H1       HT       0.417000       1.00800           0
     31845 TIP3     2509     TIP3     H2       HT       0.417000       1.00800           0
     31846 TIP3     2510     TIP3     OH2      OT      -0.834000       15.9994           0
     31847 TIP3     2510     TIP3     H1       HT       0.417000       1.00800           0
     31848 TIP3     2510     TIP3     H2       HT       0.417000       1.00800           0
     31849 TIP3     2511     TIP3     OH2      OT      -0.834000       15.9994           0
     31850 TIP3     2511     TIP3     H1       HT       0.417000       1.00800           0
     31851 TIP3     2511     TIP3     H2       HT       0.417000       1.00800           0
     31852 TIP3     2512     TIP3     OH2      OT      -0.834000       15.9994           0
     31853 TIP3     2512     TIP3     H1       HT       0.417000       1.00800           0
     31854 TIP3     2512     TIP3     H2       HT       0.417000       1.00800           0
     31855 TIP3     2513     TIP3     OH2      OT      -0.834000       15.9994           0
     31856 TIP3     2513     TIP3     H1       HT       0.417000       1.00800           0
     31857 TIP3     2513     TIP3     H2       HT       0.417000       1.00800           0
     31858 TIP3     2514     TIP3     OH2      OT      -0.834000       15.9994           0
     31859 TIP3     2514     TIP3     H1       HT       0.417000       1.00800           0
     31860 TIP3     2514     TIP3     H2       HT       0.417000       1.00800           0
     31861 TIP3     2515     TIP3     OH2      OT      -0.834000       15.9994           0
     31862 TIP3     2515     TIP3     H1       HT       0.417000       1.00800           0
     31863 TIP3     2515     TIP3     H2       HT       0.417000       1.00800           0
     31864 TIP3     2516     TIP3     OH2      OT      -0.834000       15.9994           0
     31865 TIP3     2516     TIP3     H1       HT       0.417000       1.00800           0
     31866 TIP3     2516     TIP3     H2       HT       0.417000       1.00800           0
     31867 TIP3     2517     TIP3     OH2      OT      -0.834000       15.9994           0
     31868 TIP3     2517     TIP3     H1       HT       0.417000       1.00800           0
     31869 TIP3     2517     TIP3     H2       HT       0.417000       1.00800           0
     31870 TIP3     2518     TIP3     OH2      OT      -0.834000       15.9994           0
     31871 TIP3     2518     TIP3     H1       HT       0.417000       1.00800           0
     31872 TIP3     2518     TIP3     H2       HT       0.417000       1.00800           0
     31873 TIP3     2519     TIP3     OH2      OT      -0.834000       15.9994           0
     31874 TIP3     2519     TIP3     H1       HT       0.417000       1.00800           0
     31875 TIP3     2519     TIP3     H2       HT       0.417000       1.00800           0
     31876 TIP3     2520     TIP3     OH2      OT      -0.834000       15.9994           0
     31877 TIP3     2520     TIP3     H1       HT       0.417000       1.00800           0
     31878 TIP3     2520     TIP3     H2       HT       0.417000       1.00800           0
     31879 TIP3     2521     TIP3     OH2      OT      -0.834000       15.9994           0
     31880 TIP3     2521     TIP3     H1       HT       0.417000       1.00800           0
     31881 TIP3     2521     TIP3     H2       HT       0.417000       1.00800           0
     31882 TIP3     2522     TIP3     OH2      OT      -0.834000       15.9994           0
     31883 TIP3     2522     TIP3     H1       HT       0.417000       1.00800           0
     31884 TIP3     2522     TIP3     H2       HT       0.417000       1.00800           0
     31885 TIP3     2523     TIP3     OH2      OT      -0.834000       15.9994           0
     31886 TIP3     2523     TIP3     H1       HT       0.417000       1.00800           0
     31887 TIP3     2523     TIP3     H2       HT       0.417000       1.00800           0
     31888 TIP3     2524     TIP3     OH2      OT      -0.834000       15.9994           0
     31889 TIP3     2524     TIP3     H1       HT       0.417000       1.00800           0
     31890 TIP3     2524     TIP3     H2       HT       0.417000       1.00800           0
     31891 TIP3     2525     TIP3     OH2      OT      -0.834000       15.9994           0
     31892 TIP3     2525     TIP3     H1       HT       0.417000       1.00800           0
     31893 TIP3     2525     TIP3     H2       HT       0.417000       1.00800           0
     31894 TIP3     2526     TIP3     OH2      OT      -0.834000       15.9994           0
     31895 TIP3     2526     TIP3     H1       HT       0.417000       1.00800           0
     31896 TIP3     2526     TIP3     H2       HT       0.417000       1.00800           0
     31897 TIP3     2527     TIP3     OH2      OT      -0.834000       15.9994           0
     31898 TIP3     2527     TIP3     H1       HT       0.417000       1.00800           0
     31899 TIP3     2527     TIP3     H2       HT       0.417000       1.00800           0
     31900 TIP3     2528     TIP3     OH2      OT      -0.834000       15.9994           0
     31901 TIP3     2528     TIP3     H1       HT       0.417000       1.00800           0
     31902 TIP3     2528     TIP3     H2       HT       0.417000       1.00800           0
     31903 TIP3     2529     TIP3     OH2      OT      -0.834000       15.9994           0
     31904 TIP3     2529     TIP3     H1       HT       0.417000       1.00800           0
     31905 TIP3     2529     TIP3     H2       HT       0.417000       1.00800           0
     31906 TIP3     2530     TIP3     OH2      OT      -0.834000       15.9994           0
     31907 TIP3     2530     TIP3     H1       HT       0.417000       1.00800           0
     31908 TIP3     2530     TIP3     H2       HT       0.417000       1.00800           0
     31909 TIP3     2531     TIP3     OH2      OT      -0.834000       15.9994           0
     31910 TIP3     2531     TIP3     H1       HT       0.417000       1.00800           0
     31911 TIP3     2531     TIP3     H2       HT       0.417000       1.00800           0
     31912 TIP3     2532     TIP3     OH2      OT      -0.834000       15.9994           0
     31913 TIP3     2532     TIP3     H1       HT       0.417000       1.00800           0
     31914 TIP3     2532     TIP3     H2       HT       0.417000       1.00800           0
     31915 TIP3     2533     TIP3     OH2      OT      -0.834000       15.9994           0
     31916 TIP3     2533     TIP3     H1       HT       0.417000       1.00800           0
     31917 TIP3     2533     TIP3     H2       HT       0.417000       1.00800           0
     31918 TIP3     2534     TIP3     OH2      OT      -0.834000       15.9994           0
     31919 TIP3     2534     TIP3     H1       HT       0.417000       1.00800           0
     31920 TIP3     2534     TIP3     H2       HT       0.417000       1.00800           0
     31921 TIP3     2535     TIP3     OH2      OT      -0.834000       15.9994           0
     31922 TIP3     2535     TIP3     H1       HT       0.417000       1.00800           0
     31923 TIP3     2535     TIP3     H2       HT       0.417000       1.00800           0
     31924 TIP3     2536     TIP3     OH2      OT      -0.834000       15.9994           0
     31925 TIP3     2536     TIP3     H1       HT       0.417000       1.00800           0
     31926 TIP3     2536     TIP3     H2       HT       0.417000       1.00800           0
     31927 TIP3     2537     TIP3     OH2      OT      -0.834000       15.9994           0
     31928 TIP3     2537     TIP3     H1       HT       0.417000       1.00800           0
     31929 TIP3     2537     TIP3     H2       HT       0.417000       1.00800           0
     31930 TIP3     2538     TIP3     OH2      OT      -0.834000       15.9994           0
     31931 TIP3     2538     TIP3     H1       HT       0.417000       1.00800           0
     31932 TIP3     2538     TIP3     H2       HT       0.417000       1.00800           0
     31933 TIP3     2539     TIP3     OH2      OT      -0.834000       15.9994           0
     31934 TIP3     2539     TIP3     H1       HT       0.417000       1.00800           0
     31935 TIP3     2539     TIP3     H2       HT       0.417000       1.00800           0
     31936 TIP3     2540     TIP3     OH2      OT      -0.834000       15.9994           0
     31937 TIP3     2540     TIP3     H1       HT       0.417000       1.00800           0
     31938 TIP3     2540     TIP3     H2       HT       0.417000       1.00800           0
     31939 TIP3     2541     TIP3     OH2      OT      -0.834000       15.9994           0
     31940 TIP3     2541     TIP3     H1       HT       0.417000       1.00800           0
     31941 TIP3     2541     TIP3     H2       HT       0.417000       1.00800           0
     31942 TIP3     2542     TIP3     OH2      OT      -0.834000       15.9994           0
     31943 TIP3     2542     TIP3     H1       HT       0.417000       1.00800           0
     31944 TIP3     2542     TIP3     H2       HT       0.417000       1.00800           0
     31945 TIP3     2543     TIP3     OH2      OT      -0.834000       15.9994           0
     31946 TIP3     2543     TIP3     H1       HT       0.417000       1.00800           0
     31947 TIP3     2543     TIP3     H2       HT       0.417000       1.00800           0
     31948 TIP3     2544     TIP3     OH2      OT      -0.834000       15.9994           0
     31949 TIP3     2544     TIP3     H1       HT       0.417000       1.00800           0
     31950 TIP3     2544     TIP3     H2       HT       0.417000       1.00800           0
     31951 TIP3     2545     TIP3     OH2      OT      -0.834000       15.9994           0
     31952 TIP3     2545     TIP3     H1       HT       0.417000       1.00800           0
     31953 TIP3     2545     TIP3     H2       HT       0.417000       1.00800           0
     31954 TIP3     2546     TIP3     OH2      OT      -0.834000       15.9994           0
     31955 TIP3     2546     TIP3     H1       HT       0.417000       1.00800           0
     31956 TIP3     2546     TIP3     H2       HT       0.417000       1.00800           0
     31957 TIP3     2547     TIP3     OH2      OT      -0.834000       15.9994           0
     31958 TIP3     2547     TIP3     H1       HT       0.417000       1.00800           0
     31959 TIP3     2547     TIP3     H2       HT       0.417000       1.00800           0
     31960 TIP3     2548     TIP3     OH2      OT      -0.834000       15.9994           0
     31961 TIP3     2548     TIP3     H1       HT       0.417000       1.00800           0
     31962 TIP3     2548     TIP3     H2       HT       0.417000       1.00800           0
     31963 TIP3     2549     TIP3     OH2      OT      -0.834000       15.9994           0
     31964 TIP3     2549     TIP3     H1       HT       0.417000       1.00800           0
     31965 TIP3     2549     TIP3     H2       HT       0.417000       1.00800           0
     31966 TIP3     2550     TIP3     OH2      OT      -0.834000       15.9994           0
     31967 TIP3     2550     TIP3     H1       HT       0.417000       1.00800           0
     31968 TIP3     2550     TIP3     H2       HT       0.417000       1.00800           0
     31969 TIP3     2551     TIP3     OH2      OT      -0.834000       15.9994           0
     31970 TIP3     2551     TIP3     H1       HT       0.417000       1.00800           0
     31971 TIP3     2551     TIP3     H2       HT       0.417000       1.00800           0
     31972 TIP3     2552     TIP3     OH2      OT      -0.834000       15.9994           0
     31973 TIP3     2552     TIP3     H1       HT       0.417000       1.00800           0
     31974 TIP3     2552     TIP3     H2       HT       0.417000       1.00800           0
     31975 TIP3     2553     TIP3     OH2      OT      -0.834000       15.9994           0
     31976 TIP3     2553     TIP3     H1       HT       0.417000       1.00800           0
     31977 TIP3     2553     TIP3     H2       HT       0.417000       1.00800           0
     31978 TIP3     2554     TIP3     OH2      OT      -0.834000       15.9994           0
     31979 TIP3     2554     TIP3     H1       HT       0.417000       1.00800           0
     31980 TIP3     2554     TIP3     H2       HT       0.417000       1.00800           0
     31981 TIP3     2555     TIP3     OH2      OT      -0.834000       15.9994           0
     31982 TIP3     2555     TIP3     H1       HT       0.417000       1.00800           0
     31983 TIP3     2555     TIP3     H2       HT       0.417000       1.00800           0
     31984 TIP3     2556     TIP3     OH2      OT      -0.834000       15.9994           0
     31985 TIP3     2556     TIP3     H1       HT       0.417000       1.00800           0
     31986 TIP3     2556     TIP3     H2       HT       0.417000       1.00800           0
     31987 TIP3     2557     TIP3     OH2      OT      -0.834000       15.9994           0
     31988 TIP3     2557     TIP3     H1       HT       0.417000       1.00800           0
     31989 TIP3     2557     TIP3     H2       HT       0.417000       1.00800           0
     31990 TIP3     2558     TIP3     OH2      OT      -0.834000       15.9994           0
     31991 TIP3     2558     TIP3     H1       HT       0.417000       1.00800           0
     31992 TIP3     2558     TIP3     H2       HT       0.417000       1.00800           0
     31993 TIP3     2559     TIP3     OH2      OT      -0.834000       15.9994           0
     31994 TIP3     2559     TIP3     H1       HT       0.417000       1.00800           0
     31995 TIP3     2559     TIP3     H2       HT       0.417000       1.00800           0
     31996 TIP3     2560     TIP3     OH2      OT      -0.834000       15.9994           0
     31997 TIP3     2560     TIP3     H1       HT       0.417000       1.00800           0
     31998 TIP3     2560     TIP3     H2       HT       0.417000       1.00800           0
     31999 TIP3     2561     TIP3     OH2      OT      -0.834000       15.9994           0
     32000 TIP3     2561     TIP3     H1       HT       0.417000       1.00800           0
     32001 TIP3     2561     TIP3     H2       HT       0.417000       1.00800           0
     32002 TIP3     2562     TIP3     OH2      OT      -0.834000       15.9994           0
     32003 TIP3     2562     TIP3     H1       HT       0.417000       1.00800           0
     32004 TIP3     2562     TIP3     H2       HT       0.417000       1.00800           0
     32005 TIP3     2563     TIP3     OH2      OT      -0.834000       15.9994           0
     32006 TIP3     2563     TIP3     H1       HT       0.417000       1.00800           0
     32007 TIP3     2563     TIP3     H2       HT       0.417000       1.00800           0
     32008 TIP3     2564     TIP3     OH2      OT      -0.834000       15.9994           0
     32009 TIP3     2564     TIP3     H1       HT       0.417000       1.00800           0
     32010 TIP3     2564     TIP3     H2       HT       0.417000       1.00800           0
     32011 TIP3     2565     TIP3     OH2      OT      -0.834000       15.9994           0
     32012 TIP3     2565     TIP3     H1       HT       0.417000       1.00800           0
     32013 TIP3     2565     TIP3     H2       HT       0.417000       1.00800           0
     32014 TIP3     2566     TIP3     OH2      OT      -0.834000       15.9994           0
     32015 TIP3     2566     TIP3     H1       HT       0.417000       1.00800           0
     32016 TIP3     2566     TIP3     H2       HT       0.417000       1.00800           0
     32017 TIP3     2567     TIP3     OH2      OT      -0.834000       15.9994           0
     32018 TIP3     2567     TIP3     H1       HT       0.417000       1.00800           0
     32019 TIP3     2567     TIP3     H2       HT       0.417000       1.00800           0
     32020 TIP3     2568     TIP3     OH2      OT      -0.834000       15.9994           0
     32021 TIP3     2568     TIP3     H1       HT       0.417000       1.00800           0
     32022 TIP3     2568     TIP3     H2       HT       0.417000       1.00800           0
     32023 TIP3     2569     TIP3     OH2      OT      -0.834000       15.9994           0
     32024 TIP3     2569     TIP3     H1       HT       0.417000       1.00800           0
     32025 TIP3     2569     TIP3     H2       HT       0.417000       1.00800           0
     32026 TIP3     2570     TIP3     OH2      OT      -0.834000       15.9994           0
     32027 TIP3     2570     TIP3     H1       HT       0.417000       1.00800           0
     32028 TIP3     2570     TIP3     H2       HT       0.417000       1.00800           0
     32029 TIP3     2571     TIP3     OH2      OT      -0.834000       15.9994           0
     32030 TIP3     2571     TIP3     H1       HT       0.417000       1.00800           0
     32031 TIP3     2571     TIP3     H2       HT       0.417000       1.00800           0
     32032 TIP3     2572     TIP3     OH2      OT      -0.834000       15.9994           0
     32033 TIP3     2572     TIP3     H1       HT       0.417000       1.00800           0
     32034 TIP3     2572     TIP3     H2       HT       0.417000       1.00800           0
     32035 TIP3     2573     TIP3     OH2      OT      -0.834000       15.9994           0
     32036 TIP3     2573     TIP3     H1       HT       0.417000       1.00800           0
     32037 TIP3     2573     TIP3     H2       HT       0.417000       1.00800           0
     32038 TIP3     2574     TIP3     OH2      OT      -0.834000       15.9994           0
     32039 TIP3     2574     TIP3     H1       HT       0.417000       1.00800           0
     32040 TIP3     2574     TIP3     H2       HT       0.417000       1.00800           0
     32041 TIP3     2575     TIP3     OH2      OT      -0.834000       15.9994           0
     32042 TIP3     2575     TIP3     H1       HT       0.417000       1.00800           0
     32043 TIP3     2575     TIP3     H2       HT       0.417000       1.00800           0
     32044 TIP3     2576     TIP3     OH2      OT      -0.834000       15.9994           0
     32045 TIP3     2576     TIP3     H1       HT       0.417000       1.00800           0
     32046 TIP3     2576     TIP3     H2       HT       0.417000       1.00800           0
     32047 TIP3     2577     TIP3     OH2      OT      -0.834000       15.9994           0
     32048 TIP3     2577     TIP3     H1       HT       0.417000       1.00800           0
     32049 TIP3     2577     TIP3     H2       HT       0.417000       1.00800           0
     32050 TIP3     2578     TIP3     OH2      OT      -0.834000       15.9994           0
     32051 TIP3     2578     TIP3     H1       HT       0.417000       1.00800           0
     32052 TIP3     2578     TIP3     H2       HT       0.417000       1.00800           0
     32053 TIP3     2579     TIP3     OH2      OT      -0.834000       15.9994           0
     32054 TIP3     2579     TIP3     H1       HT       0.417000       1.00800           0
     32055 TIP3     2579     TIP3     H2       HT       0.417000       1.00800           0
     32056 TIP3     2580     TIP3     OH2      OT      -0.834000       15.9994           0
     32057 TIP3     2580     TIP3     H1       HT       0.417000       1.00800           0
     32058 TIP3     2580     TIP3     H2       HT       0.417000       1.00800           0
     32059 TIP3     2581     TIP3     OH2      OT      -0.834000       15.9994           0
     32060 TIP3     2581     TIP3     H1       HT       0.417000       1.00800           0
     32061 TIP3     2581     TIP3     H2       HT       0.417000       1.00800           0
     32062 TIP3     2582     TIP3     OH2      OT      -0.834000       15.9994           0
     32063 TIP3     2582     TIP3     H1       HT       0.417000       1.00800           0
     32064 TIP3     2582     TIP3     H2       HT       0.417000       1.00800           0
     32065 TIP3     2583     TIP3     OH2      OT      -0.834000       15.9994           0
     32066 TIP3     2583     TIP3     H1       HT       0.417000       1.00800           0
     32067 TIP3     2583     TIP3     H2       HT       0.417000       1.00800           0
     32068 TIP3     2584     TIP3     OH2      OT      -0.834000       15.9994           0
     32069 TIP3     2584     TIP3     H1       HT       0.417000       1.00800           0
     32070 TIP3     2584     TIP3     H2       HT       0.417000       1.00800           0
     32071 TIP3     2585     TIP3     OH2      OT      -0.834000       15.9994           0
     32072 TIP3     2585     TIP3     H1       HT       0.417000       1.00800           0
     32073 TIP3     2585     TIP3     H2       HT       0.417000       1.00800           0
     32074 TIP3     2586     TIP3     OH2      OT      -0.834000       15.9994           0
     32075 TIP3     2586     TIP3     H1       HT       0.417000       1.00800           0
     32076 TIP3     2586     TIP3     H2       HT       0.417000       1.00800           0
     32077 TIP3     2587     TIP3     OH2      OT      -0.834000       15.9994           0
     32078 TIP3     2587     TIP3     H1       HT       0.417000       1.00800           0
     32079 TIP3     2587     TIP3     H2       HT       0.417000       1.00800           0
     32080 TIP3     2588     TIP3     OH2      OT      -0.834000       15.9994           0
     32081 TIP3     2588     TIP3     H1       HT       0.417000       1.00800           0
     32082 TIP3     2588     TIP3     H2       HT       0.417000       1.00800           0
     32083 TIP3     2589     TIP3     OH2      OT      -0.834000       15.9994           0
     32084 TIP3     2589     TIP3     H1       HT       0.417000       1.00800           0
     32085 TIP3     2589     TIP3     H2       HT       0.417000       1.00800           0
     32086 TIP3     2590     TIP3     OH2      OT      -0.834000       15.9994           0
     32087 TIP3     2590     TIP3     H1       HT       0.417000       1.00800           0
     32088 TIP3     2590     TIP3     H2       HT       0.417000       1.00800           0
     32089 TIP3     2591     TIP3     OH2      OT      -0.834000       15.9994           0
     32090 TIP3     2591     TIP3     H1       HT       0.417000       1.00800           0
     32091 TIP3     2591     TIP3     H2       HT       0.417000       1.00800           0
     32092 TIP3     2592     TIP3     OH2      OT      -0.834000       15.9994           0
     32093 TIP3     2592     TIP3     H1       HT       0.417000       1.00800           0
     32094 TIP3     2592     TIP3     H2       HT       0.417000       1.00800           0
     32095 TIP3     2593     TIP3     OH2      OT      -0.834000       15.9994           0
     32096 TIP3     2593     TIP3     H1       HT       0.417000       1.00800           0
     32097 TIP3     2593     TIP3     H2       HT       0.417000       1.00800           0
     32098 TIP3     2594     TIP3     OH2      OT      -0.834000       15.9994           0
     32099 TIP3     2594     TIP3     H1       HT       0.417000       1.00800           0
     32100 TIP3     2594     TIP3     H2       HT       0.417000       1.00800           0
     32101 TIP3     2595     TIP3     OH2      OT      -0.834000       15.9994           0
     32102 TIP3     2595     TIP3     H1       HT       0.417000       1.00800           0
     32103 TIP3     2595     TIP3     H2       HT       0.417000       1.00800           0
     32104 TIP3     2596     TIP3     OH2      OT      -0.834000       15.9994           0
     32105 TIP3     2596     TIP3     H1       HT       0.417000       1.00800           0
     32106 TIP3     2596     TIP3     H2       HT       0.417000       1.00800           0
     32107 TIP3     2597     TIP3     OH2      OT      -0.834000       15.9994           0
     32108 TIP3     2597     TIP3     H1       HT       0.417000       1.00800           0
     32109 TIP3     2597     TIP3     H2       HT       0.417000       1.00800           0
     32110 TIP3     2598     TIP3     OH2      OT      -0.834000       15.9994           0
     32111 TIP3     2598     TIP3     H1       HT       0.417000       1.00800           0
     32112 TIP3     2598     TIP3     H2       HT       0.417000       1.00800           0
     32113 TIP3     2599     TIP3     OH2      OT      -0.834000       15.9994           0
     32114 TIP3     2599     TIP3     H1       HT       0.417000       1.00800           0
     32115 TIP3     2599     TIP3     H2       HT       0.417000       1.00800           0
     32116 TIP3     2600     TIP3     OH2      OT      -0.834000       15.9994           0
     32117 TIP3     2600     TIP3     H1       HT       0.417000       1.00800           0
     32118 TIP3     2600     TIP3     H2       HT       0.417000       1.00800           0
     32119 TIP3     2601     TIP3     OH2      OT      -0.834000       15.9994           0
     32120 TIP3     2601     TIP3     H1       HT       0.417000       1.00800           0
     32121 TIP3     2601     TIP3     H2       HT       0.417000       1.00800           0
     32122 TIP3     2602     TIP3     OH2      OT      -0.834000       15.9994           0
     32123 TIP3     2602     TIP3     H1       HT       0.417000       1.00800           0
     32124 TIP3     2602     TIP3     H2       HT       0.417000       1.00800           0
     32125 TIP3     2603     TIP3     OH2      OT      -0.834000       15.9994           0
     32126 TIP3     2603     TIP3     H1       HT       0.417000       1.00800           0
     32127 TIP3     2603     TIP3     H2       HT       0.417000       1.00800           0
     32128 TIP3     2604     TIP3     OH2      OT      -0.834000       15.9994           0
     32129 TIP3     2604     TIP3     H1       HT       0.417000       1.00800           0
     32130 TIP3     2604     TIP3     H2       HT       0.417000       1.00800           0
     32131 TIP3     2605     TIP3     OH2      OT      -0.834000       15.9994           0
     32132 TIP3     2605     TIP3     H1       HT       0.417000       1.00800           0
     32133 TIP3     2605     TIP3     H2       HT       0.417000       1.00800           0
     32134 TIP3     2606     TIP3     OH2      OT      -0.834000       15.9994           0
     32135 TIP3     2606     TIP3     H1       HT       0.417000       1.00800           0
     32136 TIP3     2606     TIP3     H2       HT       0.417000       1.00800           0
     32137 TIP3     2607     TIP3     OH2      OT      -0.834000       15.9994           0
     32138 TIP3     2607     TIP3     H1       HT       0.417000       1.00800           0
     32139 TIP3     2607     TIP3     H2       HT       0.417000       1.00800           0
     32140 TIP3     2608     TIP3     OH2      OT      -0.834000       15.9994           0
     32141 TIP3     2608     TIP3     H1       HT       0.417000       1.00800           0
     32142 TIP3     2608     TIP3     H2       HT       0.417000       1.00800           0
     32143 TIP3     2609     TIP3     OH2      OT      -0.834000       15.9994           0
     32144 TIP3     2609     TIP3     H1       HT       0.417000       1.00800           0
     32145 TIP3     2609     TIP3     H2       HT       0.417000       1.00800           0
     32146 TIP3     2610     TIP3     OH2      OT      -0.834000       15.9994           0
     32147 TIP3     2610     TIP3     H1       HT       0.417000       1.00800           0
     32148 TIP3     2610     TIP3     H2       HT       0.417000       1.00800           0
     32149 TIP3     2611     TIP3     OH2      OT      -0.834000       15.9994           0
     32150 TIP3     2611     TIP3     H1       HT       0.417000       1.00800           0
     32151 TIP3     2611     TIP3     H2       HT       0.417000       1.00800           0
     32152 TIP3     2612     TIP3     OH2      OT      -0.834000       15.9994           0
     32153 TIP3     2612     TIP3     H1       HT       0.417000       1.00800           0
     32154 TIP3     2612     TIP3     H2       HT       0.417000       1.00800           0
     32155 TIP3     2613     TIP3     OH2      OT      -0.834000       15.9994           0
     32156 TIP3     2613     TIP3     H1       HT       0.417000       1.00800           0
     32157 TIP3     2613     TIP3     H2       HT       0.417000       1.00800           0
     32158 TIP3     2614     TIP3     OH2      OT      -0.834000       15.9994           0
     32159 TIP3     2614     TIP3     H1       HT       0.417000       1.00800           0
     32160 TIP3     2614     TIP3     H2       HT       0.417000       1.00800           0
     32161 TIP3     2615     TIP3     OH2      OT      -0.834000       15.9994           0
     32162 TIP3     2615     TIP3     H1       HT       0.417000       1.00800           0
     32163 TIP3     2615     TIP3     H2       HT       0.417000       1.00800           0
     32164 TIP3     2616     TIP3     OH2      OT      -0.834000       15.9994           0
     32165 TIP3     2616     TIP3     H1       HT       0.417000       1.00800           0
     32166 TIP3     2616     TIP3     H2       HT       0.417000       1.00800           0
     32167 TIP3     2617     TIP3     OH2      OT      -0.834000       15.9994           0
     32168 TIP3     2617     TIP3     H1       HT       0.417000       1.00800           0
     32169 TIP3     2617     TIP3     H2       HT       0.417000       1.00800           0
     32170 TIP3     2618     TIP3     OH2      OT      -0.834000       15.9994           0
     32171 TIP3     2618     TIP3     H1       HT       0.417000       1.00800           0
     32172 TIP3     2618     TIP3     H2       HT       0.417000       1.00800           0
     32173 TIP3     2619     TIP3     OH2      OT      -0.834000       15.9994           0
     32174 TIP3     2619     TIP3     H1       HT       0.417000       1.00800           0
     32175 TIP3     2619     TIP3     H2       HT       0.417000       1.00800           0
     32176 TIP3     2620     TIP3     OH2      OT      -0.834000       15.9994           0
     32177 TIP3     2620     TIP3     H1       HT       0.417000       1.00800           0
     32178 TIP3     2620     TIP3     H2       HT       0.417000       1.00800           0
     32179 TIP3     2621     TIP3     OH2      OT      -0.834000       15.9994           0
     32180 TIP3     2621     TIP3     H1       HT       0.417000       1.00800           0
     32181 TIP3     2621     TIP3     H2       HT       0.417000       1.00800           0
     32182 TIP3     2622     TIP3     OH2      OT      -0.834000       15.9994           0
     32183 TIP3     2622     TIP3     H1       HT       0.417000       1.00800           0
     32184 TIP3     2622     TIP3     H2       HT       0.417000       1.00800           0
     32185 TIP3     2623     TIP3     OH2      OT      -0.834000       15.9994           0
     32186 TIP3     2623     TIP3     H1       HT       0.417000       1.00800           0
     32187 TIP3     2623     TIP3     H2       HT       0.417000       1.00800           0
     32188 TIP3     2624     TIP3     OH2      OT      -0.834000       15.9994           0
     32189 TIP3     2624     TIP3     H1       HT       0.417000       1.00800           0
     32190 TIP3     2624     TIP3     H2       HT       0.417000       1.00800           0
     32191 TIP3     2625     TIP3     OH2      OT      -0.834000       15.9994           0
     32192 TIP3     2625     TIP3     H1       HT       0.417000       1.00800           0
     32193 TIP3     2625     TIP3     H2       HT       0.417000       1.00800           0
     32194 TIP3     2626     TIP3     OH2      OT      -0.834000       15.9994           0
     32195 TIP3     2626     TIP3     H1       HT       0.417000       1.00800           0
     32196 TIP3     2626     TIP3     H2       HT       0.417000       1.00800           0
     32197 TIP3     2627     TIP3     OH2      OT      -0.834000       15.9994           0
     32198 TIP3     2627     TIP3     H1       HT       0.417000       1.00800           0
     32199 TIP3     2627     TIP3     H2       HT       0.417000       1.00800           0
     32200 TIP3     2628     TIP3     OH2      OT      -0.834000       15.9994           0
     32201 TIP3     2628     TIP3     H1       HT       0.417000       1.00800           0
     32202 TIP3     2628     TIP3     H2       HT       0.417000       1.00800           0
     32203 TIP3     2629     TIP3     OH2      OT      -0.834000       15.9994           0
     32204 TIP3     2629     TIP3     H1       HT       0.417000       1.00800           0
     32205 TIP3     2629     TIP3     H2       HT       0.417000       1.00800           0
     32206 TIP3     2630     TIP3     OH2      OT      -0.834000       15.9994           0
     32207 TIP3     2630     TIP3     H1       HT       0.417000       1.00800           0
     32208 TIP3     2630     TIP3     H2       HT       0.417000       1.00800           0
     32209 TIP3     2631     TIP3     OH2      OT      -0.834000       15.9994           0
     32210 TIP3     2631     TIP3     H1       HT       0.417000       1.00800           0
     32211 TIP3     2631     TIP3     H2       HT       0.417000       1.00800           0
     32212 TIP3     2632     TIP3     OH2      OT      -0.834000       15.9994           0
     32213 TIP3     2632     TIP3     H1       HT       0.417000       1.00800           0
     32214 TIP3     2632     TIP3     H2       HT       0.417000       1.00800           0
     32215 TIP3     2633     TIP3     OH2      OT      -0.834000       15.9994           0
     32216 TIP3     2633     TIP3     H1       HT       0.417000       1.00800           0
     32217 TIP3     2633     TIP3     H2       HT       0.417000       1.00800           0
     32218 TIP3     2634     TIP3     OH2      OT      -0.834000       15.9994           0
     32219 TIP3     2634     TIP3     H1       HT       0.417000       1.00800           0
     32220 TIP3     2634     TIP3     H2       HT       0.417000       1.00800           0
     32221 TIP3     2635     TIP3     OH2      OT      -0.834000       15.9994           0
     32222 TIP3     2635     TIP3     H1       HT       0.417000       1.00800           0
     32223 TIP3     2635     TIP3     H2       HT       0.417000       1.00800           0
     32224 TIP3     2636     TIP3     OH2      OT      -0.834000       15.9994           0
     32225 TIP3     2636     TIP3     H1       HT       0.417000       1.00800           0
     32226 TIP3     2636     TIP3     H2       HT       0.417000       1.00800           0
     32227 TIP3     2637     TIP3     OH2      OT      -0.834000       15.9994           0
     32228 TIP3     2637     TIP3     H1       HT       0.417000       1.00800           0
     32229 TIP3     2637     TIP3     H2       HT       0.417000       1.00800           0
     32230 TIP3     2638     TIP3     OH2      OT      -0.834000       15.9994           0
     32231 TIP3     2638     TIP3     H1       HT       0.417000       1.00800           0
     32232 TIP3     2638     TIP3     H2       HT       0.417000       1.00800           0
     32233 TIP3     2639     TIP3     OH2      OT      -0.834000       15.9994           0
     32234 TIP3     2639     TIP3     H1       HT       0.417000       1.00800           0
     32235 TIP3     2639     TIP3     H2       HT       0.417000       1.00800           0
     32236 TIP3     2640     TIP3     OH2      OT      -0.834000       15.9994           0
     32237 TIP3     2640     TIP3     H1       HT       0.417000       1.00800           0
     32238 TIP3     2640     TIP3     H2       HT       0.417000       1.00800           0
     32239 TIP3     2641     TIP3     OH2      OT      -0.834000       15.9994           0
     32240 TIP3     2641     TIP3     H1       HT       0.417000       1.00800           0
     32241 TIP3     2641     TIP3     H2       HT       0.417000       1.00800           0
     32242 TIP3     2642     TIP3     OH2      OT      -0.834000       15.9994           0
     32243 TIP3     2642     TIP3     H1       HT       0.417000       1.00800           0
     32244 TIP3     2642     TIP3     H2       HT       0.417000       1.00800           0
     32245 TIP3     2643     TIP3     OH2      OT      -0.834000       15.9994           0
     32246 TIP3     2643     TIP3     H1       HT       0.417000       1.00800           0
     32247 TIP3     2643     TIP3     H2       HT       0.417000       1.00800           0
     32248 TIP3     2644     TIP3     OH2      OT      -0.834000       15.9994           0
     32249 TIP3     2644     TIP3     H1       HT       0.417000       1.00800           0
     32250 TIP3     2644     TIP3     H2       HT       0.417000       1.00800           0
     32251 TIP3     2645     TIP3     OH2      OT      -0.834000       15.9994           0
     32252 TIP3     2645     TIP3     H1       HT       0.417000       1.00800           0
     32253 TIP3     2645     TIP3     H2       HT       0.417000       1.00800           0
     32254 TIP3     2646     TIP3     OH2      OT      -0.834000       15.9994           0
     32255 TIP3     2646     TIP3     H1       HT       0.417000       1.00800           0
     32256 TIP3     2646     TIP3     H2       HT       0.417000       1.00800           0
     32257 TIP3     2647     TIP3     OH2      OT      -0.834000       15.9994           0
     32258 TIP3     2647     TIP3     H1       HT       0.417000       1.00800           0
     32259 TIP3     2647     TIP3     H2       HT       0.417000       1.00800           0
     32260 TIP3     2648     TIP3     OH2      OT      -0.834000       15.9994           0
     32261 TIP3     2648     TIP3     H1       HT       0.417000       1.00800           0
     32262 TIP3     2648     TIP3     H2       HT       0.417000       1.00800           0
     32263 TIP3     2649     TIP3     OH2      OT      -0.834000       15.9994           0
     32264 TIP3     2649     TIP3     H1       HT       0.417000       1.00800           0
     32265 TIP3     2649     TIP3     H2       HT       0.417000       1.00800           0
     32266 TIP3     2650     TIP3     OH2      OT      -0.834000       15.9994           0
     32267 TIP3     2650     TIP3     H1       HT       0.417000       1.00800           0
     32268 TIP3     2650     TIP3     H2       HT       0.417000       1.00800           0
     32269 TIP3     2651     TIP3     OH2      OT      -0.834000       15.9994           0
     32270 TIP3     2651     TIP3     H1       HT       0.417000       1.00800           0
     32271 TIP3     2651     TIP3     H2       HT       0.417000       1.00800           0
     32272 TIP3     2652     TIP3     OH2      OT      -0.834000       15.9994           0
     32273 TIP3     2652     TIP3     H1       HT       0.417000       1.00800           0
     32274 TIP3     2652     TIP3     H2       HT       0.417000       1.00800           0
     32275 TIP3     2653     TIP3     OH2      OT      -0.834000       15.9994           0
     32276 TIP3     2653     TIP3     H1       HT       0.417000       1.00800           0
     32277 TIP3     2653     TIP3     H2       HT       0.417000       1.00800           0
     32278 TIP3     2654     TIP3     OH2      OT      -0.834000       15.9994           0
     32279 TIP3     2654     TIP3     H1       HT       0.417000       1.00800           0
     32280 TIP3     2654     TIP3     H2       HT       0.417000       1.00800           0
     32281 TIP3     2655     TIP3     OH2      OT      -0.834000       15.9994           0
     32282 TIP3     2655     TIP3     H1       HT       0.417000       1.00800           0
     32283 TIP3     2655     TIP3     H2       HT       0.417000       1.00800           0
     32284 TIP3     2656     TIP3     OH2      OT      -0.834000       15.9994           0
     32285 TIP3     2656     TIP3     H1       HT       0.417000       1.00800           0
     32286 TIP3     2656     TIP3     H2       HT       0.417000       1.00800           0
     32287 TIP3     2657     TIP3     OH2      OT      -0.834000       15.9994           0
     32288 TIP3     2657     TIP3     H1       HT       0.417000       1.00800           0
     32289 TIP3     2657     TIP3     H2       HT       0.417000       1.00800           0
     32290 TIP3     2658     TIP3     OH2      OT      -0.834000       15.9994           0
     32291 TIP3     2658     TIP3     H1       HT       0.417000       1.00800           0
     32292 TIP3     2658     TIP3     H2       HT       0.417000       1.00800           0
     32293 TIP3     2659     TIP3     OH2      OT      -0.834000       15.9994           0
     32294 TIP3     2659     TIP3     H1       HT       0.417000       1.00800           0
     32295 TIP3     2659     TIP3     H2       HT       0.417000       1.00800           0
     32296 TIP3     2660     TIP3     OH2      OT      -0.834000       15.9994           0
     32297 TIP3     2660     TIP3     H1       HT       0.417000       1.00800           0
     32298 TIP3     2660     TIP3     H2       HT       0.417000       1.00800           0
     32299 TIP3     2661     TIP3     OH2      OT      -0.834000       15.9994           0
     32300 TIP3     2661     TIP3     H1       HT       0.417000       1.00800           0
     32301 TIP3     2661     TIP3     H2       HT       0.417000       1.00800           0
     32302 TIP3     2662     TIP3     OH2      OT      -0.834000       15.9994           0
     32303 TIP3     2662     TIP3     H1       HT       0.417000       1.00800           0
     32304 TIP3     2662     TIP3     H2       HT       0.417000       1.00800           0
     32305 TIP3     2663     TIP3     OH2      OT      -0.834000       15.9994           0
     32306 TIP3     2663     TIP3     H1       HT       0.417000       1.00800           0
     32307 TIP3     2663     TIP3     H2       HT       0.417000       1.00800           0
     32308 TIP3     2664     TIP3     OH2      OT      -0.834000       15.9994           0
     32309 TIP3     2664     TIP3     H1       HT       0.417000       1.00800           0
     32310 TIP3     2664     TIP3     H2       HT       0.417000       1.00800           0
     32311 TIP3     2665     TIP3     OH2      OT      -0.834000       15.9994           0
     32312 TIP3     2665     TIP3     H1       HT       0.417000       1.00800           0
     32313 TIP3     2665     TIP3     H2       HT       0.417000       1.00800           0
     32314 TIP3     2666     TIP3     OH2      OT      -0.834000       15.9994           0
     32315 TIP3     2666     TIP3     H1       HT       0.417000       1.00800           0
     32316 TIP3     2666     TIP3     H2       HT       0.417000       1.00800           0
     32317 TIP3     2667     TIP3     OH2      OT      -0.834000       15.9994           0
     32318 TIP3     2667     TIP3     H1       HT       0.417000       1.00800           0
     32319 TIP3     2667     TIP3     H2       HT       0.417000       1.00800           0
     32320 TIP3     2668     TIP3     OH2      OT      -0.834000       15.9994           0
     32321 TIP3     2668     TIP3     H1       HT       0.417000       1.00800           0
     32322 TIP3     2668     TIP3     H2       HT       0.417000       1.00800           0
     32323 TIP3     2669     TIP3     OH2      OT      -0.834000       15.9994           0
     32324 TIP3     2669     TIP3     H1       HT       0.417000       1.00800           0
     32325 TIP3     2669     TIP3     H2       HT       0.417000       1.00800           0
     32326 TIP3     2670     TIP3     OH2      OT      -0.834000       15.9994           0
     32327 TIP3     2670     TIP3     H1       HT       0.417000       1.00800           0
     32328 TIP3     2670     TIP3     H2       HT       0.417000       1.00800           0
     32329 TIP3     2671     TIP3     OH2      OT      -0.834000       15.9994           0
     32330 TIP3     2671     TIP3     H1       HT       0.417000       1.00800           0
     32331 TIP3     2671     TIP3     H2       HT       0.417000       1.00800           0
     32332 TIP3     2672     TIP3     OH2      OT      -0.834000       15.9994           0
     32333 TIP3     2672     TIP3     H1       HT       0.417000       1.00800           0
     32334 TIP3     2672     TIP3     H2       HT       0.417000       1.00800           0
     32335 TIP3     2673     TIP3     OH2      OT      -0.834000       15.9994           0
     32336 TIP3     2673     TIP3     H1       HT       0.417000       1.00800           0
     32337 TIP3     2673     TIP3     H2       HT       0.417000       1.00800           0
     32338 TIP3     2674     TIP3     OH2      OT      -0.834000       15.9994           0
     32339 TIP3     2674     TIP3     H1       HT       0.417000       1.00800           0
     32340 TIP3     2674     TIP3     H2       HT       0.417000       1.00800           0
     32341 TIP3     2675     TIP3     OH2      OT      -0.834000       15.9994           0
     32342 TIP3     2675     TIP3     H1       HT       0.417000       1.00800           0
     32343 TIP3     2675     TIP3     H2       HT       0.417000       1.00800           0
     32344 TIP3     2676     TIP3     OH2      OT      -0.834000       15.9994           0
     32345 TIP3     2676     TIP3     H1       HT       0.417000       1.00800           0
     32346 TIP3     2676     TIP3     H2       HT       0.417000       1.00800           0
     32347 TIP3     2677     TIP3     OH2      OT      -0.834000       15.9994           0
     32348 TIP3     2677     TIP3     H1       HT       0.417000       1.00800           0
     32349 TIP3     2677     TIP3     H2       HT       0.417000       1.00800           0
     32350 TIP3     2678     TIP3     OH2      OT      -0.834000       15.9994           0
     32351 TIP3     2678     TIP3     H1       HT       0.417000       1.00800           0
     32352 TIP3     2678     TIP3     H2       HT       0.417000       1.00800           0
     32353 TIP3     2679     TIP3     OH2      OT      -0.834000       15.9994           0
     32354 TIP3     2679     TIP3     H1       HT       0.417000       1.00800           0
     32355 TIP3     2679     TIP3     H2       HT       0.417000       1.00800           0
     32356 TIP3     2680     TIP3     OH2      OT      -0.834000       15.9994           0
     32357 TIP3     2680     TIP3     H1       HT       0.417000       1.00800           0
     32358 TIP3     2680     TIP3     H2       HT       0.417000       1.00800           0
     32359 TIP3     2681     TIP3     OH2      OT      -0.834000       15.9994           0
     32360 TIP3     2681     TIP3     H1       HT       0.417000       1.00800           0
     32361 TIP3     2681     TIP3     H2       HT       0.417000       1.00800           0
     32362 TIP3     2682     TIP3     OH2      OT      -0.834000       15.9994           0
     32363 TIP3     2682     TIP3     H1       HT       0.417000       1.00800           0
     32364 TIP3     2682     TIP3     H2       HT       0.417000       1.00800           0
     32365 TIP3     2683     TIP3     OH2      OT      -0.834000       15.9994           0
     32366 TIP3     2683     TIP3     H1       HT       0.417000       1.00800           0
     32367 TIP3     2683     TIP3     H2       HT       0.417000       1.00800           0
     32368 TIP3     2684     TIP3     OH2      OT      -0.834000       15.9994           0
     32369 TIP3     2684     TIP3     H1       HT       0.417000       1.00800           0
     32370 TIP3     2684     TIP3     H2       HT       0.417000       1.00800           0
     32371 TIP3     2685     TIP3     OH2      OT      -0.834000       15.9994           0
     32372 TIP3     2685     TIP3     H1       HT       0.417000       1.00800           0
     32373 TIP3     2685     TIP3     H2       HT       0.417000       1.00800           0
     32374 TIP3     2686     TIP3     OH2      OT      -0.834000       15.9994           0
     32375 TIP3     2686     TIP3     H1       HT       0.417000       1.00800           0
     32376 TIP3     2686     TIP3     H2       HT       0.417000       1.00800           0
     32377 TIP3     2687     TIP3     OH2      OT      -0.834000       15.9994           0
     32378 TIP3     2687     TIP3     H1       HT       0.417000       1.00800           0
     32379 TIP3     2687     TIP3     H2       HT       0.417000       1.00800           0
     32380 TIP3     2688     TIP3     OH2      OT      -0.834000       15.9994           0
     32381 TIP3     2688     TIP3     H1       HT       0.417000       1.00800           0
     32382 TIP3     2688     TIP3     H2       HT       0.417000       1.00800           0
     32383 TIP3     2689     TIP3     OH2      OT      -0.834000       15.9994           0
     32384 TIP3     2689     TIP3     H1       HT       0.417000       1.00800           0
     32385 TIP3     2689     TIP3     H2       HT       0.417000       1.00800           0
     32386 TIP3     2690     TIP3     OH2      OT      -0.834000       15.9994           0
     32387 TIP3     2690     TIP3     H1       HT       0.417000       1.00800           0
     32388 TIP3     2690     TIP3     H2       HT       0.417000       1.00800           0
     32389 TIP3     2691     TIP3     OH2      OT      -0.834000       15.9994           0
     32390 TIP3     2691     TIP3     H1       HT       0.417000       1.00800           0
     32391 TIP3     2691     TIP3     H2       HT       0.417000       1.00800           0
     32392 TIP3     2692     TIP3     OH2      OT      -0.834000       15.9994           0
     32393 TIP3     2692     TIP3     H1       HT       0.417000       1.00800           0
     32394 TIP3     2692     TIP3     H2       HT       0.417000       1.00800           0
     32395 TIP3     2693     TIP3     OH2      OT      -0.834000       15.9994           0
     32396 TIP3     2693     TIP3     H1       HT       0.417000       1.00800           0
     32397 TIP3     2693     TIP3     H2       HT       0.417000       1.00800           0
     32398 TIP3     2694     TIP3     OH2      OT      -0.834000       15.9994           0
     32399 TIP3     2694     TIP3     H1       HT       0.417000       1.00800           0
     32400 TIP3     2694     TIP3     H2       HT       0.417000       1.00800           0
     32401 TIP3     2695     TIP3     OH2      OT      -0.834000       15.9994           0
     32402 TIP3     2695     TIP3     H1       HT       0.417000       1.00800           0
     32403 TIP3     2695     TIP3     H2       HT       0.417000       1.00800           0
     32404 TIP3     2696     TIP3     OH2      OT      -0.834000       15.9994           0
     32405 TIP3     2696     TIP3     H1       HT       0.417000       1.00800           0
     32406 TIP3     2696     TIP3     H2       HT       0.417000       1.00800           0
     32407 TIP3     2697     TIP3     OH2      OT      -0.834000       15.9994           0
     32408 TIP3     2697     TIP3     H1       HT       0.417000       1.00800           0
     32409 TIP3     2697     TIP3     H2       HT       0.417000       1.00800           0
     32410 TIP3     2698     TIP3     OH2      OT      -0.834000       15.9994           0
     32411 TIP3     2698     TIP3     H1       HT       0.417000       1.00800           0
     32412 TIP3     2698     TIP3     H2       HT       0.417000       1.00800           0
     32413 TIP3     2699     TIP3     OH2      OT      -0.834000       15.9994           0
     32414 TIP3     2699     TIP3     H1       HT       0.417000       1.00800           0
     32415 TIP3     2699     TIP3     H2       HT       0.417000       1.00800           0
     32416 TIP3     2700     TIP3     OH2      OT      -0.834000       15.9994           0
     32417 TIP3     2700     TIP3     H1       HT       0.417000       1.00800           0
     32418 TIP3     2700     TIP3     H2       HT       0.417000       1.00800           0
     32419 TIP3     2701     TIP3     OH2      OT      -0.834000       15.9994           0
     32420 TIP3     2701     TIP3     H1       HT       0.417000       1.00800           0
     32421 TIP3     2701     TIP3     H2       HT       0.417000       1.00800           0
     32422 TIP3     2702     TIP3     OH2      OT      -0.834000       15.9994           0
     32423 TIP3     2702     TIP3     H1       HT       0.417000       1.00800           0
     32424 TIP3     2702     TIP3     H2       HT       0.417000       1.00800           0
     32425 TIP3     2703     TIP3     OH2      OT      -0.834000       15.9994           0
     32426 TIP3     2703     TIP3     H1       HT       0.417000       1.00800           0
     32427 TIP3     2703     TIP3     H2       HT       0.417000       1.00800           0
     32428 TIP3     2704     TIP3     OH2      OT      -0.834000       15.9994           0
     32429 TIP3     2704     TIP3     H1       HT       0.417000       1.00800           0
     32430 TIP3     2704     TIP3     H2       HT       0.417000       1.00800           0
     32431 TIP3     2705     TIP3     OH2      OT      -0.834000       15.9994           0
     32432 TIP3     2705     TIP3     H1       HT       0.417000       1.00800           0
     32433 TIP3     2705     TIP3     H2       HT       0.417000       1.00800           0
     32434 TIP3     2706     TIP3     OH2      OT      -0.834000       15.9994           0
     32435 TIP3     2706     TIP3     H1       HT       0.417000       1.00800           0
     32436 TIP3     2706     TIP3     H2       HT       0.417000       1.00800           0
     32437 TIP3     2707     TIP3     OH2      OT      -0.834000       15.9994           0
     32438 TIP3     2707     TIP3     H1       HT       0.417000       1.00800           0
     32439 TIP3     2707     TIP3     H2       HT       0.417000       1.00800           0
     32440 TIP3     2708     TIP3     OH2      OT      -0.834000       15.9994           0
     32441 TIP3     2708     TIP3     H1       HT       0.417000       1.00800           0
     32442 TIP3     2708     TIP3     H2       HT       0.417000       1.00800           0
     32443 TIP3     2709     TIP3     OH2      OT      -0.834000       15.9994           0
     32444 TIP3     2709     TIP3     H1       HT       0.417000       1.00800           0
     32445 TIP3     2709     TIP3     H2       HT       0.417000       1.00800           0
     32446 TIP3     2710     TIP3     OH2      OT      -0.834000       15.9994           0
     32447 TIP3     2710     TIP3     H1       HT       0.417000       1.00800           0
     32448 TIP3     2710     TIP3     H2       HT       0.417000       1.00800           0
     32449 TIP3     2711     TIP3     OH2      OT      -0.834000       15.9994           0
     32450 TIP3     2711     TIP3     H1       HT       0.417000       1.00800           0
     32451 TIP3     2711     TIP3     H2       HT       0.417000       1.00800           0
     32452 TIP3     2712     TIP3     OH2      OT      -0.834000       15.9994           0
     32453 TIP3     2712     TIP3     H1       HT       0.417000       1.00800           0
     32454 TIP3     2712     TIP3     H2       HT       0.417000       1.00800           0
     32455 TIP3     2713     TIP3     OH2      OT      -0.834000       15.9994           0
     32456 TIP3     2713     TIP3     H1       HT       0.417000       1.00800           0
     32457 TIP3     2713     TIP3     H2       HT       0.417000       1.00800           0
     32458 TIP3     2714     TIP3     OH2      OT      -0.834000       15.9994           0
     32459 TIP3     2714     TIP3     H1       HT       0.417000       1.00800           0
     32460 TIP3     2714     TIP3     H2       HT       0.417000       1.00800           0
     32461 TIP3     2715     TIP3     OH2      OT      -0.834000       15.9994           0
     32462 TIP3     2715     TIP3     H1       HT       0.417000       1.00800           0
     32463 TIP3     2715     TIP3     H2       HT       0.417000       1.00800           0
     32464 TIP3     2716     TIP3     OH2      OT      -0.834000       15.9994           0
     32465 TIP3     2716     TIP3     H1       HT       0.417000       1.00800           0
     32466 TIP3     2716     TIP3     H2       HT       0.417000       1.00800           0
     32467 TIP3     2717     TIP3     OH2      OT      -0.834000       15.9994           0
     32468 TIP3     2717     TIP3     H1       HT       0.417000       1.00800           0
     32469 TIP3     2717     TIP3     H2       HT       0.417000       1.00800           0
     32470 TIP3     2718     TIP3     OH2      OT      -0.834000       15.9994           0
     32471 TIP3     2718     TIP3     H1       HT       0.417000       1.00800           0
     32472 TIP3     2718     TIP3     H2       HT       0.417000       1.00800           0
     32473 TIP3     2719     TIP3     OH2      OT      -0.834000       15.9994           0
     32474 TIP3     2719     TIP3     H1       HT       0.417000       1.00800           0
     32475 TIP3     2719     TIP3     H2       HT       0.417000       1.00800           0
     32476 TIP3     2720     TIP3     OH2      OT      -0.834000       15.9994           0
     32477 TIP3     2720     TIP3     H1       HT       0.417000       1.00800           0
     32478 TIP3     2720     TIP3     H2       HT       0.417000       1.00800           0
     32479 TIP3     2721     TIP3     OH2      OT      -0.834000       15.9994           0
     32480 TIP3     2721     TIP3     H1       HT       0.417000       1.00800           0
     32481 TIP3     2721     TIP3     H2       HT       0.417000       1.00800           0
     32482 TIP3     2722     TIP3     OH2      OT      -0.834000       15.9994           0
     32483 TIP3     2722     TIP3     H1       HT       0.417000       1.00800           0
     32484 TIP3     2722     TIP3     H2       HT       0.417000       1.00800           0
     32485 TIP3     2723     TIP3     OH2      OT      -0.834000       15.9994           0
     32486 TIP3     2723     TIP3     H1       HT       0.417000       1.00800           0
     32487 TIP3     2723     TIP3     H2       HT       0.417000       1.00800           0
     32488 TIP3     2724     TIP3     OH2      OT      -0.834000       15.9994           0
     32489 TIP3     2724     TIP3     H1       HT       0.417000       1.00800           0
     32490 TIP3     2724     TIP3     H2       HT       0.417000       1.00800           0
     32491 TIP3     2725     TIP3     OH2      OT      -0.834000       15.9994           0
     32492 TIP3     2725     TIP3     H1       HT       0.417000       1.00800           0
     32493 TIP3     2725     TIP3     H2       HT       0.417000       1.00800           0
     32494 TIP3     2726     TIP3     OH2      OT      -0.834000       15.9994           0
     32495 TIP3     2726     TIP3     H1       HT       0.417000       1.00800           0
     32496 TIP3     2726     TIP3     H2       HT       0.417000       1.00800           0
     32497 TIP3     2727     TIP3     OH2      OT      -0.834000       15.9994           0
     32498 TIP3     2727     TIP3     H1       HT       0.417000       1.00800           0
     32499 TIP3     2727     TIP3     H2       HT       0.417000       1.00800           0
     32500 TIP3     2728     TIP3     OH2      OT      -0.834000       15.9994           0
     32501 TIP3     2728     TIP3     H1       HT       0.417000       1.00800           0
     32502 TIP3     2728     TIP3     H2       HT       0.417000       1.00800           0
     32503 TIP3     2729     TIP3     OH2      OT      -0.834000       15.9994           0
     32504 TIP3     2729     TIP3     H1       HT       0.417000       1.00800           0
     32505 TIP3     2729     TIP3     H2       HT       0.417000       1.00800           0
     32506 TIP3     2730     TIP3     OH2      OT      -0.834000       15.9994           0
     32507 TIP3     2730     TIP3     H1       HT       0.417000       1.00800           0
     32508 TIP3     2730     TIP3     H2       HT       0.417000       1.00800           0
     32509 TIP3     2731     TIP3     OH2      OT      -0.834000       15.9994           0
     32510 TIP3     2731     TIP3     H1       HT       0.417000       1.00800           0
     32511 TIP3     2731     TIP3     H2       HT       0.417000       1.00800           0
     32512 TIP3     2732     TIP3     OH2      OT      -0.834000       15.9994           0
     32513 TIP3     2732     TIP3     H1       HT       0.417000       1.00800           0
     32514 TIP3     2732     TIP3     H2       HT       0.417000       1.00800           0
     32515 TIP3     2733     TIP3     OH2      OT      -0.834000       15.9994           0
     32516 TIP3     2733     TIP3     H1       HT       0.417000       1.00800           0
     32517 TIP3     2733     TIP3     H2       HT       0.417000       1.00800           0
     32518 TIP3     2734     TIP3     OH2      OT      -0.834000       15.9994           0
     32519 TIP3     2734     TIP3     H1       HT       0.417000       1.00800           0
     32520 TIP3     2734     TIP3     H2       HT       0.417000       1.00800           0
     32521 TIP3     2735     TIP3     OH2      OT      -0.834000       15.9994           0
     32522 TIP3     2735     TIP3     H1       HT       0.417000       1.00800           0
     32523 TIP3     2735     TIP3     H2       HT       0.417000       1.00800           0
     32524 TIP3     2736     TIP3     OH2      OT      -0.834000       15.9994           0
     32525 TIP3     2736     TIP3     H1       HT       0.417000       1.00800           0
     32526 TIP3     2736     TIP3     H2       HT       0.417000       1.00800           0
     32527 TIP3     2737     TIP3     OH2      OT      -0.834000       15.9994           0
     32528 TIP3     2737     TIP3     H1       HT       0.417000       1.00800           0
     32529 TIP3     2737     TIP3     H2       HT       0.417000       1.00800           0
     32530 TIP3     2738     TIP3     OH2      OT      -0.834000       15.9994           0
     32531 TIP3     2738     TIP3     H1       HT       0.417000       1.00800           0
     32532 TIP3     2738     TIP3     H2       HT       0.417000       1.00800           0
     32533 TIP3     2739     TIP3     OH2      OT      -0.834000       15.9994           0
     32534 TIP3     2739     TIP3     H1       HT       0.417000       1.00800           0
     32535 TIP3     2739     TIP3     H2       HT       0.417000       1.00800           0
     32536 TIP3     2740     TIP3     OH2      OT      -0.834000       15.9994           0
     32537 TIP3     2740     TIP3     H1       HT       0.417000       1.00800           0
     32538 TIP3     2740     TIP3     H2       HT       0.417000       1.00800           0
     32539 TIP3     2741     TIP3     OH2      OT      -0.834000       15.9994           0
     32540 TIP3     2741     TIP3     H1       HT       0.417000       1.00800           0
     32541 TIP3     2741     TIP3     H2       HT       0.417000       1.00800           0
     32542 TIP3     2742     TIP3     OH2      OT      -0.834000       15.9994           0
     32543 TIP3     2742     TIP3     H1       HT       0.417000       1.00800           0
     32544 TIP3     2742     TIP3     H2       HT       0.417000       1.00800           0
     32545 TIP3     2743     TIP3     OH2      OT      -0.834000       15.9994           0
     32546 TIP3     2743     TIP3     H1       HT       0.417000       1.00800           0
     32547 TIP3     2743     TIP3     H2       HT       0.417000       1.00800           0
     32548 TIP3     2744     TIP3     OH2      OT      -0.834000       15.9994           0
     32549 TIP3     2744     TIP3     H1       HT       0.417000       1.00800           0
     32550 TIP3     2744     TIP3     H2       HT       0.417000       1.00800           0
     32551 TIP3     2745     TIP3     OH2      OT      -0.834000       15.9994           0
     32552 TIP3     2745     TIP3     H1       HT       0.417000       1.00800           0
     32553 TIP3     2745     TIP3     H2       HT       0.417000       1.00800           0
     32554 TIP3     2746     TIP3     OH2      OT      -0.834000       15.9994           0
     32555 TIP3     2746     TIP3     H1       HT       0.417000       1.00800           0
     32556 TIP3     2746     TIP3     H2       HT       0.417000       1.00800           0
     32557 TIP3     2747     TIP3     OH2      OT      -0.834000       15.9994           0
     32558 TIP3     2747     TIP3     H1       HT       0.417000       1.00800           0
     32559 TIP3     2747     TIP3     H2       HT       0.417000       1.00800           0
     32560 TIP3     2748     TIP3     OH2      OT      -0.834000       15.9994           0
     32561 TIP3     2748     TIP3     H1       HT       0.417000       1.00800           0
     32562 TIP3     2748     TIP3     H2       HT       0.417000       1.00800           0
     32563 TIP3     2749     TIP3     OH2      OT      -0.834000       15.9994           0
     32564 TIP3     2749     TIP3     H1       HT       0.417000       1.00800           0
     32565 TIP3     2749     TIP3     H2       HT       0.417000       1.00800           0
     32566 TIP3     2750     TIP3     OH2      OT      -0.834000       15.9994           0
     32567 TIP3     2750     TIP3     H1       HT       0.417000       1.00800           0
     32568 TIP3     2750     TIP3     H2       HT       0.417000       1.00800           0
     32569 TIP3     2751     TIP3     OH2      OT      -0.834000       15.9994           0
     32570 TIP3     2751     TIP3     H1       HT       0.417000       1.00800           0
     32571 TIP3     2751     TIP3     H2       HT       0.417000       1.00800           0
     32572 TIP3     2752     TIP3     OH2      OT      -0.834000       15.9994           0
     32573 TIP3     2752     TIP3     H1       HT       0.417000       1.00800           0
     32574 TIP3     2752     TIP3     H2       HT       0.417000       1.00800           0
     32575 TIP3     2753     TIP3     OH2      OT      -0.834000       15.9994           0
     32576 TIP3     2753     TIP3     H1       HT       0.417000       1.00800           0
     32577 TIP3     2753     TIP3     H2       HT       0.417000       1.00800           0
     32578 TIP3     2754     TIP3     OH2      OT      -0.834000       15.9994           0
     32579 TIP3     2754     TIP3     H1       HT       0.417000       1.00800           0
     32580 TIP3     2754     TIP3     H2       HT       0.417000       1.00800           0
     32581 TIP3     2755     TIP3     OH2      OT      -0.834000       15.9994           0
     32582 TIP3     2755     TIP3     H1       HT       0.417000       1.00800           0
     32583 TIP3     2755     TIP3     H2       HT       0.417000       1.00800           0
     32584 TIP3     2756     TIP3     OH2      OT      -0.834000       15.9994           0
     32585 TIP3     2756     TIP3     H1       HT       0.417000       1.00800           0
     32586 TIP3     2756     TIP3     H2       HT       0.417000       1.00800           0
     32587 TIP3     2757     TIP3     OH2      OT      -0.834000       15.9994           0
     32588 TIP3     2757     TIP3     H1       HT       0.417000       1.00800           0
     32589 TIP3     2757     TIP3     H2       HT       0.417000       1.00800           0
     32590 TIP3     2758     TIP3     OH2      OT      -0.834000       15.9994           0
     32591 TIP3     2758     TIP3     H1       HT       0.417000       1.00800           0
     32592 TIP3     2758     TIP3     H2       HT       0.417000       1.00800           0
     32593 TIP3     2759     TIP3     OH2      OT      -0.834000       15.9994           0
     32594 TIP3     2759     TIP3     H1       HT       0.417000       1.00800           0
     32595 TIP3     2759     TIP3     H2       HT       0.417000       1.00800           0
     32596 TIP3     2760     TIP3     OH2      OT      -0.834000       15.9994           0
     32597 TIP3     2760     TIP3     H1       HT       0.417000       1.00800           0
     32598 TIP3     2760     TIP3     H2       HT       0.417000       1.00800           0
     32599 TIP3     2761     TIP3     OH2      OT      -0.834000       15.9994           0
     32600 TIP3     2761     TIP3     H1       HT       0.417000       1.00800           0
     32601 TIP3     2761     TIP3     H2       HT       0.417000       1.00800           0
     32602 TIP3     2762     TIP3     OH2      OT      -0.834000       15.9994           0
     32603 TIP3     2762     TIP3     H1       HT       0.417000       1.00800           0
     32604 TIP3     2762     TIP3     H2       HT       0.417000       1.00800           0
     32605 TIP3     2763     TIP3     OH2      OT      -0.834000       15.9994           0
     32606 TIP3     2763     TIP3     H1       HT       0.417000       1.00800           0
     32607 TIP3     2763     TIP3     H2       HT       0.417000       1.00800           0
     32608 TIP3     2764     TIP3     OH2      OT      -0.834000       15.9994           0
     32609 TIP3     2764     TIP3     H1       HT       0.417000       1.00800           0
     32610 TIP3     2764     TIP3     H2       HT       0.417000       1.00800           0
     32611 TIP3     2765     TIP3     OH2      OT      -0.834000       15.9994           0
     32612 TIP3     2765     TIP3     H1       HT       0.417000       1.00800           0
     32613 TIP3     2765     TIP3     H2       HT       0.417000       1.00800           0
     32614 TIP3     2766     TIP3     OH2      OT      -0.834000       15.9994           0
     32615 TIP3     2766     TIP3     H1       HT       0.417000       1.00800           0
     32616 TIP3     2766     TIP3     H2       HT       0.417000       1.00800           0
     32617 TIP3     2767     TIP3     OH2      OT      -0.834000       15.9994           0
     32618 TIP3     2767     TIP3     H1       HT       0.417000       1.00800           0
     32619 TIP3     2767     TIP3     H2       HT       0.417000       1.00800           0
     32620 TIP3     2768     TIP3     OH2      OT      -0.834000       15.9994           0
     32621 TIP3     2768     TIP3     H1       HT       0.417000       1.00800           0
     32622 TIP3     2768     TIP3     H2       HT       0.417000       1.00800           0
     32623 TIP3     2769     TIP3     OH2      OT      -0.834000       15.9994           0
     32624 TIP3     2769     TIP3     H1       HT       0.417000       1.00800           0
     32625 TIP3     2769     TIP3     H2       HT       0.417000       1.00800           0
     32626 TIP3     2770     TIP3     OH2      OT      -0.834000       15.9994           0
     32627 TIP3     2770     TIP3     H1       HT       0.417000       1.00800           0
     32628 TIP3     2770     TIP3     H2       HT       0.417000       1.00800           0
     32629 TIP3     2771     TIP3     OH2      OT      -0.834000       15.9994           0
     32630 TIP3     2771     TIP3     H1       HT       0.417000       1.00800           0
     32631 TIP3     2771     TIP3     H2       HT       0.417000       1.00800           0
     32632 TIP3     2772     TIP3     OH2      OT      -0.834000       15.9994           0
     32633 TIP3     2772     TIP3     H1       HT       0.417000       1.00800           0
     32634 TIP3     2772     TIP3     H2       HT       0.417000       1.00800           0
     32635 TIP3     2773     TIP3     OH2      OT      -0.834000       15.9994           0
     32636 TIP3     2773     TIP3     H1       HT       0.417000       1.00800           0
     32637 TIP3     2773     TIP3     H2       HT       0.417000       1.00800           0
     32638 TIP3     2774     TIP3     OH2      OT      -0.834000       15.9994           0
     32639 TIP3     2774     TIP3     H1       HT       0.417000       1.00800           0
     32640 TIP3     2774     TIP3     H2       HT       0.417000       1.00800           0
     32641 TIP3     2775     TIP3     OH2      OT      -0.834000       15.9994           0
     32642 TIP3     2775     TIP3     H1       HT       0.417000       1.00800           0
     32643 TIP3     2775     TIP3     H2       HT       0.417000       1.00800           0
     32644 TIP3     2776     TIP3     OH2      OT      -0.834000       15.9994           0
     32645 TIP3     2776     TIP3     H1       HT       0.417000       1.00800           0
     32646 TIP3     2776     TIP3     H2       HT       0.417000       1.00800           0
     32647 TIP3     2777     TIP3     OH2      OT      -0.834000       15.9994           0
     32648 TIP3     2777     TIP3     H1       HT       0.417000       1.00800           0
     32649 TIP3     2777     TIP3     H2       HT       0.417000       1.00800           0
     32650 TIP3     2778     TIP3     OH2      OT      -0.834000       15.9994           0
     32651 TIP3     2778     TIP3     H1       HT       0.417000       1.00800           0
     32652 TIP3     2778     TIP3     H2       HT       0.417000       1.00800           0
     32653 TIP3     2779     TIP3     OH2      OT      -0.834000       15.9994           0
     32654 TIP3     2779     TIP3     H1       HT       0.417000       1.00800           0
     32655 TIP3     2779     TIP3     H2       HT       0.417000       1.00800           0
     32656 TIP3     2780     TIP3     OH2      OT      -0.834000       15.9994           0
     32657 TIP3     2780     TIP3     H1       HT       0.417000       1.00800           0
     32658 TIP3     2780     TIP3     H2       HT       0.417000       1.00800           0
     32659 TIP3     2781     TIP3     OH2      OT      -0.834000       15.9994           0
     32660 TIP3     2781     TIP3     H1       HT       0.417000       1.00800           0
     32661 TIP3     2781     TIP3     H2       HT       0.417000       1.00800           0
     32662 TIP3     2782     TIP3     OH2      OT      -0.834000       15.9994           0
     32663 TIP3     2782     TIP3     H1       HT       0.417000       1.00800           0
     32664 TIP3     2782     TIP3     H2       HT       0.417000       1.00800           0
     32665 TIP3     2783     TIP3     OH2      OT      -0.834000       15.9994           0
     32666 TIP3     2783     TIP3     H1       HT       0.417000       1.00800           0
     32667 TIP3     2783     TIP3     H2       HT       0.417000       1.00800           0
     32668 TIP3     2784     TIP3     OH2      OT      -0.834000       15.9994           0
     32669 TIP3     2784     TIP3     H1       HT       0.417000       1.00800           0
     32670 TIP3     2784     TIP3     H2       HT       0.417000       1.00800           0
     32671 TIP3     2785     TIP3     OH2      OT      -0.834000       15.9994           0
     32672 TIP3     2785     TIP3     H1       HT       0.417000       1.00800           0
     32673 TIP3     2785     TIP3     H2       HT       0.417000       1.00800           0
     32674 TIP3     2786     TIP3     OH2      OT      -0.834000       15.9994           0
     32675 TIP3     2786     TIP3     H1       HT       0.417000       1.00800           0
     32676 TIP3     2786     TIP3     H2       HT       0.417000       1.00800           0
     32677 TIP3     2787     TIP3     OH2      OT      -0.834000       15.9994           0
     32678 TIP3     2787     TIP3     H1       HT       0.417000       1.00800           0
     32679 TIP3     2787     TIP3     H2       HT       0.417000       1.00800           0
     32680 TIP3     2788     TIP3     OH2      OT      -0.834000       15.9994           0
     32681 TIP3     2788     TIP3     H1       HT       0.417000       1.00800           0
     32682 TIP3     2788     TIP3     H2       HT       0.417000       1.00800           0
     32683 TIP3     2789     TIP3     OH2      OT      -0.834000       15.9994           0
     32684 TIP3     2789     TIP3     H1       HT       0.417000       1.00800           0
     32685 TIP3     2789     TIP3     H2       HT       0.417000       1.00800           0
     32686 TIP3     2790     TIP3     OH2      OT      -0.834000       15.9994           0
     32687 TIP3     2790     TIP3     H1       HT       0.417000       1.00800           0
     32688 TIP3     2790     TIP3     H2       HT       0.417000       1.00800           0
     32689 TIP3     2791     TIP3     OH2      OT      -0.834000       15.9994           0
     32690 TIP3     2791     TIP3     H1       HT       0.417000       1.00800           0
     32691 TIP3     2791     TIP3     H2       HT       0.417000       1.00800           0
     32692 TIP3     2792     TIP3     OH2      OT      -0.834000       15.9994           0
     32693 TIP3     2792     TIP3     H1       HT       0.417000       1.00800           0
     32694 TIP3     2792     TIP3     H2       HT       0.417000       1.00800           0
     32695 TIP3     2793     TIP3     OH2      OT      -0.834000       15.9994           0
     32696 TIP3     2793     TIP3     H1       HT       0.417000       1.00800           0
     32697 TIP3     2793     TIP3     H2       HT       0.417000       1.00800           0
     32698 TIP3     2794     TIP3     OH2      OT      -0.834000       15.9994           0
     32699 TIP3     2794     TIP3     H1       HT       0.417000       1.00800           0
     32700 TIP3     2794     TIP3     H2       HT       0.417000       1.00800           0
     32701 TIP3     2795     TIP3     OH2      OT      -0.834000       15.9994           0
     32702 TIP3     2795     TIP3     H1       HT       0.417000       1.00800           0
     32703 TIP3     2795     TIP3     H2       HT       0.417000       1.00800           0
     32704 TIP3     2796     TIP3     OH2      OT      -0.834000       15.9994           0
     32705 TIP3     2796     TIP3     H1       HT       0.417000       1.00800           0
     32706 TIP3     2796     TIP3     H2       HT       0.417000       1.00800           0
     32707 TIP3     2797     TIP3     OH2      OT      -0.834000       15.9994           0
     32708 TIP3     2797     TIP3     H1       HT       0.417000       1.00800           0
     32709 TIP3     2797     TIP3     H2       HT       0.417000       1.00800           0
     32710 TIP3     2798     TIP3     OH2      OT      -0.834000       15.9994           0
     32711 TIP3     2798     TIP3     H1       HT       0.417000       1.00800           0
     32712 TIP3     2798     TIP3     H2       HT       0.417000       1.00800           0
     32713 TIP3     2799     TIP3     OH2      OT      -0.834000       15.9994           0
     32714 TIP3     2799     TIP3     H1       HT       0.417000       1.00800           0
     32715 TIP3     2799     TIP3     H2       HT       0.417000       1.00800           0
     32716 TIP3     2800     TIP3     OH2      OT      -0.834000       15.9994           0
     32717 TIP3     2800     TIP3     H1       HT       0.417000       1.00800           0
     32718 TIP3     2800     TIP3     H2       HT       0.417000       1.00800           0
     32719 TIP3     2801     TIP3     OH2      OT      -0.834000       15.9994           0
     32720 TIP3     2801     TIP3     H1       HT       0.417000       1.00800           0
     32721 TIP3     2801     TIP3     H2       HT       0.417000       1.00800           0
     32722 TIP3     2802     TIP3     OH2      OT      -0.834000       15.9994           0
     32723 TIP3     2802     TIP3     H1       HT       0.417000       1.00800           0
     32724 TIP3     2802     TIP3     H2       HT       0.417000       1.00800           0
     32725 TIP3     2803     TIP3     OH2      OT      -0.834000       15.9994           0
     32726 TIP3     2803     TIP3     H1       HT       0.417000       1.00800           0
     32727 TIP3     2803     TIP3     H2       HT       0.417000       1.00800           0
     32728 TIP3     2804     TIP3     OH2      OT      -0.834000       15.9994           0
     32729 TIP3     2804     TIP3     H1       HT       0.417000       1.00800           0
     32730 TIP3     2804     TIP3     H2       HT       0.417000       1.00800           0
     32731 TIP3     2805     TIP3     OH2      OT      -0.834000       15.9994           0
     32732 TIP3     2805     TIP3     H1       HT       0.417000       1.00800           0
     32733 TIP3     2805     TIP3     H2       HT       0.417000       1.00800           0
     32734 TIP3     2806     TIP3     OH2      OT      -0.834000       15.9994           0
     32735 TIP3     2806     TIP3     H1       HT       0.417000       1.00800           0
     32736 TIP3     2806     TIP3     H2       HT       0.417000       1.00800           0
     32737 TIP3     2807     TIP3     OH2      OT      -0.834000       15.9994           0
     32738 TIP3     2807     TIP3     H1       HT       0.417000       1.00800           0
     32739 TIP3     2807     TIP3     H2       HT       0.417000       1.00800           0
     32740 TIP3     2808     TIP3     OH2      OT      -0.834000       15.9994           0
     32741 TIP3     2808     TIP3     H1       HT       0.417000       1.00800           0
     32742 TIP3     2808     TIP3     H2       HT       0.417000       1.00800           0
     32743 TIP3     2809     TIP3     OH2      OT      -0.834000       15.9994           0
     32744 TIP3     2809     TIP3     H1       HT       0.417000       1.00800           0
     32745 TIP3     2809     TIP3     H2       HT       0.417000       1.00800           0
     32746 TIP3     2810     TIP3     OH2      OT      -0.834000       15.9994           0
     32747 TIP3     2810     TIP3     H1       HT       0.417000       1.00800           0
     32748 TIP3     2810     TIP3     H2       HT       0.417000       1.00800           0
     32749 TIP3     2811     TIP3     OH2      OT      -0.834000       15.9994           0
     32750 TIP3     2811     TIP3     H1       HT       0.417000       1.00800           0
     32751 TIP3     2811     TIP3     H2       HT       0.417000       1.00800           0
     32752 TIP3     2812     TIP3     OH2      OT      -0.834000       15.9994           0
     32753 TIP3     2812     TIP3     H1       HT       0.417000       1.00800           0
     32754 TIP3     2812     TIP3     H2       HT       0.417000       1.00800           0
     32755 TIP3     2813     TIP3     OH2      OT      -0.834000       15.9994           0
     32756 TIP3     2813     TIP3     H1       HT       0.417000       1.00800           0
     32757 TIP3     2813     TIP3     H2       HT       0.417000       1.00800           0
     32758 TIP3     2814     TIP3     OH2      OT      -0.834000       15.9994           0
     32759 TIP3     2814     TIP3     H1       HT       0.417000       1.00800           0
     32760 TIP3     2814     TIP3     H2       HT       0.417000       1.00800           0
     32761 TIP3     2815     TIP3     OH2      OT      -0.834000       15.9994           0
     32762 TIP3     2815     TIP3     H1       HT       0.417000       1.00800           0
     32763 TIP3     2815     TIP3     H2       HT       0.417000       1.00800           0
     32764 TIP3     2816     TIP3     OH2      OT      -0.834000       15.9994           0
     32765 TIP3     2816     TIP3     H1       HT       0.417000       1.00800           0
     32766 TIP3     2816     TIP3     H2       HT       0.417000       1.00800           0
     32767 TIP3     2817     TIP3     OH2      OT      -0.834000       15.9994           0
     32768 TIP3     2817     TIP3     H1       HT       0.417000       1.00800           0
     32769 TIP3     2817     TIP3     H2       HT       0.417000       1.00800           0
     32770 TIP3     2818     TIP3     OH2      OT      -0.834000       15.9994           0
     32771 TIP3     2818     TIP3     H1       HT       0.417000       1.00800           0
     32772 TIP3     2818     TIP3     H2       HT       0.417000       1.00800           0
     32773 TIP3     2819     TIP3     OH2      OT      -0.834000       15.9994           0
     32774 TIP3     2819     TIP3     H1       HT       0.417000       1.00800           0
     32775 TIP3     2819     TIP3     H2       HT       0.417000       1.00800           0
     32776 TIP3     2820     TIP3     OH2      OT      -0.834000       15.9994           0
     32777 TIP3     2820     TIP3     H1       HT       0.417000       1.00800           0
     32778 TIP3     2820     TIP3     H2       HT       0.417000       1.00800           0
     32779 TIP3     2821     TIP3     OH2      OT      -0.834000       15.9994           0
     32780 TIP3     2821     TIP3     H1       HT       0.417000       1.00800           0
     32781 TIP3     2821     TIP3     H2       HT       0.417000       1.00800           0
     32782 TIP3     2822     TIP3     OH2      OT      -0.834000       15.9994           0
     32783 TIP3     2822     TIP3     H1       HT       0.417000       1.00800           0
     32784 TIP3     2822     TIP3     H2       HT       0.417000       1.00800           0
     32785 TIP3     2823     TIP3     OH2      OT      -0.834000       15.9994           0
     32786 TIP3     2823     TIP3     H1       HT       0.417000       1.00800           0
     32787 TIP3     2823     TIP3     H2       HT       0.417000       1.00800           0
     32788 TIP3     2824     TIP3     OH2      OT      -0.834000       15.9994           0
     32789 TIP3     2824     TIP3     H1       HT       0.417000       1.00800           0
     32790 TIP3     2824     TIP3     H2       HT       0.417000       1.00800           0
     32791 TIP3     2825     TIP3     OH2      OT      -0.834000       15.9994           0
     32792 TIP3     2825     TIP3     H1       HT       0.417000       1.00800           0
     32793 TIP3     2825     TIP3     H2       HT       0.417000       1.00800           0
     32794 TIP3     2826     TIP3     OH2      OT      -0.834000       15.9994           0
     32795 TIP3     2826     TIP3     H1       HT       0.417000       1.00800           0
     32796 TIP3     2826     TIP3     H2       HT       0.417000       1.00800           0
     32797 TIP3     2827     TIP3     OH2      OT      -0.834000       15.9994           0
     32798 TIP3     2827     TIP3     H1       HT       0.417000       1.00800           0
     32799 TIP3     2827     TIP3     H2       HT       0.417000       1.00800           0
     32800 TIP3     2828     TIP3     OH2      OT      -0.834000       15.9994           0
     32801 TIP3     2828     TIP3     H1       HT       0.417000       1.00800           0
     32802 TIP3     2828     TIP3     H2       HT       0.417000       1.00800           0
     32803 TIP3     2829     TIP3     OH2      OT      -0.834000       15.9994           0
     32804 TIP3     2829     TIP3     H1       HT       0.417000       1.00800           0
     32805 TIP3     2829     TIP3     H2       HT       0.417000       1.00800           0
     32806 TIP3     2830     TIP3     OH2      OT      -0.834000       15.9994           0
     32807 TIP3     2830     TIP3     H1       HT       0.417000       1.00800           0
     32808 TIP3     2830     TIP3     H2       HT       0.417000       1.00800           0
     32809 TIP3     2831     TIP3     OH2      OT      -0.834000       15.9994           0
     32810 TIP3     2831     TIP3     H1       HT       0.417000       1.00800           0
     32811 TIP3     2831     TIP3     H2       HT       0.417000       1.00800           0
     32812 TIP3     2832     TIP3     OH2      OT      -0.834000       15.9994           0
     32813 TIP3     2832     TIP3     H1       HT       0.417000       1.00800           0
     32814 TIP3     2832     TIP3     H2       HT       0.417000       1.00800           0
     32815 TIP3     2833     TIP3     OH2      OT      -0.834000       15.9994           0
     32816 TIP3     2833     TIP3     H1       HT       0.417000       1.00800           0
     32817 TIP3     2833     TIP3     H2       HT       0.417000       1.00800           0
     32818 TIP3     2834     TIP3     OH2      OT      -0.834000       15.9994           0
     32819 TIP3     2834     TIP3     H1       HT       0.417000       1.00800           0
     32820 TIP3     2834     TIP3     H2       HT       0.417000       1.00800           0
     32821 TIP3     2835     TIP3     OH2      OT      -0.834000       15.9994           0
     32822 TIP3     2835     TIP3     H1       HT       0.417000       1.00800           0
     32823 TIP3     2835     TIP3     H2       HT       0.417000       1.00800           0
     32824 TIP3     2836     TIP3     OH2      OT      -0.834000       15.9994           0
     32825 TIP3     2836     TIP3     H1       HT       0.417000       1.00800           0
     32826 TIP3     2836     TIP3     H2       HT       0.417000       1.00800           0
     32827 TIP3     2837     TIP3     OH2      OT      -0.834000       15.9994           0
     32828 TIP3     2837     TIP3     H1       HT       0.417000       1.00800           0
     32829 TIP3     2837     TIP3     H2       HT       0.417000       1.00800           0
     32830 TIP3     2838     TIP3     OH2      OT      -0.834000       15.9994           0
     32831 TIP3     2838     TIP3     H1       HT       0.417000       1.00800           0
     32832 TIP3     2838     TIP3     H2       HT       0.417000       1.00800           0
     32833 TIP3     2839     TIP3     OH2      OT      -0.834000       15.9994           0
     32834 TIP3     2839     TIP3     H1       HT       0.417000       1.00800           0
     32835 TIP3     2839     TIP3     H2       HT       0.417000       1.00800           0
     32836 TIP3     2840     TIP3     OH2      OT      -0.834000       15.9994           0
     32837 TIP3     2840     TIP3     H1       HT       0.417000       1.00800           0
     32838 TIP3     2840     TIP3     H2       HT       0.417000       1.00800           0
     32839 TIP3     2841     TIP3     OH2      OT      -0.834000       15.9994           0
     32840 TIP3     2841     TIP3     H1       HT       0.417000       1.00800           0
     32841 TIP3     2841     TIP3     H2       HT       0.417000       1.00800           0
     32842 TIP3     2842     TIP3     OH2      OT      -0.834000       15.9994           0
     32843 TIP3     2842     TIP3     H1       HT       0.417000       1.00800           0
     32844 TIP3     2842     TIP3     H2       HT       0.417000       1.00800           0
     32845 TIP3     2843     TIP3     OH2      OT      -0.834000       15.9994           0
     32846 TIP3     2843     TIP3     H1       HT       0.417000       1.00800           0
     32847 TIP3     2843     TIP3     H2       HT       0.417000       1.00800           0
     32848 TIP3     2844     TIP3     OH2      OT      -0.834000       15.9994           0
     32849 TIP3     2844     TIP3     H1       HT       0.417000       1.00800           0
     32850 TIP3     2844     TIP3     H2       HT       0.417000       1.00800           0
     32851 TIP3     2845     TIP3     OH2      OT      -0.834000       15.9994           0
     32852 TIP3     2845     TIP3     H1       HT       0.417000       1.00800           0
     32853 TIP3     2845     TIP3     H2       HT       0.417000       1.00800           0
     32854 TIP3     2846     TIP3     OH2      OT      -0.834000       15.9994           0
     32855 TIP3     2846     TIP3     H1       HT       0.417000       1.00800           0
     32856 TIP3     2846     TIP3     H2       HT       0.417000       1.00800           0
     32857 TIP3     2847     TIP3     OH2      OT      -0.834000       15.9994           0
     32858 TIP3     2847     TIP3     H1       HT       0.417000       1.00800           0
     32859 TIP3     2847     TIP3     H2       HT       0.417000       1.00800           0
     32860 TIP3     2848     TIP3     OH2      OT      -0.834000       15.9994           0
     32861 TIP3     2848     TIP3     H1       HT       0.417000       1.00800           0
     32862 TIP3     2848     TIP3     H2       HT       0.417000       1.00800           0
     32863 TIP3     2849     TIP3     OH2      OT      -0.834000       15.9994           0
     32864 TIP3     2849     TIP3     H1       HT       0.417000       1.00800           0
     32865 TIP3     2849     TIP3     H2       HT       0.417000       1.00800           0
     32866 TIP3     2850     TIP3     OH2      OT      -0.834000       15.9994           0
     32867 TIP3     2850     TIP3     H1       HT       0.417000       1.00800           0
     32868 TIP3     2850     TIP3     H2       HT       0.417000       1.00800           0
     32869 TIP3     2851     TIP3     OH2      OT      -0.834000       15.9994           0
     32870 TIP3     2851     TIP3     H1       HT       0.417000       1.00800           0
     32871 TIP3     2851     TIP3     H2       HT       0.417000       1.00800           0
     32872 TIP3     2852     TIP3     OH2      OT      -0.834000       15.9994           0
     32873 TIP3     2852     TIP3     H1       HT       0.417000       1.00800           0
     32874 TIP3     2852     TIP3     H2       HT       0.417000       1.00800           0
     32875 TIP3     2853     TIP3     OH2      OT      -0.834000       15.9994           0
     32876 TIP3     2853     TIP3     H1       HT       0.417000       1.00800           0
     32877 TIP3     2853     TIP3     H2       HT       0.417000       1.00800           0
     32878 TIP3     2854     TIP3     OH2      OT      -0.834000       15.9994           0
     32879 TIP3     2854     TIP3     H1       HT       0.417000       1.00800           0
     32880 TIP3     2854     TIP3     H2       HT       0.417000       1.00800           0
     32881 TIP3     2855     TIP3     OH2      OT      -0.834000       15.9994           0
     32882 TIP3     2855     TIP3     H1       HT       0.417000       1.00800           0
     32883 TIP3     2855     TIP3     H2       HT       0.417000       1.00800           0
     32884 TIP3     2856     TIP3     OH2      OT      -0.834000       15.9994           0
     32885 TIP3     2856     TIP3     H1       HT       0.417000       1.00800           0
     32886 TIP3     2856     TIP3     H2       HT       0.417000       1.00800           0
     32887 TIP3     2857     TIP3     OH2      OT      -0.834000       15.9994           0
     32888 TIP3     2857     TIP3     H1       HT       0.417000       1.00800           0
     32889 TIP3     2857     TIP3     H2       HT       0.417000       1.00800           0
     32890 TIP3     2858     TIP3     OH2      OT      -0.834000       15.9994           0
     32891 TIP3     2858     TIP3     H1       HT       0.417000       1.00800           0
     32892 TIP3     2858     TIP3     H2       HT       0.417000       1.00800           0
     32893 TIP3     2859     TIP3     OH2      OT      -0.834000       15.9994           0
     32894 TIP3     2859     TIP3     H1       HT       0.417000       1.00800           0
     32895 TIP3     2859     TIP3     H2       HT       0.417000       1.00800           0
     32896 TIP3     2860     TIP3     OH2      OT      -0.834000       15.9994           0
     32897 TIP3     2860     TIP3     H1       HT       0.417000       1.00800           0
     32898 TIP3     2860     TIP3     H2       HT       0.417000       1.00800           0
     32899 TIP3     2861     TIP3     OH2      OT      -0.834000       15.9994           0
     32900 TIP3     2861     TIP3     H1       HT       0.417000       1.00800           0
     32901 TIP3     2861     TIP3     H2       HT       0.417000       1.00800           0
     32902 TIP3     2862     TIP3     OH2      OT      -0.834000       15.9994           0
     32903 TIP3     2862     TIP3     H1       HT       0.417000       1.00800           0
     32904 TIP3     2862     TIP3     H2       HT       0.417000       1.00800           0
     32905 TIP3     2863     TIP3     OH2      OT      -0.834000       15.9994           0
     32906 TIP3     2863     TIP3     H1       HT       0.417000       1.00800           0
     32907 TIP3     2863     TIP3     H2       HT       0.417000       1.00800           0
     32908 TIP3     2864     TIP3     OH2      OT      -0.834000       15.9994           0
     32909 TIP3     2864     TIP3     H1       HT       0.417000       1.00800           0
     32910 TIP3     2864     TIP3     H2       HT       0.417000       1.00800           0
     32911 TIP3     2865     TIP3     OH2      OT      -0.834000       15.9994           0
     32912 TIP3     2865     TIP3     H1       HT       0.417000       1.00800           0
     32913 TIP3     2865     TIP3     H2       HT       0.417000       1.00800           0
     32914 TIP3     2866     TIP3     OH2      OT      -0.834000       15.9994           0
     32915 TIP3     2866     TIP3     H1       HT       0.417000       1.00800           0
     32916 TIP3     2866     TIP3     H2       HT       0.417000       1.00800           0
     32917 TIP3     2867     TIP3     OH2      OT      -0.834000       15.9994           0
     32918 TIP3     2867     TIP3     H1       HT       0.417000       1.00800           0
     32919 TIP3     2867     TIP3     H2       HT       0.417000       1.00800           0
     32920 TIP3     2868     TIP3     OH2      OT      -0.834000       15.9994           0
     32921 TIP3     2868     TIP3     H1       HT       0.417000       1.00800           0
     32922 TIP3     2868     TIP3     H2       HT       0.417000       1.00800           0
     32923 TIP3     2869     TIP3     OH2      OT      -0.834000       15.9994           0
     32924 TIP3     2869     TIP3     H1       HT       0.417000       1.00800           0
     32925 TIP3     2869     TIP3     H2       HT       0.417000       1.00800           0
     32926 TIP3     2870     TIP3     OH2      OT      -0.834000       15.9994           0
     32927 TIP3     2870     TIP3     H1       HT       0.417000       1.00800           0
     32928 TIP3     2870     TIP3     H2       HT       0.417000       1.00800           0
     32929 TIP3     2871     TIP3     OH2      OT      -0.834000       15.9994           0
     32930 TIP3     2871     TIP3     H1       HT       0.417000       1.00800           0
     32931 TIP3     2871     TIP3     H2       HT       0.417000       1.00800           0
     32932 TIP3     2872     TIP3     OH2      OT      -0.834000       15.9994           0
     32933 TIP3     2872     TIP3     H1       HT       0.417000       1.00800           0
     32934 TIP3     2872     TIP3     H2       HT       0.417000       1.00800           0
     32935 TIP3     2873     TIP3     OH2      OT      -0.834000       15.9994           0
     32936 TIP3     2873     TIP3     H1       HT       0.417000       1.00800           0
     32937 TIP3     2873     TIP3     H2       HT       0.417000       1.00800           0
     32938 TIP3     2874     TIP3     OH2      OT      -0.834000       15.9994           0
     32939 TIP3     2874     TIP3     H1       HT       0.417000       1.00800           0
     32940 TIP3     2874     TIP3     H2       HT       0.417000       1.00800           0
     32941 TIP3     2875     TIP3     OH2      OT      -0.834000       15.9994           0
     32942 TIP3     2875     TIP3     H1       HT       0.417000       1.00800           0
     32943 TIP3     2875     TIP3     H2       HT       0.417000       1.00800           0
     32944 TIP3     2876     TIP3     OH2      OT      -0.834000       15.9994           0
     32945 TIP3     2876     TIP3     H1       HT       0.417000       1.00800           0
     32946 TIP3     2876     TIP3     H2       HT       0.417000       1.00800           0
     32947 TIP3     2877     TIP3     OH2      OT      -0.834000       15.9994           0
     32948 TIP3     2877     TIP3     H1       HT       0.417000       1.00800           0
     32949 TIP3     2877     TIP3     H2       HT       0.417000       1.00800           0
     32950 TIP3     2878     TIP3     OH2      OT      -0.834000       15.9994           0
     32951 TIP3     2878     TIP3     H1       HT       0.417000       1.00800           0
     32952 TIP3     2878     TIP3     H2       HT       0.417000       1.00800           0
     32953 TIP3     2879     TIP3     OH2      OT      -0.834000       15.9994           0
     32954 TIP3     2879     TIP3     H1       HT       0.417000       1.00800           0
     32955 TIP3     2879     TIP3     H2       HT       0.417000       1.00800           0
     32956 TIP3     2880     TIP3     OH2      OT      -0.834000       15.9994           0
     32957 TIP3     2880     TIP3     H1       HT       0.417000       1.00800           0
     32958 TIP3     2880     TIP3     H2       HT       0.417000       1.00800           0
     32959 TIP3     2881     TIP3     OH2      OT      -0.834000       15.9994           0
     32960 TIP3     2881     TIP3     H1       HT       0.417000       1.00800           0
     32961 TIP3     2881     TIP3     H2       HT       0.417000       1.00800           0
     32962 TIP3     2882     TIP3     OH2      OT      -0.834000       15.9994           0
     32963 TIP3     2882     TIP3     H1       HT       0.417000       1.00800           0
     32964 TIP3     2882     TIP3     H2       HT       0.417000       1.00800           0
     32965 TIP3     2883     TIP3     OH2      OT      -0.834000       15.9994           0
     32966 TIP3     2883     TIP3     H1       HT       0.417000       1.00800           0
     32967 TIP3     2883     TIP3     H2       HT       0.417000       1.00800           0
     32968 TIP3     2884     TIP3     OH2      OT      -0.834000       15.9994           0
     32969 TIP3     2884     TIP3     H1       HT       0.417000       1.00800           0
     32970 TIP3     2884     TIP3     H2       HT       0.417000       1.00800           0
     32971 TIP3     2885     TIP3     OH2      OT      -0.834000       15.9994           0
     32972 TIP3     2885     TIP3     H1       HT       0.417000       1.00800           0
     32973 TIP3     2885     TIP3     H2       HT       0.417000       1.00800           0
     32974 TIP3     2886     TIP3     OH2      OT      -0.834000       15.9994           0
     32975 TIP3     2886     TIP3     H1       HT       0.417000       1.00800           0
     32976 TIP3     2886     TIP3     H2       HT       0.417000       1.00800           0
     32977 TIP3     2887     TIP3     OH2      OT      -0.834000       15.9994           0
     32978 TIP3     2887     TIP3     H1       HT       0.417000       1.00800           0
     32979 TIP3     2887     TIP3     H2       HT       0.417000       1.00800           0
     32980 TIP3     2888     TIP3     OH2      OT      -0.834000       15.9994           0
     32981 TIP3     2888     TIP3     H1       HT       0.417000       1.00800           0
     32982 TIP3     2888     TIP3     H2       HT       0.417000       1.00800           0
     32983 TIP3     2889     TIP3     OH2      OT      -0.834000       15.9994           0
     32984 TIP3     2889     TIP3     H1       HT       0.417000       1.00800           0
     32985 TIP3     2889     TIP3     H2       HT       0.417000       1.00800           0
     32986 TIP3     2890     TIP3     OH2      OT      -0.834000       15.9994           0
     32987 TIP3     2890     TIP3     H1       HT       0.417000       1.00800           0
     32988 TIP3     2890     TIP3     H2       HT       0.417000       1.00800           0
     32989 TIP3     2891     TIP3     OH2      OT      -0.834000       15.9994           0
     32990 TIP3     2891     TIP3     H1       HT       0.417000       1.00800           0
     32991 TIP3     2891     TIP3     H2       HT       0.417000       1.00800           0
     32992 TIP3     2892     TIP3     OH2      OT      -0.834000       15.9994           0
     32993 TIP3     2892     TIP3     H1       HT       0.417000       1.00800           0
     32994 TIP3     2892     TIP3     H2       HT       0.417000       1.00800           0
     32995 TIP3     2893     TIP3     OH2      OT      -0.834000       15.9994           0
     32996 TIP3     2893     TIP3     H1       HT       0.417000       1.00800           0
     32997 TIP3     2893     TIP3     H2       HT       0.417000       1.00800           0
     32998 TIP3     2894     TIP3     OH2      OT      -0.834000       15.9994           0
     32999 TIP3     2894     TIP3     H1       HT       0.417000       1.00800           0
     33000 TIP3     2894     TIP3     H2       HT       0.417000       1.00800           0
     33001 TIP3     2895     TIP3     OH2      OT      -0.834000       15.9994           0
     33002 TIP3     2895     TIP3     H1       HT       0.417000       1.00800           0
     33003 TIP3     2895     TIP3     H2       HT       0.417000       1.00800           0
     33004 TIP3     2896     TIP3     OH2      OT      -0.834000       15.9994           0
     33005 TIP3     2896     TIP3     H1       HT       0.417000       1.00800           0
     33006 TIP3     2896     TIP3     H2       HT       0.417000       1.00800           0
     33007 TIP3     2897     TIP3     OH2      OT      -0.834000       15.9994           0
     33008 TIP3     2897     TIP3     H1       HT       0.417000       1.00800           0
     33009 TIP3     2897     TIP3     H2       HT       0.417000       1.00800           0
     33010 TIP3     2898     TIP3     OH2      OT      -0.834000       15.9994           0
     33011 TIP3     2898     TIP3     H1       HT       0.417000       1.00800           0
     33012 TIP3     2898     TIP3     H2       HT       0.417000       1.00800           0
     33013 TIP3     2899     TIP3     OH2      OT      -0.834000       15.9994           0
     33014 TIP3     2899     TIP3     H1       HT       0.417000       1.00800           0
     33015 TIP3     2899     TIP3     H2       HT       0.417000       1.00800           0
     33016 TIP3     2900     TIP3     OH2      OT      -0.834000       15.9994           0
     33017 TIP3     2900     TIP3     H1       HT       0.417000       1.00800           0
     33018 TIP3     2900     TIP3     H2       HT       0.417000       1.00800           0
     33019 TIP3     2901     TIP3     OH2      OT      -0.834000       15.9994           0
     33020 TIP3     2901     TIP3     H1       HT       0.417000       1.00800           0
     33021 TIP3     2901     TIP3     H2       HT       0.417000       1.00800           0
     33022 TIP3     2902     TIP3     OH2      OT      -0.834000       15.9994           0
     33023 TIP3     2902     TIP3     H1       HT       0.417000       1.00800           0
     33024 TIP3     2902     TIP3     H2       HT       0.417000       1.00800           0
     33025 TIP3     2903     TIP3     OH2      OT      -0.834000       15.9994           0
     33026 TIP3     2903     TIP3     H1       HT       0.417000       1.00800           0
     33027 TIP3     2903     TIP3     H2       HT       0.417000       1.00800           0
     33028 TIP3     2904     TIP3     OH2      OT      -0.834000       15.9994           0
     33029 TIP3     2904     TIP3     H1       HT       0.417000       1.00800           0
     33030 TIP3     2904     TIP3     H2       HT       0.417000       1.00800           0
     33031 TIP3     2905     TIP3     OH2      OT      -0.834000       15.9994           0
     33032 TIP3     2905     TIP3     H1       HT       0.417000       1.00800           0
     33033 TIP3     2905     TIP3     H2       HT       0.417000       1.00800           0
     33034 TIP3     2906     TIP3     OH2      OT      -0.834000       15.9994           0
     33035 TIP3     2906     TIP3     H1       HT       0.417000       1.00800           0
     33036 TIP3     2906     TIP3     H2       HT       0.417000       1.00800           0
     33037 TIP3     2907     TIP3     OH2      OT      -0.834000       15.9994           0
     33038 TIP3     2907     TIP3     H1       HT       0.417000       1.00800           0
     33039 TIP3     2907     TIP3     H2       HT       0.417000       1.00800           0
     33040 TIP3     2908     TIP3     OH2      OT      -0.834000       15.9994           0
     33041 TIP3     2908     TIP3     H1       HT       0.417000       1.00800           0
     33042 TIP3     2908     TIP3     H2       HT       0.417000       1.00800           0
     33043 TIP3     2909     TIP3     OH2      OT      -0.834000       15.9994           0
     33044 TIP3     2909     TIP3     H1       HT       0.417000       1.00800           0
     33045 TIP3     2909     TIP3     H2       HT       0.417000       1.00800           0
     33046 TIP3     2910     TIP3     OH2      OT      -0.834000       15.9994           0
     33047 TIP3     2910     TIP3     H1       HT       0.417000       1.00800           0
     33048 TIP3     2910     TIP3     H2       HT       0.417000       1.00800           0
     33049 TIP3     2911     TIP3     OH2      OT      -0.834000       15.9994           0
     33050 TIP3     2911     TIP3     H1       HT       0.417000       1.00800           0
     33051 TIP3     2911     TIP3     H2       HT       0.417000       1.00800           0
     33052 TIP3     2912     TIP3     OH2      OT      -0.834000       15.9994           0
     33053 TIP3     2912     TIP3     H1       HT       0.417000       1.00800           0
     33054 TIP3     2912     TIP3     H2       HT       0.417000       1.00800           0
     33055 TIP3     2913     TIP3     OH2      OT      -0.834000       15.9994           0
     33056 TIP3     2913     TIP3     H1       HT       0.417000       1.00800           0
     33057 TIP3     2913     TIP3     H2       HT       0.417000       1.00800           0
     33058 TIP3     2914     TIP3     OH2      OT      -0.834000       15.9994           0
     33059 TIP3     2914     TIP3     H1       HT       0.417000       1.00800           0
     33060 TIP3     2914     TIP3     H2       HT       0.417000       1.00800           0
     33061 TIP3     2915     TIP3     OH2      OT      -0.834000       15.9994           0
     33062 TIP3     2915     TIP3     H1       HT       0.417000       1.00800           0
     33063 TIP3     2915     TIP3     H2       HT       0.417000       1.00800           0
     33064 TIP3     2916     TIP3     OH2      OT      -0.834000       15.9994           0
     33065 TIP3     2916     TIP3     H1       HT       0.417000       1.00800           0
     33066 TIP3     2916     TIP3     H2       HT       0.417000       1.00800           0
     33067 TIP3     2917     TIP3     OH2      OT      -0.834000       15.9994           0
     33068 TIP3     2917     TIP3     H1       HT       0.417000       1.00800           0
     33069 TIP3     2917     TIP3     H2       HT       0.417000       1.00800           0
     33070 TIP3     2918     TIP3     OH2      OT      -0.834000       15.9994           0
     33071 TIP3     2918     TIP3     H1       HT       0.417000       1.00800           0
     33072 TIP3     2918     TIP3     H2       HT       0.417000       1.00800           0
     33073 TIP3     2919     TIP3     OH2      OT      -0.834000       15.9994           0
     33074 TIP3     2919     TIP3     H1       HT       0.417000       1.00800           0
     33075 TIP3     2919     TIP3     H2       HT       0.417000       1.00800           0
     33076 TIP3     2920     TIP3     OH2      OT      -0.834000       15.9994           0
     33077 TIP3     2920     TIP3     H1       HT       0.417000       1.00800           0
     33078 TIP3     2920     TIP3     H2       HT       0.417000       1.00800           0
     33079 TIP3     2921     TIP3     OH2      OT      -0.834000       15.9994           0
     33080 TIP3     2921     TIP3     H1       HT       0.417000       1.00800           0
     33081 TIP3     2921     TIP3     H2       HT       0.417000       1.00800           0
     33082 TIP3     2922     TIP3     OH2      OT      -0.834000       15.9994           0
     33083 TIP3     2922     TIP3     H1       HT       0.417000       1.00800           0
     33084 TIP3     2922     TIP3     H2       HT       0.417000       1.00800           0
     33085 TIP3     2923     TIP3     OH2      OT      -0.834000       15.9994           0
     33086 TIP3     2923     TIP3     H1       HT       0.417000       1.00800           0
     33087 TIP3     2923     TIP3     H2       HT       0.417000       1.00800           0
     33088 TIP3     2924     TIP3     OH2      OT      -0.834000       15.9994           0
     33089 TIP3     2924     TIP3     H1       HT       0.417000       1.00800           0
     33090 TIP3     2924     TIP3     H2       HT       0.417000       1.00800           0
     33091 TIP3     2925     TIP3     OH2      OT      -0.834000       15.9994           0
     33092 TIP3     2925     TIP3     H1       HT       0.417000       1.00800           0
     33093 TIP3     2925     TIP3     H2       HT       0.417000       1.00800           0
     33094 TIP3     2926     TIP3     OH2      OT      -0.834000       15.9994           0
     33095 TIP3     2926     TIP3     H1       HT       0.417000       1.00800           0
     33096 TIP3     2926     TIP3     H2       HT       0.417000       1.00800           0
     33097 TIP3     2927     TIP3     OH2      OT      -0.834000       15.9994           0
     33098 TIP3     2927     TIP3     H1       HT       0.417000       1.00800           0
     33099 TIP3     2927     TIP3     H2       HT       0.417000       1.00800           0
     33100 TIP3     2928     TIP3     OH2      OT      -0.834000       15.9994           0
     33101 TIP3     2928     TIP3     H1       HT       0.417000       1.00800           0
     33102 TIP3     2928     TIP3     H2       HT       0.417000       1.00800           0
     33103 TIP3     2929     TIP3     OH2      OT      -0.834000       15.9994           0
     33104 TIP3     2929     TIP3     H1       HT       0.417000       1.00800           0
     33105 TIP3     2929     TIP3     H2       HT       0.417000       1.00800           0
     33106 TIP3     2930     TIP3     OH2      OT      -0.834000       15.9994           0
     33107 TIP3     2930     TIP3     H1       HT       0.417000       1.00800           0
     33108 TIP3     2930     TIP3     H2       HT       0.417000       1.00800           0
     33109 TIP3     2931     TIP3     OH2      OT      -0.834000       15.9994           0
     33110 TIP3     2931     TIP3     H1       HT       0.417000       1.00800           0
     33111 TIP3     2931     TIP3     H2       HT       0.417000       1.00800           0
     33112 TIP3     2932     TIP3     OH2      OT      -0.834000       15.9994           0
     33113 TIP3     2932     TIP3     H1       HT       0.417000       1.00800           0
     33114 TIP3     2932     TIP3     H2       HT       0.417000       1.00800           0
     33115 TIP3     2933     TIP3     OH2      OT      -0.834000       15.9994           0
     33116 TIP3     2933     TIP3     H1       HT       0.417000       1.00800           0
     33117 TIP3     2933     TIP3     H2       HT       0.417000       1.00800           0
     33118 TIP3     2934     TIP3     OH2      OT      -0.834000       15.9994           0
     33119 TIP3     2934     TIP3     H1       HT       0.417000       1.00800           0
     33120 TIP3     2934     TIP3     H2       HT       0.417000       1.00800           0
     33121 TIP3     2935     TIP3     OH2      OT      -0.834000       15.9994           0
     33122 TIP3     2935     TIP3     H1       HT       0.417000       1.00800           0
     33123 TIP3     2935     TIP3     H2       HT       0.417000       1.00800           0
     33124 TIP3     2936     TIP3     OH2      OT      -0.834000       15.9994           0
     33125 TIP3     2936     TIP3     H1       HT       0.417000       1.00800           0
     33126 TIP3     2936     TIP3     H2       HT       0.417000       1.00800           0
     33127 TIP3     2937     TIP3     OH2      OT      -0.834000       15.9994           0
     33128 TIP3     2937     TIP3     H1       HT       0.417000       1.00800           0
     33129 TIP3     2937     TIP3     H2       HT       0.417000       1.00800           0
     33130 TIP3     2938     TIP3     OH2      OT      -0.834000       15.9994           0
     33131 TIP3     2938     TIP3     H1       HT       0.417000       1.00800           0
     33132 TIP3     2938     TIP3     H2       HT       0.417000       1.00800           0
     33133 TIP3     2939     TIP3     OH2      OT      -0.834000       15.9994           0
     33134 TIP3     2939     TIP3     H1       HT       0.417000       1.00800           0
     33135 TIP3     2939     TIP3     H2       HT       0.417000       1.00800           0
     33136 TIP3     2940     TIP3     OH2      OT      -0.834000       15.9994           0
     33137 TIP3     2940     TIP3     H1       HT       0.417000       1.00800           0
     33138 TIP3     2940     TIP3     H2       HT       0.417000       1.00800           0
     33139 TIP3     2941     TIP3     OH2      OT      -0.834000       15.9994           0
     33140 TIP3     2941     TIP3     H1       HT       0.417000       1.00800           0
     33141 TIP3     2941     TIP3     H2       HT       0.417000       1.00800           0
     33142 TIP3     2942     TIP3     OH2      OT      -0.834000       15.9994           0
     33143 TIP3     2942     TIP3     H1       HT       0.417000       1.00800           0
     33144 TIP3     2942     TIP3     H2       HT       0.417000       1.00800           0
     33145 TIP3     2943     TIP3     OH2      OT      -0.834000       15.9994           0
     33146 TIP3     2943     TIP3     H1       HT       0.417000       1.00800           0
     33147 TIP3     2943     TIP3     H2       HT       0.417000       1.00800           0
     33148 TIP3     2944     TIP3     OH2      OT      -0.834000       15.9994           0
     33149 TIP3     2944     TIP3     H1       HT       0.417000       1.00800           0
     33150 TIP3     2944     TIP3     H2       HT       0.417000       1.00800           0
     33151 TIP3     2945     TIP3     OH2      OT      -0.834000       15.9994           0
     33152 TIP3     2945     TIP3     H1       HT       0.417000       1.00800           0
     33153 TIP3     2945     TIP3     H2       HT       0.417000       1.00800           0
     33154 TIP3     2946     TIP3     OH2      OT      -0.834000       15.9994           0
     33155 TIP3     2946     TIP3     H1       HT       0.417000       1.00800           0
     33156 TIP3     2946     TIP3     H2       HT       0.417000       1.00800           0
     33157 TIP3     2947     TIP3     OH2      OT      -0.834000       15.9994           0
     33158 TIP3     2947     TIP3     H1       HT       0.417000       1.00800           0
     33159 TIP3     2947     TIP3     H2       HT       0.417000       1.00800           0
     33160 TIP3     2948     TIP3     OH2      OT      -0.834000       15.9994           0
     33161 TIP3     2948     TIP3     H1       HT       0.417000       1.00800           0
     33162 TIP3     2948     TIP3     H2       HT       0.417000       1.00800           0
     33163 TIP3     2949     TIP3     OH2      OT      -0.834000       15.9994           0
     33164 TIP3     2949     TIP3     H1       HT       0.417000       1.00800           0
     33165 TIP3     2949     TIP3     H2       HT       0.417000       1.00800           0
     33166 TIP3     2950     TIP3     OH2      OT      -0.834000       15.9994           0
     33167 TIP3     2950     TIP3     H1       HT       0.417000       1.00800           0
     33168 TIP3     2950     TIP3     H2       HT       0.417000       1.00800           0
     33169 TIP3     2951     TIP3     OH2      OT      -0.834000       15.9994           0
     33170 TIP3     2951     TIP3     H1       HT       0.417000       1.00800           0
     33171 TIP3     2951     TIP3     H2       HT       0.417000       1.00800           0
     33172 TIP3     2952     TIP3     OH2      OT      -0.834000       15.9994           0
     33173 TIP3     2952     TIP3     H1       HT       0.417000       1.00800           0
     33174 TIP3     2952     TIP3     H2       HT       0.417000       1.00800           0
     33175 TIP3     2953     TIP3     OH2      OT      -0.834000       15.9994           0
     33176 TIP3     2953     TIP3     H1       HT       0.417000       1.00800           0
     33177 TIP3     2953     TIP3     H2       HT       0.417000       1.00800           0
     33178 TIP3     2954     TIP3     OH2      OT      -0.834000       15.9994           0
     33179 TIP3     2954     TIP3     H1       HT       0.417000       1.00800           0
     33180 TIP3     2954     TIP3     H2       HT       0.417000       1.00800           0
     33181 TIP3     2955     TIP3     OH2      OT      -0.834000       15.9994           0
     33182 TIP3     2955     TIP3     H1       HT       0.417000       1.00800           0
     33183 TIP3     2955     TIP3     H2       HT       0.417000       1.00800           0
     33184 TIP3     2956     TIP3     OH2      OT      -0.834000       15.9994           0
     33185 TIP3     2956     TIP3     H1       HT       0.417000       1.00800           0
     33186 TIP3     2956     TIP3     H2       HT       0.417000       1.00800           0
     33187 TIP3     2957     TIP3     OH2      OT      -0.834000       15.9994           0
     33188 TIP3     2957     TIP3     H1       HT       0.417000       1.00800           0
     33189 TIP3     2957     TIP3     H2       HT       0.417000       1.00800           0
     33190 TIP3     2958     TIP3     OH2      OT      -0.834000       15.9994           0
     33191 TIP3     2958     TIP3     H1       HT       0.417000       1.00800           0
     33192 TIP3     2958     TIP3     H2       HT       0.417000       1.00800           0
     33193 TIP3     2959     TIP3     OH2      OT      -0.834000       15.9994           0
     33194 TIP3     2959     TIP3     H1       HT       0.417000       1.00800           0
     33195 TIP3     2959     TIP3     H2       HT       0.417000       1.00800           0
     33196 TIP3     2960     TIP3     OH2      OT      -0.834000       15.9994           0
     33197 TIP3     2960     TIP3     H1       HT       0.417000       1.00800           0
     33198 TIP3     2960     TIP3     H2       HT       0.417000       1.00800           0
     33199 TIP3     2961     TIP3     OH2      OT      -0.834000       15.9994           0
     33200 TIP3     2961     TIP3     H1       HT       0.417000       1.00800           0
     33201 TIP3     2961     TIP3     H2       HT       0.417000       1.00800           0
     33202 TIP3     2962     TIP3     OH2      OT      -0.834000       15.9994           0
     33203 TIP3     2962     TIP3     H1       HT       0.417000       1.00800           0
     33204 TIP3     2962     TIP3     H2       HT       0.417000       1.00800           0
     33205 TIP3     2963     TIP3     OH2      OT      -0.834000       15.9994           0
     33206 TIP3     2963     TIP3     H1       HT       0.417000       1.00800           0
     33207 TIP3     2963     TIP3     H2       HT       0.417000       1.00800           0
     33208 TIP3     2964     TIP3     OH2      OT      -0.834000       15.9994           0
     33209 TIP3     2964     TIP3     H1       HT       0.417000       1.00800           0
     33210 TIP3     2964     TIP3     H2       HT       0.417000       1.00800           0
     33211 TIP3     2965     TIP3     OH2      OT      -0.834000       15.9994           0
     33212 TIP3     2965     TIP3     H1       HT       0.417000       1.00800           0
     33213 TIP3     2965     TIP3     H2       HT       0.417000       1.00800           0
     33214 TIP3     2966     TIP3     OH2      OT      -0.834000       15.9994           0
     33215 TIP3     2966     TIP3     H1       HT       0.417000       1.00800           0
     33216 TIP3     2966     TIP3     H2       HT       0.417000       1.00800           0
     33217 TIP3     2967     TIP3     OH2      OT      -0.834000       15.9994           0
     33218 TIP3     2967     TIP3     H1       HT       0.417000       1.00800           0
     33219 TIP3     2967     TIP3     H2       HT       0.417000       1.00800           0
     33220 TIP3     2968     TIP3     OH2      OT      -0.834000       15.9994           0
     33221 TIP3     2968     TIP3     H1       HT       0.417000       1.00800           0
     33222 TIP3     2968     TIP3     H2       HT       0.417000       1.00800           0
     33223 TIP3     2969     TIP3     OH2      OT      -0.834000       15.9994           0
     33224 TIP3     2969     TIP3     H1       HT       0.417000       1.00800           0
     33225 TIP3     2969     TIP3     H2       HT       0.417000       1.00800           0
     33226 TIP3     2970     TIP3     OH2      OT      -0.834000       15.9994           0
     33227 TIP3     2970     TIP3     H1       HT       0.417000       1.00800           0
     33228 TIP3     2970     TIP3     H2       HT       0.417000       1.00800           0
     33229 TIP3     2971     TIP3     OH2      OT      -0.834000       15.9994           0
     33230 TIP3     2971     TIP3     H1       HT       0.417000       1.00800           0
     33231 TIP3     2971     TIP3     H2       HT       0.417000       1.00800           0
     33232 TIP3     2972     TIP3     OH2      OT      -0.834000       15.9994           0
     33233 TIP3     2972     TIP3     H1       HT       0.417000       1.00800           0
     33234 TIP3     2972     TIP3     H2       HT       0.417000       1.00800           0
     33235 TIP3     2973     TIP3     OH2      OT      -0.834000       15.9994           0
     33236 TIP3     2973     TIP3     H1       HT       0.417000       1.00800           0
     33237 TIP3     2973     TIP3     H2       HT       0.417000       1.00800           0
     33238 TIP3     2974     TIP3     OH2      OT      -0.834000       15.9994           0
     33239 TIP3     2974     TIP3     H1       HT       0.417000       1.00800           0
     33240 TIP3     2974     TIP3     H2       HT       0.417000       1.00800           0
     33241 TIP3     2975     TIP3     OH2      OT      -0.834000       15.9994           0
     33242 TIP3     2975     TIP3     H1       HT       0.417000       1.00800           0
     33243 TIP3     2975     TIP3     H2       HT       0.417000       1.00800           0
     33244 TIP3     2976     TIP3     OH2      OT      -0.834000       15.9994           0
     33245 TIP3     2976     TIP3     H1       HT       0.417000       1.00800           0
     33246 TIP3     2976     TIP3     H2       HT       0.417000       1.00800           0
     33247 TIP3     2977     TIP3     OH2      OT      -0.834000       15.9994           0
     33248 TIP3     2977     TIP3     H1       HT       0.417000       1.00800           0
     33249 TIP3     2977     TIP3     H2       HT       0.417000       1.00800           0
     33250 TIP3     2978     TIP3     OH2      OT      -0.834000       15.9994           0
     33251 TIP3     2978     TIP3     H1       HT       0.417000       1.00800           0
     33252 TIP3     2978     TIP3     H2       HT       0.417000       1.00800           0
     33253 TIP3     2979     TIP3     OH2      OT      -0.834000       15.9994           0
     33254 TIP3     2979     TIP3     H1       HT       0.417000       1.00800           0
     33255 TIP3     2979     TIP3     H2       HT       0.417000       1.00800           0
     33256 TIP3     2980     TIP3     OH2      OT      -0.834000       15.9994           0
     33257 TIP3     2980     TIP3     H1       HT       0.417000       1.00800           0
     33258 TIP3     2980     TIP3     H2       HT       0.417000       1.00800           0
     33259 TIP3     2981     TIP3     OH2      OT      -0.834000       15.9994           0
     33260 TIP3     2981     TIP3     H1       HT       0.417000       1.00800           0
     33261 TIP3     2981     TIP3     H2       HT       0.417000       1.00800           0
     33262 TIP3     2982     TIP3     OH2      OT      -0.834000       15.9994           0
     33263 TIP3     2982     TIP3     H1       HT       0.417000       1.00800           0
     33264 TIP3     2982     TIP3     H2       HT       0.417000       1.00800           0
     33265 TIP3     2983     TIP3     OH2      OT      -0.834000       15.9994           0
     33266 TIP3     2983     TIP3     H1       HT       0.417000       1.00800           0
     33267 TIP3     2983     TIP3     H2       HT       0.417000       1.00800           0
     33268 TIP3     2984     TIP3     OH2      OT      -0.834000       15.9994           0
     33269 TIP3     2984     TIP3     H1       HT       0.417000       1.00800           0
     33270 TIP3     2984     TIP3     H2       HT       0.417000       1.00800           0
     33271 TIP3     2985     TIP3     OH2      OT      -0.834000       15.9994           0
     33272 TIP3     2985     TIP3     H1       HT       0.417000       1.00800           0
     33273 TIP3     2985     TIP3     H2       HT       0.417000       1.00800           0
     33274 TIP3     2986     TIP3     OH2      OT      -0.834000       15.9994           0
     33275 TIP3     2986     TIP3     H1       HT       0.417000       1.00800           0
     33276 TIP3     2986     TIP3     H2       HT       0.417000       1.00800           0
     33277 TIP3     2987     TIP3     OH2      OT      -0.834000       15.9994           0
     33278 TIP3     2987     TIP3     H1       HT       0.417000       1.00800           0
     33279 TIP3     2987     TIP3     H2       HT       0.417000       1.00800           0
     33280 TIP3     2988     TIP3     OH2      OT      -0.834000       15.9994           0
     33281 TIP3     2988     TIP3     H1       HT       0.417000       1.00800           0
     33282 TIP3     2988     TIP3     H2       HT       0.417000       1.00800           0
     33283 TIP3     2989     TIP3     OH2      OT      -0.834000       15.9994           0
     33284 TIP3     2989     TIP3     H1       HT       0.417000       1.00800           0
     33285 TIP3     2989     TIP3     H2       HT       0.417000       1.00800           0
     33286 TIP3     2990     TIP3     OH2      OT      -0.834000       15.9994           0
     33287 TIP3     2990     TIP3     H1       HT       0.417000       1.00800           0
     33288 TIP3     2990     TIP3     H2       HT       0.417000       1.00800           0
     33289 TIP3     2991     TIP3     OH2      OT      -0.834000       15.9994           0
     33290 TIP3     2991     TIP3     H1       HT       0.417000       1.00800           0
     33291 TIP3     2991     TIP3     H2       HT       0.417000       1.00800           0
     33292 TIP3     2992     TIP3     OH2      OT      -0.834000       15.9994           0
     33293 TIP3     2992     TIP3     H1       HT       0.417000       1.00800           0
     33294 TIP3     2992     TIP3     H2       HT       0.417000       1.00800           0
     33295 TIP3     2993     TIP3     OH2      OT      -0.834000       15.9994           0
     33296 TIP3     2993     TIP3     H1       HT       0.417000       1.00800           0
     33297 TIP3     2993     TIP3     H2       HT       0.417000       1.00800           0
     33298 TIP3     2994     TIP3     OH2      OT      -0.834000       15.9994           0
     33299 TIP3     2994     TIP3     H1       HT       0.417000       1.00800           0
     33300 TIP3     2994     TIP3     H2       HT       0.417000       1.00800           0
     33301 TIP3     2995     TIP3     OH2      OT      -0.834000       15.9994           0
     33302 TIP3     2995     TIP3     H1       HT       0.417000       1.00800           0
     33303 TIP3     2995     TIP3     H2       HT       0.417000       1.00800           0
     33304 TIP3     2996     TIP3     OH2      OT      -0.834000       15.9994           0
     33305 TIP3     2996     TIP3     H1       HT       0.417000       1.00800           0
     33306 TIP3     2996     TIP3     H2       HT       0.417000       1.00800           0
     33307 TIP3     2997     TIP3     OH2      OT      -0.834000       15.9994           0
     33308 TIP3     2997     TIP3     H1       HT       0.417000       1.00800           0
     33309 TIP3     2997     TIP3     H2       HT       0.417000       1.00800           0
     33310 TIP3     2998     TIP3     OH2      OT      -0.834000       15.9994           0
     33311 TIP3     2998     TIP3     H1       HT       0.417000       1.00800           0
     33312 TIP3     2998     TIP3     H2       HT       0.417000       1.00800           0
     33313 TIP3     2999     TIP3     OH2      OT      -0.834000       15.9994           0
     33314 TIP3     2999     TIP3     H1       HT       0.417000       1.00800           0
     33315 TIP3     2999     TIP3     H2       HT       0.417000       1.00800           0
     33316 TIP3     3000     TIP3     OH2      OT      -0.834000       15.9994           0
     33317 TIP3     3000     TIP3     H1       HT       0.417000       1.00800           0
     33318 TIP3     3000     TIP3     H2       HT       0.417000       1.00800           0
     33319 TIP3     3001     TIP3     OH2      OT      -0.834000       15.9994           0
     33320 TIP3     3001     TIP3     H1       HT       0.417000       1.00800           0
     33321 TIP3     3001     TIP3     H2       HT       0.417000       1.00800           0
     33322 TIP3     3002     TIP3     OH2      OT      -0.834000       15.9994           0
     33323 TIP3     3002     TIP3     H1       HT       0.417000       1.00800           0
     33324 TIP3     3002     TIP3     H2       HT       0.417000       1.00800           0
     33325 TIP3     3003     TIP3     OH2      OT      -0.834000       15.9994           0
     33326 TIP3     3003     TIP3     H1       HT       0.417000       1.00800           0
     33327 TIP3     3003     TIP3     H2       HT       0.417000       1.00800           0
     33328 TIP3     3004     TIP3     OH2      OT      -0.834000       15.9994           0
     33329 TIP3     3004     TIP3     H1       HT       0.417000       1.00800           0
     33330 TIP3     3004     TIP3     H2       HT       0.417000       1.00800           0
     33331 TIP3     3005     TIP3     OH2      OT      -0.834000       15.9994           0
     33332 TIP3     3005     TIP3     H1       HT       0.417000       1.00800           0
     33333 TIP3     3005     TIP3     H2       HT       0.417000       1.00800           0
     33334 TIP3     3006     TIP3     OH2      OT      -0.834000       15.9994           0
     33335 TIP3     3006     TIP3     H1       HT       0.417000       1.00800           0
     33336 TIP3     3006     TIP3     H2       HT       0.417000       1.00800           0
     33337 TIP3     3007     TIP3     OH2      OT      -0.834000       15.9994           0
     33338 TIP3     3007     TIP3     H1       HT       0.417000       1.00800           0
     33339 TIP3     3007     TIP3     H2       HT       0.417000       1.00800           0
     33340 TIP3     3008     TIP3     OH2      OT      -0.834000       15.9994           0
     33341 TIP3     3008     TIP3     H1       HT       0.417000       1.00800           0
     33342 TIP3     3008     TIP3     H2       HT       0.417000       1.00800           0
     33343 TIP3     3009     TIP3     OH2      OT      -0.834000       15.9994           0
     33344 TIP3     3009     TIP3     H1       HT       0.417000       1.00800           0
     33345 TIP3     3009     TIP3     H2       HT       0.417000       1.00800           0
     33346 TIP3     3010     TIP3     OH2      OT      -0.834000       15.9994           0
     33347 TIP3     3010     TIP3     H1       HT       0.417000       1.00800           0
     33348 TIP3     3010     TIP3     H2       HT       0.417000       1.00800           0
     33349 TIP3     3011     TIP3     OH2      OT      -0.834000       15.9994           0
     33350 TIP3     3011     TIP3     H1       HT       0.417000       1.00800           0
     33351 TIP3     3011     TIP3     H2       HT       0.417000       1.00800           0
     33352 TIP3     3012     TIP3     OH2      OT      -0.834000       15.9994           0
     33353 TIP3     3012     TIP3     H1       HT       0.417000       1.00800           0
     33354 TIP3     3012     TIP3     H2       HT       0.417000       1.00800           0
     33355 TIP3     3013     TIP3     OH2      OT      -0.834000       15.9994           0
     33356 TIP3     3013     TIP3     H1       HT       0.417000       1.00800           0
     33357 TIP3     3013     TIP3     H2       HT       0.417000       1.00800           0
     33358 TIP3     3014     TIP3     OH2      OT      -0.834000       15.9994           0
     33359 TIP3     3014     TIP3     H1       HT       0.417000       1.00800           0
     33360 TIP3     3014     TIP3     H2       HT       0.417000       1.00800           0
     33361 TIP3     3015     TIP3     OH2      OT      -0.834000       15.9994           0
     33362 TIP3     3015     TIP3     H1       HT       0.417000       1.00800           0
     33363 TIP3     3015     TIP3     H2       HT       0.417000       1.00800           0
     33364 TIP3     3016     TIP3     OH2      OT      -0.834000       15.9994           0
     33365 TIP3     3016     TIP3     H1       HT       0.417000       1.00800           0
     33366 TIP3     3016     TIP3     H2       HT       0.417000       1.00800           0
     33367 TIP3     3017     TIP3     OH2      OT      -0.834000       15.9994           0
     33368 TIP3     3017     TIP3     H1       HT       0.417000       1.00800           0
     33369 TIP3     3017     TIP3     H2       HT       0.417000       1.00800           0
     33370 TIP3     3018     TIP3     OH2      OT      -0.834000       15.9994           0
     33371 TIP3     3018     TIP3     H1       HT       0.417000       1.00800           0
     33372 TIP3     3018     TIP3     H2       HT       0.417000       1.00800           0
     33373 TIP3     3019     TIP3     OH2      OT      -0.834000       15.9994           0
     33374 TIP3     3019     TIP3     H1       HT       0.417000       1.00800           0
     33375 TIP3     3019     TIP3     H2       HT       0.417000       1.00800           0
     33376 TIP3     3020     TIP3     OH2      OT      -0.834000       15.9994           0
     33377 TIP3     3020     TIP3     H1       HT       0.417000       1.00800           0
     33378 TIP3     3020     TIP3     H2       HT       0.417000       1.00800           0
     33379 TIP3     3021     TIP3     OH2      OT      -0.834000       15.9994           0
     33380 TIP3     3021     TIP3     H1       HT       0.417000       1.00800           0
     33381 TIP3     3021     TIP3     H2       HT       0.417000       1.00800           0
     33382 TIP3     3022     TIP3     OH2      OT      -0.834000       15.9994           0
     33383 TIP3     3022     TIP3     H1       HT       0.417000       1.00800           0
     33384 TIP3     3022     TIP3     H2       HT       0.417000       1.00800           0
     33385 TIP3     3023     TIP3     OH2      OT      -0.834000       15.9994           0
     33386 TIP3     3023     TIP3     H1       HT       0.417000       1.00800           0
     33387 TIP3     3023     TIP3     H2       HT       0.417000       1.00800           0
     33388 TIP3     3024     TIP3     OH2      OT      -0.834000       15.9994           0
     33389 TIP3     3024     TIP3     H1       HT       0.417000       1.00800           0
     33390 TIP3     3024     TIP3     H2       HT       0.417000       1.00800           0
     33391 TIP3     3025     TIP3     OH2      OT      -0.834000       15.9994           0
     33392 TIP3     3025     TIP3     H1       HT       0.417000       1.00800           0
     33393 TIP3     3025     TIP3     H2       HT       0.417000       1.00800           0
     33394 TIP3     3026     TIP3     OH2      OT      -0.834000       15.9994           0
     33395 TIP3     3026     TIP3     H1       HT       0.417000       1.00800           0
     33396 TIP3     3026     TIP3     H2       HT       0.417000       1.00800           0
     33397 TIP3     3027     TIP3     OH2      OT      -0.834000       15.9994           0
     33398 TIP3     3027     TIP3     H1       HT       0.417000       1.00800           0
     33399 TIP3     3027     TIP3     H2       HT       0.417000       1.00800           0
     33400 TIP3     3028     TIP3     OH2      OT      -0.834000       15.9994           0
     33401 TIP3     3028     TIP3     H1       HT       0.417000       1.00800           0
     33402 TIP3     3028     TIP3     H2       HT       0.417000       1.00800           0
     33403 TIP3     3029     TIP3     OH2      OT      -0.834000       15.9994           0
     33404 TIP3     3029     TIP3     H1       HT       0.417000       1.00800           0
     33405 TIP3     3029     TIP3     H2       HT       0.417000       1.00800           0
     33406 TIP3     3030     TIP3     OH2      OT      -0.834000       15.9994           0
     33407 TIP3     3030     TIP3     H1       HT       0.417000       1.00800           0
     33408 TIP3     3030     TIP3     H2       HT       0.417000       1.00800           0
     33409 TIP3     3031     TIP3     OH2      OT      -0.834000       15.9994           0
     33410 TIP3     3031     TIP3     H1       HT       0.417000       1.00800           0
     33411 TIP3     3031     TIP3     H2       HT       0.417000       1.00800           0
     33412 TIP3     3032     TIP3     OH2      OT      -0.834000       15.9994           0
     33413 TIP3     3032     TIP3     H1       HT       0.417000       1.00800           0
     33414 TIP3     3032     TIP3     H2       HT       0.417000       1.00800           0
     33415 TIP3     3033     TIP3     OH2      OT      -0.834000       15.9994           0
     33416 TIP3     3033     TIP3     H1       HT       0.417000       1.00800           0
     33417 TIP3     3033     TIP3     H2       HT       0.417000       1.00800           0
     33418 TIP3     3034     TIP3     OH2      OT      -0.834000       15.9994           0
     33419 TIP3     3034     TIP3     H1       HT       0.417000       1.00800           0
     33420 TIP3     3034     TIP3     H2       HT       0.417000       1.00800           0
     33421 TIP3     3035     TIP3     OH2      OT      -0.834000       15.9994           0
     33422 TIP3     3035     TIP3     H1       HT       0.417000       1.00800           0
     33423 TIP3     3035     TIP3     H2       HT       0.417000       1.00800           0
     33424 TIP3     3036     TIP3     OH2      OT      -0.834000       15.9994           0
     33425 TIP3     3036     TIP3     H1       HT       0.417000       1.00800           0
     33426 TIP3     3036     TIP3     H2       HT       0.417000       1.00800           0
     33427 TIP3     3037     TIP3     OH2      OT      -0.834000       15.9994           0
     33428 TIP3     3037     TIP3     H1       HT       0.417000       1.00800           0
     33429 TIP3     3037     TIP3     H2       HT       0.417000       1.00800           0
     33430 TIP3     3038     TIP3     OH2      OT      -0.834000       15.9994           0
     33431 TIP3     3038     TIP3     H1       HT       0.417000       1.00800           0
     33432 TIP3     3038     TIP3     H2       HT       0.417000       1.00800           0
     33433 TIP3     3039     TIP3     OH2      OT      -0.834000       15.9994           0
     33434 TIP3     3039     TIP3     H1       HT       0.417000       1.00800           0
     33435 TIP3     3039     TIP3     H2       HT       0.417000       1.00800           0
     33436 TIP3     3040     TIP3     OH2      OT      -0.834000       15.9994           0
     33437 TIP3     3040     TIP3     H1       HT       0.417000       1.00800           0
     33438 TIP3     3040     TIP3     H2       HT       0.417000       1.00800           0
     33439 TIP3     3041     TIP3     OH2      OT      -0.834000       15.9994           0
     33440 TIP3     3041     TIP3     H1       HT       0.417000       1.00800           0
     33441 TIP3     3041     TIP3     H2       HT       0.417000       1.00800           0
     33442 TIP3     3042     TIP3     OH2      OT      -0.834000       15.9994           0
     33443 TIP3     3042     TIP3     H1       HT       0.417000       1.00800           0
     33444 TIP3     3042     TIP3     H2       HT       0.417000       1.00800           0
     33445 TIP3     3043     TIP3     OH2      OT      -0.834000       15.9994           0
     33446 TIP3     3043     TIP3     H1       HT       0.417000       1.00800           0
     33447 TIP3     3043     TIP3     H2       HT       0.417000       1.00800           0
     33448 TIP3     3044     TIP3     OH2      OT      -0.834000       15.9994           0
     33449 TIP3     3044     TIP3     H1       HT       0.417000       1.00800           0
     33450 TIP3     3044     TIP3     H2       HT       0.417000       1.00800           0
     33451 TIP3     3045     TIP3     OH2      OT      -0.834000       15.9994           0
     33452 TIP3     3045     TIP3     H1       HT       0.417000       1.00800           0
     33453 TIP3     3045     TIP3     H2       HT       0.417000       1.00800           0
     33454 TIP3     3046     TIP3     OH2      OT      -0.834000       15.9994           0
     33455 TIP3     3046     TIP3     H1       HT       0.417000       1.00800           0
     33456 TIP3     3046     TIP3     H2       HT       0.417000       1.00800           0
     33457 TIP3     3047     TIP3     OH2      OT      -0.834000       15.9994           0
     33458 TIP3     3047     TIP3     H1       HT       0.417000       1.00800           0
     33459 TIP3     3047     TIP3     H2       HT       0.417000       1.00800           0
     33460 TIP3     3048     TIP3     OH2      OT      -0.834000       15.9994           0
     33461 TIP3     3048     TIP3     H1       HT       0.417000       1.00800           0
     33462 TIP3     3048     TIP3     H2       HT       0.417000       1.00800           0
     33463 TIP3     3049     TIP3     OH2      OT      -0.834000       15.9994           0
     33464 TIP3     3049     TIP3     H1       HT       0.417000       1.00800           0
     33465 TIP3     3049     TIP3     H2       HT       0.417000       1.00800           0
     33466 TIP3     3050     TIP3     OH2      OT      -0.834000       15.9994           0
     33467 TIP3     3050     TIP3     H1       HT       0.417000       1.00800           0
     33468 TIP3     3050     TIP3     H2       HT       0.417000       1.00800           0
     33469 TIP3     3051     TIP3     OH2      OT      -0.834000       15.9994           0
     33470 TIP3     3051     TIP3     H1       HT       0.417000       1.00800           0
     33471 TIP3     3051     TIP3     H2       HT       0.417000       1.00800           0
     33472 TIP3     3052     TIP3     OH2      OT      -0.834000       15.9994           0
     33473 TIP3     3052     TIP3     H1       HT       0.417000       1.00800           0
     33474 TIP3     3052     TIP3     H2       HT       0.417000       1.00800           0
     33475 TIP3     3053     TIP3     OH2      OT      -0.834000       15.9994           0
     33476 TIP3     3053     TIP3     H1       HT       0.417000       1.00800           0
     33477 TIP3     3053     TIP3     H2       HT       0.417000       1.00800           0
     33478 TIP3     3054     TIP3     OH2      OT      -0.834000       15.9994           0
     33479 TIP3     3054     TIP3     H1       HT       0.417000       1.00800           0
     33480 TIP3     3054     TIP3     H2       HT       0.417000       1.00800           0
     33481 TIP3     3055     TIP3     OH2      OT      -0.834000       15.9994           0
     33482 TIP3     3055     TIP3     H1       HT       0.417000       1.00800           0
     33483 TIP3     3055     TIP3     H2       HT       0.417000       1.00800           0
     33484 TIP3     3056     TIP3     OH2      OT      -0.834000       15.9994           0
     33485 TIP3     3056     TIP3     H1       HT       0.417000       1.00800           0
     33486 TIP3     3056     TIP3     H2       HT       0.417000       1.00800           0
     33487 TIP3     3057     TIP3     OH2      OT      -0.834000       15.9994           0
     33488 TIP3     3057     TIP3     H1       HT       0.417000       1.00800           0
     33489 TIP3     3057     TIP3     H2       HT       0.417000       1.00800           0
     33490 TIP3     3058     TIP3     OH2      OT      -0.834000       15.9994           0
     33491 TIP3     3058     TIP3     H1       HT       0.417000       1.00800           0
     33492 TIP3     3058     TIP3     H2       HT       0.417000       1.00800           0
     33493 TIP3     3059     TIP3     OH2      OT      -0.834000       15.9994           0
     33494 TIP3     3059     TIP3     H1       HT       0.417000       1.00800           0
     33495 TIP3     3059     TIP3     H2       HT       0.417000       1.00800           0
     33496 TIP3     3060     TIP3     OH2      OT      -0.834000       15.9994           0
     33497 TIP3     3060     TIP3     H1       HT       0.417000       1.00800           0
     33498 TIP3     3060     TIP3     H2       HT       0.417000       1.00800           0
     33499 TIP3     3061     TIP3     OH2      OT      -0.834000       15.9994           0
     33500 TIP3     3061     TIP3     H1       HT       0.417000       1.00800           0
     33501 TIP3     3061     TIP3     H2       HT       0.417000       1.00800           0
     33502 TIP3     3062     TIP3     OH2      OT      -0.834000       15.9994           0
     33503 TIP3     3062     TIP3     H1       HT       0.417000       1.00800           0
     33504 TIP3     3062     TIP3     H2       HT       0.417000       1.00800           0
     33505 TIP3     3063     TIP3     OH2      OT      -0.834000       15.9994           0
     33506 TIP3     3063     TIP3     H1       HT       0.417000       1.00800           0
     33507 TIP3     3063     TIP3     H2       HT       0.417000       1.00800           0
     33508 TIP3     3064     TIP3     OH2      OT      -0.834000       15.9994           0
     33509 TIP3     3064     TIP3     H1       HT       0.417000       1.00800           0
     33510 TIP3     3064     TIP3     H2       HT       0.417000       1.00800           0
     33511 TIP3     3065     TIP3     OH2      OT      -0.834000       15.9994           0
     33512 TIP3     3065     TIP3     H1       HT       0.417000       1.00800           0
     33513 TIP3     3065     TIP3     H2       HT       0.417000       1.00800           0
     33514 TIP3     3066     TIP3     OH2      OT      -0.834000       15.9994           0
     33515 TIP3     3066     TIP3     H1       HT       0.417000       1.00800           0
     33516 TIP3     3066     TIP3     H2       HT       0.417000       1.00800           0
     33517 TIP3     3067     TIP3     OH2      OT      -0.834000       15.9994           0
     33518 TIP3     3067     TIP3     H1       HT       0.417000       1.00800           0
     33519 TIP3     3067     TIP3     H2       HT       0.417000       1.00800           0
     33520 TIP3     3068     TIP3     OH2      OT      -0.834000       15.9994           0
     33521 TIP3     3068     TIP3     H1       HT       0.417000       1.00800           0
     33522 TIP3     3068     TIP3     H2       HT       0.417000       1.00800           0
     33523 TIP3     3069     TIP3     OH2      OT      -0.834000       15.9994           0
     33524 TIP3     3069     TIP3     H1       HT       0.417000       1.00800           0
     33525 TIP3     3069     TIP3     H2       HT       0.417000       1.00800           0
     33526 TIP3     3070     TIP3     OH2      OT      -0.834000       15.9994           0
     33527 TIP3     3070     TIP3     H1       HT       0.417000       1.00800           0
     33528 TIP3     3070     TIP3     H2       HT       0.417000       1.00800           0
     33529 TIP3     3071     TIP3     OH2      OT      -0.834000       15.9994           0
     33530 TIP3     3071     TIP3     H1       HT       0.417000       1.00800           0
     33531 TIP3     3071     TIP3     H2       HT       0.417000       1.00800           0
     33532 TIP3     3072     TIP3     OH2      OT      -0.834000       15.9994           0
     33533 TIP3     3072     TIP3     H1       HT       0.417000       1.00800           0
     33534 TIP3     3072     TIP3     H2       HT       0.417000       1.00800           0
     33535 TIP3     3073     TIP3     OH2      OT      -0.834000       15.9994           0
     33536 TIP3     3073     TIP3     H1       HT       0.417000       1.00800           0
     33537 TIP3     3073     TIP3     H2       HT       0.417000       1.00800           0
     33538 TIP3     3074     TIP3     OH2      OT      -0.834000       15.9994           0
     33539 TIP3     3074     TIP3     H1       HT       0.417000       1.00800           0
     33540 TIP3     3074     TIP3     H2       HT       0.417000       1.00800           0
     33541 TIP3     3075     TIP3     OH2      OT      -0.834000       15.9994           0
     33542 TIP3     3075     TIP3     H1       HT       0.417000       1.00800           0
     33543 TIP3     3075     TIP3     H2       HT       0.417000       1.00800           0
     33544 TIP3     3076     TIP3     OH2      OT      -0.834000       15.9994           0
     33545 TIP3     3076     TIP3     H1       HT       0.417000       1.00800           0
     33546 TIP3     3076     TIP3     H2       HT       0.417000       1.00800           0
     33547 TIP3     3077     TIP3     OH2      OT      -0.834000       15.9994           0
     33548 TIP3     3077     TIP3     H1       HT       0.417000       1.00800           0
     33549 TIP3     3077     TIP3     H2       HT       0.417000       1.00800           0
     33550 TIP3     3078     TIP3     OH2      OT      -0.834000       15.9994           0
     33551 TIP3     3078     TIP3     H1       HT       0.417000       1.00800           0
     33552 TIP3     3078     TIP3     H2       HT       0.417000       1.00800           0
     33553 TIP3     3079     TIP3     OH2      OT      -0.834000       15.9994           0
     33554 TIP3     3079     TIP3     H1       HT       0.417000       1.00800           0
     33555 TIP3     3079     TIP3     H2       HT       0.417000       1.00800           0
     33556 TIP3     3080     TIP3     OH2      OT      -0.834000       15.9994           0
     33557 TIP3     3080     TIP3     H1       HT       0.417000       1.00800           0
     33558 TIP3     3080     TIP3     H2       HT       0.417000       1.00800           0
     33559 TIP3     3081     TIP3     OH2      OT      -0.834000       15.9994           0
     33560 TIP3     3081     TIP3     H1       HT       0.417000       1.00800           0
     33561 TIP3     3081     TIP3     H2       HT       0.417000       1.00800           0
     33562 TIP3     3082     TIP3     OH2      OT      -0.834000       15.9994           0
     33563 TIP3     3082     TIP3     H1       HT       0.417000       1.00800           0
     33564 TIP3     3082     TIP3     H2       HT       0.417000       1.00800           0
     33565 TIP3     3083     TIP3     OH2      OT      -0.834000       15.9994           0
     33566 TIP3     3083     TIP3     H1       HT       0.417000       1.00800           0
     33567 TIP3     3083     TIP3     H2       HT       0.417000       1.00800           0
     33568 TIP3     3084     TIP3     OH2      OT      -0.834000       15.9994           0
     33569 TIP3     3084     TIP3     H1       HT       0.417000       1.00800           0
     33570 TIP3     3084     TIP3     H2       HT       0.417000       1.00800           0
     33571 TIP3     3085     TIP3     OH2      OT      -0.834000       15.9994           0
     33572 TIP3     3085     TIP3     H1       HT       0.417000       1.00800           0
     33573 TIP3     3085     TIP3     H2       HT       0.417000       1.00800           0
     33574 TIP3     3086     TIP3     OH2      OT      -0.834000       15.9994           0
     33575 TIP3     3086     TIP3     H1       HT       0.417000       1.00800           0
     33576 TIP3     3086     TIP3     H2       HT       0.417000       1.00800           0
     33577 TIP3     3087     TIP3     OH2      OT      -0.834000       15.9994           0
     33578 TIP3     3087     TIP3     H1       HT       0.417000       1.00800           0
     33579 TIP3     3087     TIP3     H2       HT       0.417000       1.00800           0
     33580 TIP3     3088     TIP3     OH2      OT      -0.834000       15.9994           0
     33581 TIP3     3088     TIP3     H1       HT       0.417000       1.00800           0
     33582 TIP3     3088     TIP3     H2       HT       0.417000       1.00800           0
     33583 TIP3     3089     TIP3     OH2      OT      -0.834000       15.9994           0
     33584 TIP3     3089     TIP3     H1       HT       0.417000       1.00800           0
     33585 TIP3     3089     TIP3     H2       HT       0.417000       1.00800           0
     33586 TIP3     3090     TIP3     OH2      OT      -0.834000       15.9994           0
     33587 TIP3     3090     TIP3     H1       HT       0.417000       1.00800           0
     33588 TIP3     3090     TIP3     H2       HT       0.417000       1.00800           0
     33589 TIP3     3091     TIP3     OH2      OT      -0.834000       15.9994           0
     33590 TIP3     3091     TIP3     H1       HT       0.417000       1.00800           0
     33591 TIP3     3091     TIP3     H2       HT       0.417000       1.00800           0
     33592 TIP3     3092     TIP3     OH2      OT      -0.834000       15.9994           0
     33593 TIP3     3092     TIP3     H1       HT       0.417000       1.00800           0
     33594 TIP3     3092     TIP3     H2       HT       0.417000       1.00800           0
     33595 TIP3     3093     TIP3     OH2      OT      -0.834000       15.9994           0
     33596 TIP3     3093     TIP3     H1       HT       0.417000       1.00800           0
     33597 TIP3     3093     TIP3     H2       HT       0.417000       1.00800           0
     33598 TIP3     3094     TIP3     OH2      OT      -0.834000       15.9994           0
     33599 TIP3     3094     TIP3     H1       HT       0.417000       1.00800           0
     33600 TIP3     3094     TIP3     H2       HT       0.417000       1.00800           0
     33601 TIP3     3095     TIP3     OH2      OT      -0.834000       15.9994           0
     33602 TIP3     3095     TIP3     H1       HT       0.417000       1.00800           0
     33603 TIP3     3095     TIP3     H2       HT       0.417000       1.00800           0
     33604 TIP3     3096     TIP3     OH2      OT      -0.834000       15.9994           0
     33605 TIP3     3096     TIP3     H1       HT       0.417000       1.00800           0
     33606 TIP3     3096     TIP3     H2       HT       0.417000       1.00800           0
     33607 TIP3     3097     TIP3     OH2      OT      -0.834000       15.9994           0
     33608 TIP3     3097     TIP3     H1       HT       0.417000       1.00800           0
     33609 TIP3     3097     TIP3     H2       HT       0.417000       1.00800           0
     33610 TIP3     3098     TIP3     OH2      OT      -0.834000       15.9994           0
     33611 TIP3     3098     TIP3     H1       HT       0.417000       1.00800           0
     33612 TIP3     3098     TIP3     H2       HT       0.417000       1.00800           0
     33613 TIP3     3099     TIP3     OH2      OT      -0.834000       15.9994           0
     33614 TIP3     3099     TIP3     H1       HT       0.417000       1.00800           0
     33615 TIP3     3099     TIP3     H2       HT       0.417000       1.00800           0
     33616 TIP3     3100     TIP3     OH2      OT      -0.834000       15.9994           0
     33617 TIP3     3100     TIP3     H1       HT       0.417000       1.00800           0
     33618 TIP3     3100     TIP3     H2       HT       0.417000       1.00800           0
     33619 TIP3     3101     TIP3     OH2      OT      -0.834000       15.9994           0
     33620 TIP3     3101     TIP3     H1       HT       0.417000       1.00800           0
     33621 TIP3     3101     TIP3     H2       HT       0.417000       1.00800           0
     33622 TIP3     3102     TIP3     OH2      OT      -0.834000       15.9994           0
     33623 TIP3     3102     TIP3     H1       HT       0.417000       1.00800           0
     33624 TIP3     3102     TIP3     H2       HT       0.417000       1.00800           0
     33625 TIP3     3103     TIP3     OH2      OT      -0.834000       15.9994           0
     33626 TIP3     3103     TIP3     H1       HT       0.417000       1.00800           0
     33627 TIP3     3103     TIP3     H2       HT       0.417000       1.00800           0
     33628 TIP3     3104     TIP3     OH2      OT      -0.834000       15.9994           0
     33629 TIP3     3104     TIP3     H1       HT       0.417000       1.00800           0
     33630 TIP3     3104     TIP3     H2       HT       0.417000       1.00800           0
     33631 TIP3     3105     TIP3     OH2      OT      -0.834000       15.9994           0
     33632 TIP3     3105     TIP3     H1       HT       0.417000       1.00800           0
     33633 TIP3     3105     TIP3     H2       HT       0.417000       1.00800           0
     33634 TIP3     3106     TIP3     OH2      OT      -0.834000       15.9994           0
     33635 TIP3     3106     TIP3     H1       HT       0.417000       1.00800           0
     33636 TIP3     3106     TIP3     H2       HT       0.417000       1.00800           0
     33637 TIP3     3107     TIP3     OH2      OT      -0.834000       15.9994           0
     33638 TIP3     3107     TIP3     H1       HT       0.417000       1.00800           0
     33639 TIP3     3107     TIP3     H2       HT       0.417000       1.00800           0
     33640 TIP3     3108     TIP3     OH2      OT      -0.834000       15.9994           0
     33641 TIP3     3108     TIP3     H1       HT       0.417000       1.00800           0
     33642 TIP3     3108     TIP3     H2       HT       0.417000       1.00800           0
     33643 TIP3     3109     TIP3     OH2      OT      -0.834000       15.9994           0
     33644 TIP3     3109     TIP3     H1       HT       0.417000       1.00800           0
     33645 TIP3     3109     TIP3     H2       HT       0.417000       1.00800           0
     33646 TIP3     3110     TIP3     OH2      OT      -0.834000       15.9994           0
     33647 TIP3     3110     TIP3     H1       HT       0.417000       1.00800           0
     33648 TIP3     3110     TIP3     H2       HT       0.417000       1.00800           0
     33649 TIP3     3111     TIP3     OH2      OT      -0.834000       15.9994           0
     33650 TIP3     3111     TIP3     H1       HT       0.417000       1.00800           0
     33651 TIP3     3111     TIP3     H2       HT       0.417000       1.00800           0
     33652 TIP3     3112     TIP3     OH2      OT      -0.834000       15.9994           0
     33653 TIP3     3112     TIP3     H1       HT       0.417000       1.00800           0
     33654 TIP3     3112     TIP3     H2       HT       0.417000       1.00800           0
     33655 TIP3     3113     TIP3     OH2      OT      -0.834000       15.9994           0
     33656 TIP3     3113     TIP3     H1       HT       0.417000       1.00800           0
     33657 TIP3     3113     TIP3     H2       HT       0.417000       1.00800           0
     33658 TIP3     3114     TIP3     OH2      OT      -0.834000       15.9994           0
     33659 TIP3     3114     TIP3     H1       HT       0.417000       1.00800           0
     33660 TIP3     3114     TIP3     H2       HT       0.417000       1.00800           0
     33661 TIP3     3115     TIP3     OH2      OT      -0.834000       15.9994           0
     33662 TIP3     3115     TIP3     H1       HT       0.417000       1.00800           0
     33663 TIP3     3115     TIP3     H2       HT       0.417000       1.00800           0
     33664 TIP3     3116     TIP3     OH2      OT      -0.834000       15.9994           0
     33665 TIP3     3116     TIP3     H1       HT       0.417000       1.00800           0
     33666 TIP3     3116     TIP3     H2       HT       0.417000       1.00800           0
     33667 TIP3     3117     TIP3     OH2      OT      -0.834000       15.9994           0
     33668 TIP3     3117     TIP3     H1       HT       0.417000       1.00800           0
     33669 TIP3     3117     TIP3     H2       HT       0.417000       1.00800           0
     33670 TIP3     3118     TIP3     OH2      OT      -0.834000       15.9994           0
     33671 TIP3     3118     TIP3     H1       HT       0.417000       1.00800           0
     33672 TIP3     3118     TIP3     H2       HT       0.417000       1.00800           0
     33673 TIP3     3119     TIP3     OH2      OT      -0.834000       15.9994           0
     33674 TIP3     3119     TIP3     H1       HT       0.417000       1.00800           0
     33675 TIP3     3119     TIP3     H2       HT       0.417000       1.00800           0
     33676 TIP3     3120     TIP3     OH2      OT      -0.834000       15.9994           0
     33677 TIP3     3120     TIP3     H1       HT       0.417000       1.00800           0
     33678 TIP3     3120     TIP3     H2       HT       0.417000       1.00800           0
     33679 TIP3     3121     TIP3     OH2      OT      -0.834000       15.9994           0
     33680 TIP3     3121     TIP3     H1       HT       0.417000       1.00800           0
     33681 TIP3     3121     TIP3     H2       HT       0.417000       1.00800           0
     33682 TIP3     3122     TIP3     OH2      OT      -0.834000       15.9994           0
     33683 TIP3     3122     TIP3     H1       HT       0.417000       1.00800           0
     33684 TIP3     3122     TIP3     H2       HT       0.417000       1.00800           0
     33685 TIP3     3123     TIP3     OH2      OT      -0.834000       15.9994           0
     33686 TIP3     3123     TIP3     H1       HT       0.417000       1.00800           0
     33687 TIP3     3123     TIP3     H2       HT       0.417000       1.00800           0
     33688 TIP3     3124     TIP3     OH2      OT      -0.834000       15.9994           0
     33689 TIP3     3124     TIP3     H1       HT       0.417000       1.00800           0
     33690 TIP3     3124     TIP3     H2       HT       0.417000       1.00800           0
     33691 TIP3     3125     TIP3     OH2      OT      -0.834000       15.9994           0
     33692 TIP3     3125     TIP3     H1       HT       0.417000       1.00800           0
     33693 TIP3     3125     TIP3     H2       HT       0.417000       1.00800           0
     33694 TIP3     3126     TIP3     OH2      OT      -0.834000       15.9994           0
     33695 TIP3     3126     TIP3     H1       HT       0.417000       1.00800           0
     33696 TIP3     3126     TIP3     H2       HT       0.417000       1.00800           0
     33697 TIP3     3127     TIP3     OH2      OT      -0.834000       15.9994           0
     33698 TIP3     3127     TIP3     H1       HT       0.417000       1.00800           0
     33699 TIP3     3127     TIP3     H2       HT       0.417000       1.00800           0
     33700 TIP3     3128     TIP3     OH2      OT      -0.834000       15.9994           0
     33701 TIP3     3128     TIP3     H1       HT       0.417000       1.00800           0
     33702 TIP3     3128     TIP3     H2       HT       0.417000       1.00800           0
     33703 TIP3     3129     TIP3     OH2      OT      -0.834000       15.9994           0
     33704 TIP3     3129     TIP3     H1       HT       0.417000       1.00800           0
     33705 TIP3     3129     TIP3     H2       HT       0.417000       1.00800           0
     33706 TIP3     3130     TIP3     OH2      OT      -0.834000       15.9994           0
     33707 TIP3     3130     TIP3     H1       HT       0.417000       1.00800           0
     33708 TIP3     3130     TIP3     H2       HT       0.417000       1.00800           0
     33709 TIP3     3131     TIP3     OH2      OT      -0.834000       15.9994           0
     33710 TIP3     3131     TIP3     H1       HT       0.417000       1.00800           0
     33711 TIP3     3131     TIP3     H2       HT       0.417000       1.00800           0
     33712 TIP3     3132     TIP3     OH2      OT      -0.834000       15.9994           0
     33713 TIP3     3132     TIP3     H1       HT       0.417000       1.00800           0
     33714 TIP3     3132     TIP3     H2       HT       0.417000       1.00800           0
     33715 TIP3     3133     TIP3     OH2      OT      -0.834000       15.9994           0
     33716 TIP3     3133     TIP3     H1       HT       0.417000       1.00800           0
     33717 TIP3     3133     TIP3     H2       HT       0.417000       1.00800           0
     33718 TIP3     3134     TIP3     OH2      OT      -0.834000       15.9994           0
     33719 TIP3     3134     TIP3     H1       HT       0.417000       1.00800           0
     33720 TIP3     3134     TIP3     H2       HT       0.417000       1.00800           0
     33721 TIP3     3135     TIP3     OH2      OT      -0.834000       15.9994           0
     33722 TIP3     3135     TIP3     H1       HT       0.417000       1.00800           0
     33723 TIP3     3135     TIP3     H2       HT       0.417000       1.00800           0
     33724 TIP3     3136     TIP3     OH2      OT      -0.834000       15.9994           0
     33725 TIP3     3136     TIP3     H1       HT       0.417000       1.00800           0
     33726 TIP3     3136     TIP3     H2       HT       0.417000       1.00800           0
     33727 TIP3     3137     TIP3     OH2      OT      -0.834000       15.9994           0
     33728 TIP3     3137     TIP3     H1       HT       0.417000       1.00800           0
     33729 TIP3     3137     TIP3     H2       HT       0.417000       1.00800           0
     33730 TIP3     3138     TIP3     OH2      OT      -0.834000       15.9994           0
     33731 TIP3     3138     TIP3     H1       HT       0.417000       1.00800           0
     33732 TIP3     3138     TIP3     H2       HT       0.417000       1.00800           0
     33733 TIP3     3139     TIP3     OH2      OT      -0.834000       15.9994           0
     33734 TIP3     3139     TIP3     H1       HT       0.417000       1.00800           0
     33735 TIP3     3139     TIP3     H2       HT       0.417000       1.00800           0
     33736 TIP3     3140     TIP3     OH2      OT      -0.834000       15.9994           0
     33737 TIP3     3140     TIP3     H1       HT       0.417000       1.00800           0
     33738 TIP3     3140     TIP3     H2       HT       0.417000       1.00800           0
     33739 TIP3     3141     TIP3     OH2      OT      -0.834000       15.9994           0
     33740 TIP3     3141     TIP3     H1       HT       0.417000       1.00800           0
     33741 TIP3     3141     TIP3     H2       HT       0.417000       1.00800           0
     33742 TIP3     3142     TIP3     OH2      OT      -0.834000       15.9994           0
     33743 TIP3     3142     TIP3     H1       HT       0.417000       1.00800           0
     33744 TIP3     3142     TIP3     H2       HT       0.417000       1.00800           0
     33745 TIP3     3143     TIP3     OH2      OT      -0.834000       15.9994           0
     33746 TIP3     3143     TIP3     H1       HT       0.417000       1.00800           0
     33747 TIP3     3143     TIP3     H2       HT       0.417000       1.00800           0
     33748 TIP3     3144     TIP3     OH2      OT      -0.834000       15.9994           0
     33749 TIP3     3144     TIP3     H1       HT       0.417000       1.00800           0
     33750 TIP3     3144     TIP3     H2       HT       0.417000       1.00800           0
     33751 TIP3     3145     TIP3     OH2      OT      -0.834000       15.9994           0
     33752 TIP3     3145     TIP3     H1       HT       0.417000       1.00800           0
     33753 TIP3     3145     TIP3     H2       HT       0.417000       1.00800           0
     33754 TIP3     3146     TIP3     OH2      OT      -0.834000       15.9994           0
     33755 TIP3     3146     TIP3     H1       HT       0.417000       1.00800           0
     33756 TIP3     3146     TIP3     H2       HT       0.417000       1.00800           0
     33757 TIP3     3147     TIP3     OH2      OT      -0.834000       15.9994           0
     33758 TIP3     3147     TIP3     H1       HT       0.417000       1.00800           0
     33759 TIP3     3147     TIP3     H2       HT       0.417000       1.00800           0
     33760 TIP3     3148     TIP3     OH2      OT      -0.834000       15.9994           0
     33761 TIP3     3148     TIP3     H1       HT       0.417000       1.00800           0
     33762 TIP3     3148     TIP3     H2       HT       0.417000       1.00800           0
     33763 TIP3     3149     TIP3     OH2      OT      -0.834000       15.9994           0
     33764 TIP3     3149     TIP3     H1       HT       0.417000       1.00800           0
     33765 TIP3     3149     TIP3     H2       HT       0.417000       1.00800           0
     33766 TIP3     3150     TIP3     OH2      OT      -0.834000       15.9994           0
     33767 TIP3     3150     TIP3     H1       HT       0.417000       1.00800           0
     33768 TIP3     3150     TIP3     H2       HT       0.417000       1.00800           0
     33769 TIP3     3151     TIP3     OH2      OT      -0.834000       15.9994           0
     33770 TIP3     3151     TIP3     H1       HT       0.417000       1.00800           0
     33771 TIP3     3151     TIP3     H2       HT       0.417000       1.00800           0
     33772 TIP3     3152     TIP3     OH2      OT      -0.834000       15.9994           0
     33773 TIP3     3152     TIP3     H1       HT       0.417000       1.00800           0
     33774 TIP3     3152     TIP3     H2       HT       0.417000       1.00800           0
     33775 TIP3     3153     TIP3     OH2      OT      -0.834000       15.9994           0
     33776 TIP3     3153     TIP3     H1       HT       0.417000       1.00800           0
     33777 TIP3     3153     TIP3     H2       HT       0.417000       1.00800           0
     33778 TIP3     3154     TIP3     OH2      OT      -0.834000       15.9994           0
     33779 TIP3     3154     TIP3     H1       HT       0.417000       1.00800           0
     33780 TIP3     3154     TIP3     H2       HT       0.417000       1.00800           0
     33781 TIP3     3155     TIP3     OH2      OT      -0.834000       15.9994           0
     33782 TIP3     3155     TIP3     H1       HT       0.417000       1.00800           0
     33783 TIP3     3155     TIP3     H2       HT       0.417000       1.00800           0
     33784 TIP3     3156     TIP3     OH2      OT      -0.834000       15.9994           0
     33785 TIP3     3156     TIP3     H1       HT       0.417000       1.00800           0
     33786 TIP3     3156     TIP3     H2       HT       0.417000       1.00800           0
     33787 TIP3     3157     TIP3     OH2      OT      -0.834000       15.9994           0
     33788 TIP3     3157     TIP3     H1       HT       0.417000       1.00800           0
     33789 TIP3     3157     TIP3     H2       HT       0.417000       1.00800           0
     33790 TIP3     3158     TIP3     OH2      OT      -0.834000       15.9994           0
     33791 TIP3     3158     TIP3     H1       HT       0.417000       1.00800           0
     33792 TIP3     3158     TIP3     H2       HT       0.417000       1.00800           0
     33793 TIP3     3159     TIP3     OH2      OT      -0.834000       15.9994           0
     33794 TIP3     3159     TIP3     H1       HT       0.417000       1.00800           0
     33795 TIP3     3159     TIP3     H2       HT       0.417000       1.00800           0
     33796 TIP3     3160     TIP3     OH2      OT      -0.834000       15.9994           0
     33797 TIP3     3160     TIP3     H1       HT       0.417000       1.00800           0
     33798 TIP3     3160     TIP3     H2       HT       0.417000       1.00800           0
     33799 TIP3     3161     TIP3     OH2      OT      -0.834000       15.9994           0
     33800 TIP3     3161     TIP3     H1       HT       0.417000       1.00800           0
     33801 TIP3     3161     TIP3     H2       HT       0.417000       1.00800           0
     33802 TIP3     3162     TIP3     OH2      OT      -0.834000       15.9994           0
     33803 TIP3     3162     TIP3     H1       HT       0.417000       1.00800           0
     33804 TIP3     3162     TIP3     H2       HT       0.417000       1.00800           0
     33805 TIP3     3163     TIP3     OH2      OT      -0.834000       15.9994           0
     33806 TIP3     3163     TIP3     H1       HT       0.417000       1.00800           0
     33807 TIP3     3163     TIP3     H2       HT       0.417000       1.00800           0
     33808 TIP3     3164     TIP3     OH2      OT      -0.834000       15.9994           0
     33809 TIP3     3164     TIP3     H1       HT       0.417000       1.00800           0
     33810 TIP3     3164     TIP3     H2       HT       0.417000       1.00800           0
     33811 TIP3     3165     TIP3     OH2      OT      -0.834000       15.9994           0
     33812 TIP3     3165     TIP3     H1       HT       0.417000       1.00800           0
     33813 TIP3     3165     TIP3     H2       HT       0.417000       1.00800           0
     33814 TIP3     3166     TIP3     OH2      OT      -0.834000       15.9994           0
     33815 TIP3     3166     TIP3     H1       HT       0.417000       1.00800           0
     33816 TIP3     3166     TIP3     H2       HT       0.417000       1.00800           0
     33817 TIP3     3167     TIP3     OH2      OT      -0.834000       15.9994           0
     33818 TIP3     3167     TIP3     H1       HT       0.417000       1.00800           0
     33819 TIP3     3167     TIP3     H2       HT       0.417000       1.00800           0
     33820 TIP3     3168     TIP3     OH2      OT      -0.834000       15.9994           0
     33821 TIP3     3168     TIP3     H1       HT       0.417000       1.00800           0
     33822 TIP3     3168     TIP3     H2       HT       0.417000       1.00800           0
     33823 TIP3     3169     TIP3     OH2      OT      -0.834000       15.9994           0
     33824 TIP3     3169     TIP3     H1       HT       0.417000       1.00800           0
     33825 TIP3     3169     TIP3     H2       HT       0.417000       1.00800           0
     33826 TIP3     3170     TIP3     OH2      OT      -0.834000       15.9994           0
     33827 TIP3     3170     TIP3     H1       HT       0.417000       1.00800           0
     33828 TIP3     3170     TIP3     H2       HT       0.417000       1.00800           0
     33829 TIP3     3171     TIP3     OH2      OT      -0.834000       15.9994           0
     33830 TIP3     3171     TIP3     H1       HT       0.417000       1.00800           0
     33831 TIP3     3171     TIP3     H2       HT       0.417000       1.00800           0
     33832 TIP3     3172     TIP3     OH2      OT      -0.834000       15.9994           0
     33833 TIP3     3172     TIP3     H1       HT       0.417000       1.00800           0
     33834 TIP3     3172     TIP3     H2       HT       0.417000       1.00800           0
     33835 TIP3     3173     TIP3     OH2      OT      -0.834000       15.9994           0
     33836 TIP3     3173     TIP3     H1       HT       0.417000       1.00800           0
     33837 TIP3     3173     TIP3     H2       HT       0.417000       1.00800           0
     33838 TIP3     3174     TIP3     OH2      OT      -0.834000       15.9994           0
     33839 TIP3     3174     TIP3     H1       HT       0.417000       1.00800           0
     33840 TIP3     3174     TIP3     H2       HT       0.417000       1.00800           0
     33841 TIP3     3175     TIP3     OH2      OT      -0.834000       15.9994           0
     33842 TIP3     3175     TIP3     H1       HT       0.417000       1.00800           0
     33843 TIP3     3175     TIP3     H2       HT       0.417000       1.00800           0
     33844 TIP3     3176     TIP3     OH2      OT      -0.834000       15.9994           0
     33845 TIP3     3176     TIP3     H1       HT       0.417000       1.00800           0
     33846 TIP3     3176     TIP3     H2       HT       0.417000       1.00800           0
     33847 TIP3     3177     TIP3     OH2      OT      -0.834000       15.9994           0
     33848 TIP3     3177     TIP3     H1       HT       0.417000       1.00800           0
     33849 TIP3     3177     TIP3     H2       HT       0.417000       1.00800           0
     33850 TIP3     3178     TIP3     OH2      OT      -0.834000       15.9994           0
     33851 TIP3     3178     TIP3     H1       HT       0.417000       1.00800           0
     33852 TIP3     3178     TIP3     H2       HT       0.417000       1.00800           0
     33853 TIP3     3179     TIP3     OH2      OT      -0.834000       15.9994           0
     33854 TIP3     3179     TIP3     H1       HT       0.417000       1.00800           0
     33855 TIP3     3179     TIP3     H2       HT       0.417000       1.00800           0
     33856 TIP3     3180     TIP3     OH2      OT      -0.834000       15.9994           0
     33857 TIP3     3180     TIP3     H1       HT       0.417000       1.00800           0
     33858 TIP3     3180     TIP3     H2       HT       0.417000       1.00800           0
     33859 TIP3     3181     TIP3     OH2      OT      -0.834000       15.9994           0
     33860 TIP3     3181     TIP3     H1       HT       0.417000       1.00800           0
     33861 TIP3     3181     TIP3     H2       HT       0.417000       1.00800           0
     33862 TIP3     3182     TIP3     OH2      OT      -0.834000       15.9994           0
     33863 TIP3     3182     TIP3     H1       HT       0.417000       1.00800           0
     33864 TIP3     3182     TIP3     H2       HT       0.417000       1.00800           0
     33865 TIP3     3183     TIP3     OH2      OT      -0.834000       15.9994           0
     33866 TIP3     3183     TIP3     H1       HT       0.417000       1.00800           0
     33867 TIP3     3183     TIP3     H2       HT       0.417000       1.00800           0
     33868 TIP3     3184     TIP3     OH2      OT      -0.834000       15.9994           0
     33869 TIP3     3184     TIP3     H1       HT       0.417000       1.00800           0
     33870 TIP3     3184     TIP3     H2       HT       0.417000       1.00800           0
     33871 TIP3     3185     TIP3     OH2      OT      -0.834000       15.9994           0
     33872 TIP3     3185     TIP3     H1       HT       0.417000       1.00800           0
     33873 TIP3     3185     TIP3     H2       HT       0.417000       1.00800           0
     33874 TIP3     3186     TIP3     OH2      OT      -0.834000       15.9994           0
     33875 TIP3     3186     TIP3     H1       HT       0.417000       1.00800           0
     33876 TIP3     3186     TIP3     H2       HT       0.417000       1.00800           0
     33877 TIP3     3187     TIP3     OH2      OT      -0.834000       15.9994           0
     33878 TIP3     3187     TIP3     H1       HT       0.417000       1.00800           0
     33879 TIP3     3187     TIP3     H2       HT       0.417000       1.00800           0
     33880 TIP3     3188     TIP3     OH2      OT      -0.834000       15.9994           0
     33881 TIP3     3188     TIP3     H1       HT       0.417000       1.00800           0
     33882 TIP3     3188     TIP3     H2       HT       0.417000       1.00800           0
     33883 TIP3     3189     TIP3     OH2      OT      -0.834000       15.9994           0
     33884 TIP3     3189     TIP3     H1       HT       0.417000       1.00800           0
     33885 TIP3     3189     TIP3     H2       HT       0.417000       1.00800           0
     33886 TIP3     3190     TIP3     OH2      OT      -0.834000       15.9994           0
     33887 TIP3     3190     TIP3     H1       HT       0.417000       1.00800           0
     33888 TIP3     3190     TIP3     H2       HT       0.417000       1.00800           0
     33889 TIP3     3191     TIP3     OH2      OT      -0.834000       15.9994           0
     33890 TIP3     3191     TIP3     H1       HT       0.417000       1.00800           0
     33891 TIP3     3191     TIP3     H2       HT       0.417000       1.00800           0
     33892 TIP3     3192     TIP3     OH2      OT      -0.834000       15.9994           0
     33893 TIP3     3192     TIP3     H1       HT       0.417000       1.00800           0
     33894 TIP3     3192     TIP3     H2       HT       0.417000       1.00800           0
     33895 TIP3     3193     TIP3     OH2      OT      -0.834000       15.9994           0
     33896 TIP3     3193     TIP3     H1       HT       0.417000       1.00800           0
     33897 TIP3     3193     TIP3     H2       HT       0.417000       1.00800           0
     33898 TIP3     3194     TIP3     OH2      OT      -0.834000       15.9994           0
     33899 TIP3     3194     TIP3     H1       HT       0.417000       1.00800           0
     33900 TIP3     3194     TIP3     H2       HT       0.417000       1.00800           0
     33901 TIP3     3195     TIP3     OH2      OT      -0.834000       15.9994           0
     33902 TIP3     3195     TIP3     H1       HT       0.417000       1.00800           0
     33903 TIP3     3195     TIP3     H2       HT       0.417000       1.00800           0
     33904 TIP3     3196     TIP3     OH2      OT      -0.834000       15.9994           0
     33905 TIP3     3196     TIP3     H1       HT       0.417000       1.00800           0
     33906 TIP3     3196     TIP3     H2       HT       0.417000       1.00800           0
     33907 TIP3     3197     TIP3     OH2      OT      -0.834000       15.9994           0
     33908 TIP3     3197     TIP3     H1       HT       0.417000       1.00800           0
     33909 TIP3     3197     TIP3     H2       HT       0.417000       1.00800           0
     33910 TIP3     3198     TIP3     OH2      OT      -0.834000       15.9994           0
     33911 TIP3     3198     TIP3     H1       HT       0.417000       1.00800           0
     33912 TIP3     3198     TIP3     H2       HT       0.417000       1.00800           0
     33913 TIP3     3199     TIP3     OH2      OT      -0.834000       15.9994           0
     33914 TIP3     3199     TIP3     H1       HT       0.417000       1.00800           0
     33915 TIP3     3199     TIP3     H2       HT       0.417000       1.00800           0
     33916 TIP3     3200     TIP3     OH2      OT      -0.834000       15.9994           0
     33917 TIP3     3200     TIP3     H1       HT       0.417000       1.00800           0
     33918 TIP3     3200     TIP3     H2       HT       0.417000       1.00800           0
     33919 TIP3     3201     TIP3     OH2      OT      -0.834000       15.9994           0
     33920 TIP3     3201     TIP3     H1       HT       0.417000       1.00800           0
     33921 TIP3     3201     TIP3     H2       HT       0.417000       1.00800           0
     33922 TIP3     3202     TIP3     OH2      OT      -0.834000       15.9994           0
     33923 TIP3     3202     TIP3     H1       HT       0.417000       1.00800           0
     33924 TIP3     3202     TIP3     H2       HT       0.417000       1.00800           0
     33925 TIP3     3203     TIP3     OH2      OT      -0.834000       15.9994           0
     33926 TIP3     3203     TIP3     H1       HT       0.417000       1.00800           0
     33927 TIP3     3203     TIP3     H2       HT       0.417000       1.00800           0
     33928 TIP3     3204     TIP3     OH2      OT      -0.834000       15.9994           0
     33929 TIP3     3204     TIP3     H1       HT       0.417000       1.00800           0
     33930 TIP3     3204     TIP3     H2       HT       0.417000       1.00800           0
     33931 TIP3     3205     TIP3     OH2      OT      -0.834000       15.9994           0
     33932 TIP3     3205     TIP3     H1       HT       0.417000       1.00800           0
     33933 TIP3     3205     TIP3     H2       HT       0.417000       1.00800           0
     33934 TIP3     3206     TIP3     OH2      OT      -0.834000       15.9994           0
     33935 TIP3     3206     TIP3     H1       HT       0.417000       1.00800           0
     33936 TIP3     3206     TIP3     H2       HT       0.417000       1.00800           0
     33937 TIP3     3207     TIP3     OH2      OT      -0.834000       15.9994           0
     33938 TIP3     3207     TIP3     H1       HT       0.417000       1.00800           0
     33939 TIP3     3207     TIP3     H2       HT       0.417000       1.00800           0
     33940 TIP3     3208     TIP3     OH2      OT      -0.834000       15.9994           0
     33941 TIP3     3208     TIP3     H1       HT       0.417000       1.00800           0
     33942 TIP3     3208     TIP3     H2       HT       0.417000       1.00800           0
     33943 TIP3     3209     TIP3     OH2      OT      -0.834000       15.9994           0
     33944 TIP3     3209     TIP3     H1       HT       0.417000       1.00800           0
     33945 TIP3     3209     TIP3     H2       HT       0.417000       1.00800           0
     33946 TIP3     3210     TIP3     OH2      OT      -0.834000       15.9994           0
     33947 TIP3     3210     TIP3     H1       HT       0.417000       1.00800           0
     33948 TIP3     3210     TIP3     H2       HT       0.417000       1.00800           0
     33949 TIP3     3211     TIP3     OH2      OT      -0.834000       15.9994           0
     33950 TIP3     3211     TIP3     H1       HT       0.417000       1.00800           0
     33951 TIP3     3211     TIP3     H2       HT       0.417000       1.00800           0
     33952 TIP3     3212     TIP3     OH2      OT      -0.834000       15.9994           0
     33953 TIP3     3212     TIP3     H1       HT       0.417000       1.00800           0
     33954 TIP3     3212     TIP3     H2       HT       0.417000       1.00800           0
     33955 TIP3     3213     TIP3     OH2      OT      -0.834000       15.9994           0
     33956 TIP3     3213     TIP3     H1       HT       0.417000       1.00800           0
     33957 TIP3     3213     TIP3     H2       HT       0.417000       1.00800           0
     33958 TIP3     3214     TIP3     OH2      OT      -0.834000       15.9994           0
     33959 TIP3     3214     TIP3     H1       HT       0.417000       1.00800           0
     33960 TIP3     3214     TIP3     H2       HT       0.417000       1.00800           0
     33961 TIP3     3215     TIP3     OH2      OT      -0.834000       15.9994           0
     33962 TIP3     3215     TIP3     H1       HT       0.417000       1.00800           0
     33963 TIP3     3215     TIP3     H2       HT       0.417000       1.00800           0
     33964 TIP3     3216     TIP3     OH2      OT      -0.834000       15.9994           0
     33965 TIP3     3216     TIP3     H1       HT       0.417000       1.00800           0
     33966 TIP3     3216     TIP3     H2       HT       0.417000       1.00800           0
     33967 TIP3     3217     TIP3     OH2      OT      -0.834000       15.9994           0
     33968 TIP3     3217     TIP3     H1       HT       0.417000       1.00800           0
     33969 TIP3     3217     TIP3     H2       HT       0.417000       1.00800           0
     33970 TIP3     3218     TIP3     OH2      OT      -0.834000       15.9994           0
     33971 TIP3     3218     TIP3     H1       HT       0.417000       1.00800           0
     33972 TIP3     3218     TIP3     H2       HT       0.417000       1.00800           0
     33973 TIP3     3219     TIP3     OH2      OT      -0.834000       15.9994           0
     33974 TIP3     3219     TIP3     H1       HT       0.417000       1.00800           0
     33975 TIP3     3219     TIP3     H2       HT       0.417000       1.00800           0
     33976 TIP3     3220     TIP3     OH2      OT      -0.834000       15.9994           0
     33977 TIP3     3220     TIP3     H1       HT       0.417000       1.00800           0
     33978 TIP3     3220     TIP3     H2       HT       0.417000       1.00800           0
     33979 TIP3     3221     TIP3     OH2      OT      -0.834000       15.9994           0
     33980 TIP3     3221     TIP3     H1       HT       0.417000       1.00800           0
     33981 TIP3     3221     TIP3     H2       HT       0.417000       1.00800           0
     33982 TIP3     3222     TIP3     OH2      OT      -0.834000       15.9994           0
     33983 TIP3     3222     TIP3     H1       HT       0.417000       1.00800           0
     33984 TIP3     3222     TIP3     H2       HT       0.417000       1.00800           0
     33985 TIP3     3223     TIP3     OH2      OT      -0.834000       15.9994           0
     33986 TIP3     3223     TIP3     H1       HT       0.417000       1.00800           0
     33987 TIP3     3223     TIP3     H2       HT       0.417000       1.00800           0
     33988 TIP3     3224     TIP3     OH2      OT      -0.834000       15.9994           0
     33989 TIP3     3224     TIP3     H1       HT       0.417000       1.00800           0
     33990 TIP3     3224     TIP3     H2       HT       0.417000       1.00800           0
     33991 TIP3     3225     TIP3     OH2      OT      -0.834000       15.9994           0
     33992 TIP3     3225     TIP3     H1       HT       0.417000       1.00800           0
     33993 TIP3     3225     TIP3     H2       HT       0.417000       1.00800           0
     33994 TIP3     3226     TIP3     OH2      OT      -0.834000       15.9994           0
     33995 TIP3     3226     TIP3     H1       HT       0.417000       1.00800           0
     33996 TIP3     3226     TIP3     H2       HT       0.417000       1.00800           0
     33997 TIP3     3227     TIP3     OH2      OT      -0.834000       15.9994           0
     33998 TIP3     3227     TIP3     H1       HT       0.417000       1.00800           0
     33999 TIP3     3227     TIP3     H2       HT       0.417000       1.00800           0
     34000 TIP3     3228     TIP3     OH2      OT      -0.834000       15.9994           0
     34001 TIP3     3228     TIP3     H1       HT       0.417000       1.00800           0
     34002 TIP3     3228     TIP3     H2       HT       0.417000       1.00800           0
     34003 TIP3     3229     TIP3     OH2      OT      -0.834000       15.9994           0
     34004 TIP3     3229     TIP3     H1       HT       0.417000       1.00800           0
     34005 TIP3     3229     TIP3     H2       HT       0.417000       1.00800           0
     34006 TIP3     3230     TIP3     OH2      OT      -0.834000       15.9994           0
     34007 TIP3     3230     TIP3     H1       HT       0.417000       1.00800           0
     34008 TIP3     3230     TIP3     H2       HT       0.417000       1.00800           0
     34009 TIP3     3231     TIP3     OH2      OT      -0.834000       15.9994           0
     34010 TIP3     3231     TIP3     H1       HT       0.417000       1.00800           0
     34011 TIP3     3231     TIP3     H2       HT       0.417000       1.00800           0
     34012 TIP3     3232     TIP3     OH2      OT      -0.834000       15.9994           0
     34013 TIP3     3232     TIP3     H1       HT       0.417000       1.00800           0
     34014 TIP3     3232     TIP3     H2       HT       0.417000       1.00800           0
     34015 TIP3     3233     TIP3     OH2      OT      -0.834000       15.9994           0
     34016 TIP3     3233     TIP3     H1       HT       0.417000       1.00800           0
     34017 TIP3     3233     TIP3     H2       HT       0.417000       1.00800           0
     34018 TIP3     3234     TIP3     OH2      OT      -0.834000       15.9994           0
     34019 TIP3     3234     TIP3     H1       HT       0.417000       1.00800           0
     34020 TIP3     3234     TIP3     H2       HT       0.417000       1.00800           0
     34021 TIP3     3235     TIP3     OH2      OT      -0.834000       15.9994           0
     34022 TIP3     3235     TIP3     H1       HT       0.417000       1.00800           0
     34023 TIP3     3235     TIP3     H2       HT       0.417000       1.00800           0
     34024 TIP3     3236     TIP3     OH2      OT      -0.834000       15.9994           0
     34025 TIP3     3236     TIP3     H1       HT       0.417000       1.00800           0
     34026 TIP3     3236     TIP3     H2       HT       0.417000       1.00800           0
     34027 TIP3     3237     TIP3     OH2      OT      -0.834000       15.9994           0
     34028 TIP3     3237     TIP3     H1       HT       0.417000       1.00800           0
     34029 TIP3     3237     TIP3     H2       HT       0.417000       1.00800           0
     34030 TIP3     3238     TIP3     OH2      OT      -0.834000       15.9994           0
     34031 TIP3     3238     TIP3     H1       HT       0.417000       1.00800           0
     34032 TIP3     3238     TIP3     H2       HT       0.417000       1.00800           0
     34033 TIP3     3239     TIP3     OH2      OT      -0.834000       15.9994           0
     34034 TIP3     3239     TIP3     H1       HT       0.417000       1.00800           0
     34035 TIP3     3239     TIP3     H2       HT       0.417000       1.00800           0
     34036 TIP3     3240     TIP3     OH2      OT      -0.834000       15.9994           0
     34037 TIP3     3240     TIP3     H1       HT       0.417000       1.00800           0
     34038 TIP3     3240     TIP3     H2       HT       0.417000       1.00800           0
     34039 TIP3     3241     TIP3     OH2      OT      -0.834000       15.9994           0
     34040 TIP3     3241     TIP3     H1       HT       0.417000       1.00800           0
     34041 TIP3     3241     TIP3     H2       HT       0.417000       1.00800           0
     34042 TIP3     3242     TIP3     OH2      OT      -0.834000       15.9994           0
     34043 TIP3     3242     TIP3     H1       HT       0.417000       1.00800           0
     34044 TIP3     3242     TIP3     H2       HT       0.417000       1.00800           0
     34045 TIP3     3243     TIP3     OH2      OT      -0.834000       15.9994           0
     34046 TIP3     3243     TIP3     H1       HT       0.417000       1.00800           0
     34047 TIP3     3243     TIP3     H2       HT       0.417000       1.00800           0
     34048 TIP3     3244     TIP3     OH2      OT      -0.834000       15.9994           0
     34049 TIP3     3244     TIP3     H1       HT       0.417000       1.00800           0
     34050 TIP3     3244     TIP3     H2       HT       0.417000       1.00800           0
     34051 TIP3     3245     TIP3     OH2      OT      -0.834000       15.9994           0
     34052 TIP3     3245     TIP3     H1       HT       0.417000       1.00800           0
     34053 TIP3     3245     TIP3     H2       HT       0.417000       1.00800           0
     34054 TIP3     3246     TIP3     OH2      OT      -0.834000       15.9994           0
     34055 TIP3     3246     TIP3     H1       HT       0.417000       1.00800           0
     34056 TIP3     3246     TIP3     H2       HT       0.417000       1.00800           0
     34057 TIP3     3247     TIP3     OH2      OT      -0.834000       15.9994           0
     34058 TIP3     3247     TIP3     H1       HT       0.417000       1.00800           0
     34059 TIP3     3247     TIP3     H2       HT       0.417000       1.00800           0
     34060 TIP3     3248     TIP3     OH2      OT      -0.834000       15.9994           0
     34061 TIP3     3248     TIP3     H1       HT       0.417000       1.00800           0
     34062 TIP3     3248     TIP3     H2       HT       0.417000       1.00800           0
     34063 TIP3     3249     TIP3     OH2      OT      -0.834000       15.9994           0
     34064 TIP3     3249     TIP3     H1       HT       0.417000       1.00800           0
     34065 TIP3     3249     TIP3     H2       HT       0.417000       1.00800           0
     34066 TIP3     3250     TIP3     OH2      OT      -0.834000       15.9994           0
     34067 TIP3     3250     TIP3     H1       HT       0.417000       1.00800           0
     34068 TIP3     3250     TIP3     H2       HT       0.417000       1.00800           0
     34069 TIP3     3251     TIP3     OH2      OT      -0.834000       15.9994           0
     34070 TIP3     3251     TIP3     H1       HT       0.417000       1.00800           0
     34071 TIP3     3251     TIP3     H2       HT       0.417000       1.00800           0
     34072 TIP3     3252     TIP3     OH2      OT      -0.834000       15.9994           0
     34073 TIP3     3252     TIP3     H1       HT       0.417000       1.00800           0
     34074 TIP3     3252     TIP3     H2       HT       0.417000       1.00800           0
     34075 TIP3     3253     TIP3     OH2      OT      -0.834000       15.9994           0
     34076 TIP3     3253     TIP3     H1       HT       0.417000       1.00800           0
     34077 TIP3     3253     TIP3     H2       HT       0.417000       1.00800           0
     34078 TIP3     3254     TIP3     OH2      OT      -0.834000       15.9994           0
     34079 TIP3     3254     TIP3     H1       HT       0.417000       1.00800           0
     34080 TIP3     3254     TIP3     H2       HT       0.417000       1.00800           0
     34081 TIP3     3255     TIP3     OH2      OT      -0.834000       15.9994           0
     34082 TIP3     3255     TIP3     H1       HT       0.417000       1.00800           0
     34083 TIP3     3255     TIP3     H2       HT       0.417000       1.00800           0
     34084 TIP3     3256     TIP3     OH2      OT      -0.834000       15.9994           0
     34085 TIP3     3256     TIP3     H1       HT       0.417000       1.00800           0
     34086 TIP3     3256     TIP3     H2       HT       0.417000       1.00800           0
     34087 TIP3     3257     TIP3     OH2      OT      -0.834000       15.9994           0
     34088 TIP3     3257     TIP3     H1       HT       0.417000       1.00800           0
     34089 TIP3     3257     TIP3     H2       HT       0.417000       1.00800           0
     34090 TIP3     3258     TIP3     OH2      OT      -0.834000       15.9994           0
     34091 TIP3     3258     TIP3     H1       HT       0.417000       1.00800           0
     34092 TIP3     3258     TIP3     H2       HT       0.417000       1.00800           0
     34093 TIP3     3259     TIP3     OH2      OT      -0.834000       15.9994           0
     34094 TIP3     3259     TIP3     H1       HT       0.417000       1.00800           0
     34095 TIP3     3259     TIP3     H2       HT       0.417000       1.00800           0
     34096 TIP3     3260     TIP3     OH2      OT      -0.834000       15.9994           0
     34097 TIP3     3260     TIP3     H1       HT       0.417000       1.00800           0
     34098 TIP3     3260     TIP3     H2       HT       0.417000       1.00800           0
     34099 TIP3     3261     TIP3     OH2      OT      -0.834000       15.9994           0
     34100 TIP3     3261     TIP3     H1       HT       0.417000       1.00800           0
     34101 TIP3     3261     TIP3     H2       HT       0.417000       1.00800           0
     34102 TIP3     3262     TIP3     OH2      OT      -0.834000       15.9994           0
     34103 TIP3     3262     TIP3     H1       HT       0.417000       1.00800           0
     34104 TIP3     3262     TIP3     H2       HT       0.417000       1.00800           0
     34105 TIP3     3263     TIP3     OH2      OT      -0.834000       15.9994           0
     34106 TIP3     3263     TIP3     H1       HT       0.417000       1.00800           0
     34107 TIP3     3263     TIP3     H2       HT       0.417000       1.00800           0
     34108 TIP3     3264     TIP3     OH2      OT      -0.834000       15.9994           0
     34109 TIP3     3264     TIP3     H1       HT       0.417000       1.00800           0
     34110 TIP3     3264     TIP3     H2       HT       0.417000       1.00800           0
     34111 TIP3     3265     TIP3     OH2      OT      -0.834000       15.9994           0
     34112 TIP3     3265     TIP3     H1       HT       0.417000       1.00800           0
     34113 TIP3     3265     TIP3     H2       HT       0.417000       1.00800           0
     34114 TIP3     3266     TIP3     OH2      OT      -0.834000       15.9994           0
     34115 TIP3     3266     TIP3     H1       HT       0.417000       1.00800           0
     34116 TIP3     3266     TIP3     H2       HT       0.417000       1.00800           0
     34117 TIP3     3267     TIP3     OH2      OT      -0.834000       15.9994           0
     34118 TIP3     3267     TIP3     H1       HT       0.417000       1.00800           0
     34119 TIP3     3267     TIP3     H2       HT       0.417000       1.00800           0
     34120 TIP3     3268     TIP3     OH2      OT      -0.834000       15.9994           0
     34121 TIP3     3268     TIP3     H1       HT       0.417000       1.00800           0
     34122 TIP3     3268     TIP3     H2       HT       0.417000       1.00800           0
     34123 TIP3     3269     TIP3     OH2      OT      -0.834000       15.9994           0
     34124 TIP3     3269     TIP3     H1       HT       0.417000       1.00800           0
     34125 TIP3     3269     TIP3     H2       HT       0.417000       1.00800           0
     34126 TIP3     3270     TIP3     OH2      OT      -0.834000       15.9994           0
     34127 TIP3     3270     TIP3     H1       HT       0.417000       1.00800           0
     34128 TIP3     3270     TIP3     H2       HT       0.417000       1.00800           0
     34129 TIP3     3271     TIP3     OH2      OT      -0.834000       15.9994           0
     34130 TIP3     3271     TIP3     H1       HT       0.417000       1.00800           0
     34131 TIP3     3271     TIP3     H2       HT       0.417000       1.00800           0
     34132 TIP3     3272     TIP3     OH2      OT      -0.834000       15.9994           0
     34133 TIP3     3272     TIP3     H1       HT       0.417000       1.00800           0
     34134 TIP3     3272     TIP3     H2       HT       0.417000       1.00800           0
     34135 TIP3     3273     TIP3     OH2      OT      -0.834000       15.9994           0
     34136 TIP3     3273     TIP3     H1       HT       0.417000       1.00800           0
     34137 TIP3     3273     TIP3     H2       HT       0.417000       1.00800           0
     34138 TIP3     3274     TIP3     OH2      OT      -0.834000       15.9994           0
     34139 TIP3     3274     TIP3     H1       HT       0.417000       1.00800           0
     34140 TIP3     3274     TIP3     H2       HT       0.417000       1.00800           0
     34141 TIP3     3275     TIP3     OH2      OT      -0.834000       15.9994           0
     34142 TIP3     3275     TIP3     H1       HT       0.417000       1.00800           0
     34143 TIP3     3275     TIP3     H2       HT       0.417000       1.00800           0
     34144 TIP3     3276     TIP3     OH2      OT      -0.834000       15.9994           0
     34145 TIP3     3276     TIP3     H1       HT       0.417000       1.00800           0
     34146 TIP3     3276     TIP3     H2       HT       0.417000       1.00800           0
     34147 TIP3     3277     TIP3     OH2      OT      -0.834000       15.9994           0
     34148 TIP3     3277     TIP3     H1       HT       0.417000       1.00800           0
     34149 TIP3     3277     TIP3     H2       HT       0.417000       1.00800           0
     34150 TIP3     3278     TIP3     OH2      OT      -0.834000       15.9994           0
     34151 TIP3     3278     TIP3     H1       HT       0.417000       1.00800           0
     34152 TIP3     3278     TIP3     H2       HT       0.417000       1.00800           0
     34153 TIP3     3279     TIP3     OH2      OT      -0.834000       15.9994           0
     34154 TIP3     3279     TIP3     H1       HT       0.417000       1.00800           0
     34155 TIP3     3279     TIP3     H2       HT       0.417000       1.00800           0
     34156 TIP3     3280     TIP3     OH2      OT      -0.834000       15.9994           0
     34157 TIP3     3280     TIP3     H1       HT       0.417000       1.00800           0
     34158 TIP3     3280     TIP3     H2       HT       0.417000       1.00800           0
     34159 TIP3     3281     TIP3     OH2      OT      -0.834000       15.9994           0
     34160 TIP3     3281     TIP3     H1       HT       0.417000       1.00800           0
     34161 TIP3     3281     TIP3     H2       HT       0.417000       1.00800           0
     34162 TIP3     3282     TIP3     OH2      OT      -0.834000       15.9994           0
     34163 TIP3     3282     TIP3     H1       HT       0.417000       1.00800           0
     34164 TIP3     3282     TIP3     H2       HT       0.417000       1.00800           0
     34165 TIP3     3283     TIP3     OH2      OT      -0.834000       15.9994           0
     34166 TIP3     3283     TIP3     H1       HT       0.417000       1.00800           0
     34167 TIP3     3283     TIP3     H2       HT       0.417000       1.00800           0
     34168 TIP3     3284     TIP3     OH2      OT      -0.834000       15.9994           0
     34169 TIP3     3284     TIP3     H1       HT       0.417000       1.00800           0
     34170 TIP3     3284     TIP3     H2       HT       0.417000       1.00800           0
     34171 TIP3     3285     TIP3     OH2      OT      -0.834000       15.9994           0
     34172 TIP3     3285     TIP3     H1       HT       0.417000       1.00800           0
     34173 TIP3     3285     TIP3     H2       HT       0.417000       1.00800           0
     34174 TIP3     3286     TIP3     OH2      OT      -0.834000       15.9994           0
     34175 TIP3     3286     TIP3     H1       HT       0.417000       1.00800           0
     34176 TIP3     3286     TIP3     H2       HT       0.417000       1.00800           0
     34177 TIP3     3287     TIP3     OH2      OT      -0.834000       15.9994           0
     34178 TIP3     3287     TIP3     H1       HT       0.417000       1.00800           0
     34179 TIP3     3287     TIP3     H2       HT       0.417000       1.00800           0
     34180 TIP3     3288     TIP3     OH2      OT      -0.834000       15.9994           0
     34181 TIP3     3288     TIP3     H1       HT       0.417000       1.00800           0
     34182 TIP3     3288     TIP3     H2       HT       0.417000       1.00800           0
     34183 TIP3     3289     TIP3     OH2      OT      -0.834000       15.9994           0
     34184 TIP3     3289     TIP3     H1       HT       0.417000       1.00800           0
     34185 TIP3     3289     TIP3     H2       HT       0.417000       1.00800           0
     34186 TIP3     3290     TIP3     OH2      OT      -0.834000       15.9994           0
     34187 TIP3     3290     TIP3     H1       HT       0.417000       1.00800           0
     34188 TIP3     3290     TIP3     H2       HT       0.417000       1.00800           0
     34189 TIP3     3291     TIP3     OH2      OT      -0.834000       15.9994           0
     34190 TIP3     3291     TIP3     H1       HT       0.417000       1.00800           0
     34191 TIP3     3291     TIP3     H2       HT       0.417000       1.00800           0
     34192 TIP3     3292     TIP3     OH2      OT      -0.834000       15.9994           0
     34193 TIP3     3292     TIP3     H1       HT       0.417000       1.00800           0
     34194 TIP3     3292     TIP3     H2       HT       0.417000       1.00800           0
     34195 TIP3     3293     TIP3     OH2      OT      -0.834000       15.9994           0
     34196 TIP3     3293     TIP3     H1       HT       0.417000       1.00800           0
     34197 TIP3     3293     TIP3     H2       HT       0.417000       1.00800           0
     34198 TIP3     3294     TIP3     OH2      OT      -0.834000       15.9994           0
     34199 TIP3     3294     TIP3     H1       HT       0.417000       1.00800           0
     34200 TIP3     3294     TIP3     H2       HT       0.417000       1.00800           0
     34201 TIP3     3295     TIP3     OH2      OT      -0.834000       15.9994           0
     34202 TIP3     3295     TIP3     H1       HT       0.417000       1.00800           0
     34203 TIP3     3295     TIP3     H2       HT       0.417000       1.00800           0
     34204 TIP3     3296     TIP3     OH2      OT      -0.834000       15.9994           0
     34205 TIP3     3296     TIP3     H1       HT       0.417000       1.00800           0
     34206 TIP3     3296     TIP3     H2       HT       0.417000       1.00800           0
     34207 TIP3     3297     TIP3     OH2      OT      -0.834000       15.9994           0
     34208 TIP3     3297     TIP3     H1       HT       0.417000       1.00800           0
     34209 TIP3     3297     TIP3     H2       HT       0.417000       1.00800           0
     34210 TIP3     3298     TIP3     OH2      OT      -0.834000       15.9994           0
     34211 TIP3     3298     TIP3     H1       HT       0.417000       1.00800           0
     34212 TIP3     3298     TIP3     H2       HT       0.417000       1.00800           0
     34213 TIP3     3299     TIP3     OH2      OT      -0.834000       15.9994           0
     34214 TIP3     3299     TIP3     H1       HT       0.417000       1.00800           0
     34215 TIP3     3299     TIP3     H2       HT       0.417000       1.00800           0
     34216 TIP3     3300     TIP3     OH2      OT      -0.834000       15.9994           0
     34217 TIP3     3300     TIP3     H1       HT       0.417000       1.00800           0
     34218 TIP3     3300     TIP3     H2       HT       0.417000       1.00800           0
     34219 TIP3     3301     TIP3     OH2      OT      -0.834000       15.9994           0
     34220 TIP3     3301     TIP3     H1       HT       0.417000       1.00800           0
     34221 TIP3     3301     TIP3     H2       HT       0.417000       1.00800           0
     34222 TIP3     3302     TIP3     OH2      OT      -0.834000       15.9994           0
     34223 TIP3     3302     TIP3     H1       HT       0.417000       1.00800           0
     34224 TIP3     3302     TIP3     H2       HT       0.417000       1.00800           0
     34225 TIP3     3303     TIP3     OH2      OT      -0.834000       15.9994           0
     34226 TIP3     3303     TIP3     H1       HT       0.417000       1.00800           0
     34227 TIP3     3303     TIP3     H2       HT       0.417000       1.00800           0
     34228 TIP3     3304     TIP3     OH2      OT      -0.834000       15.9994           0
     34229 TIP3     3304     TIP3     H1       HT       0.417000       1.00800           0
     34230 TIP3     3304     TIP3     H2       HT       0.417000       1.00800           0
     34231 TIP3     3305     TIP3     OH2      OT      -0.834000       15.9994           0
     34232 TIP3     3305     TIP3     H1       HT       0.417000       1.00800           0
     34233 TIP3     3305     TIP3     H2       HT       0.417000       1.00800           0
     34234 TIP3     3306     TIP3     OH2      OT      -0.834000       15.9994           0
     34235 TIP3     3306     TIP3     H1       HT       0.417000       1.00800           0
     34236 TIP3     3306     TIP3     H2       HT       0.417000       1.00800           0
     34237 TIP3     3307     TIP3     OH2      OT      -0.834000       15.9994           0
     34238 TIP3     3307     TIP3     H1       HT       0.417000       1.00800           0
     34239 TIP3     3307     TIP3     H2       HT       0.417000       1.00800           0
     34240 TIP3     3308     TIP3     OH2      OT      -0.834000       15.9994           0
     34241 TIP3     3308     TIP3     H1       HT       0.417000       1.00800           0
     34242 TIP3     3308     TIP3     H2       HT       0.417000       1.00800           0
     34243 TIP3     3309     TIP3     OH2      OT      -0.834000       15.9994           0
     34244 TIP3     3309     TIP3     H1       HT       0.417000       1.00800           0
     34245 TIP3     3309     TIP3     H2       HT       0.417000       1.00800           0
     34246 TIP3     3310     TIP3     OH2      OT      -0.834000       15.9994           0
     34247 TIP3     3310     TIP3     H1       HT       0.417000       1.00800           0
     34248 TIP3     3310     TIP3     H2       HT       0.417000       1.00800           0
     34249 TIP3     3311     TIP3     OH2      OT      -0.834000       15.9994           0
     34250 TIP3     3311     TIP3     H1       HT       0.417000       1.00800           0
     34251 TIP3     3311     TIP3     H2       HT       0.417000       1.00800           0
     34252 TIP3     3312     TIP3     OH2      OT      -0.834000       15.9994           0
     34253 TIP3     3312     TIP3     H1       HT       0.417000       1.00800           0
     34254 TIP3     3312     TIP3     H2       HT       0.417000       1.00800           0
     34255 TIP3     3313     TIP3     OH2      OT      -0.834000       15.9994           0
     34256 TIP3     3313     TIP3     H1       HT       0.417000       1.00800           0
     34257 TIP3     3313     TIP3     H2       HT       0.417000       1.00800           0
     34258 TIP3     3314     TIP3     OH2      OT      -0.834000       15.9994           0
     34259 TIP3     3314     TIP3     H1       HT       0.417000       1.00800           0
     34260 TIP3     3314     TIP3     H2       HT       0.417000       1.00800           0
     34261 TIP3     3315     TIP3     OH2      OT      -0.834000       15.9994           0
     34262 TIP3     3315     TIP3     H1       HT       0.417000       1.00800           0
     34263 TIP3     3315     TIP3     H2       HT       0.417000       1.00800           0
     34264 TIP3     3316     TIP3     OH2      OT      -0.834000       15.9994           0
     34265 TIP3     3316     TIP3     H1       HT       0.417000       1.00800           0
     34266 TIP3     3316     TIP3     H2       HT       0.417000       1.00800           0
     34267 TIP3     3317     TIP3     OH2      OT      -0.834000       15.9994           0
     34268 TIP3     3317     TIP3     H1       HT       0.417000       1.00800           0
     34269 TIP3     3317     TIP3     H2       HT       0.417000       1.00800           0
     34270 TIP3     3318     TIP3     OH2      OT      -0.834000       15.9994           0
     34271 TIP3     3318     TIP3     H1       HT       0.417000       1.00800           0
     34272 TIP3     3318     TIP3     H2       HT       0.417000       1.00800           0
     34273 TIP3     3319     TIP3     OH2      OT      -0.834000       15.9994           0
     34274 TIP3     3319     TIP3     H1       HT       0.417000       1.00800           0
     34275 TIP3     3319     TIP3     H2       HT       0.417000       1.00800           0
     34276 TIP3     3320     TIP3     OH2      OT      -0.834000       15.9994           0
     34277 TIP3     3320     TIP3     H1       HT       0.417000       1.00800           0
     34278 TIP3     3320     TIP3     H2       HT       0.417000       1.00800           0
     34279 TIP3     3321     TIP3     OH2      OT      -0.834000       15.9994           0
     34280 TIP3     3321     TIP3     H1       HT       0.417000       1.00800           0
     34281 TIP3     3321     TIP3     H2       HT       0.417000       1.00800           0
     34282 TIP3     3322     TIP3     OH2      OT      -0.834000       15.9994           0
     34283 TIP3     3322     TIP3     H1       HT       0.417000       1.00800           0
     34284 TIP3     3322     TIP3     H2       HT       0.417000       1.00800           0
     34285 TIP3     3323     TIP3     OH2      OT      -0.834000       15.9994           0
     34286 TIP3     3323     TIP3     H1       HT       0.417000       1.00800           0
     34287 TIP3     3323     TIP3     H2       HT       0.417000       1.00800           0
     34288 TIP3     3324     TIP3     OH2      OT      -0.834000       15.9994           0
     34289 TIP3     3324     TIP3     H1       HT       0.417000       1.00800           0
     34290 TIP3     3324     TIP3     H2       HT       0.417000       1.00800           0
     34291 TIP3     3325     TIP3     OH2      OT      -0.834000       15.9994           0
     34292 TIP3     3325     TIP3     H1       HT       0.417000       1.00800           0
     34293 TIP3     3325     TIP3     H2       HT       0.417000       1.00800           0
     34294 TIP3     3326     TIP3     OH2      OT      -0.834000       15.9994           0
     34295 TIP3     3326     TIP3     H1       HT       0.417000       1.00800           0
     34296 TIP3     3326     TIP3     H2       HT       0.417000       1.00800           0
     34297 TIP3     3327     TIP3     OH2      OT      -0.834000       15.9994           0
     34298 TIP3     3327     TIP3     H1       HT       0.417000       1.00800           0
     34299 TIP3     3327     TIP3     H2       HT       0.417000       1.00800           0
     34300 TIP3     3328     TIP3     OH2      OT      -0.834000       15.9994           0
     34301 TIP3     3328     TIP3     H1       HT       0.417000       1.00800           0
     34302 TIP3     3328     TIP3     H2       HT       0.417000       1.00800           0
     34303 TIP3     3329     TIP3     OH2      OT      -0.834000       15.9994           0
     34304 TIP3     3329     TIP3     H1       HT       0.417000       1.00800           0
     34305 TIP3     3329     TIP3     H2       HT       0.417000       1.00800           0
     34306 TIP3     3330     TIP3     OH2      OT      -0.834000       15.9994           0
     34307 TIP3     3330     TIP3     H1       HT       0.417000       1.00800           0
     34308 TIP3     3330     TIP3     H2       HT       0.417000       1.00800           0
     34309 TIP3     3331     TIP3     OH2      OT      -0.834000       15.9994           0
     34310 TIP3     3331     TIP3     H1       HT       0.417000       1.00800           0
     34311 TIP3     3331     TIP3     H2       HT       0.417000       1.00800           0
     34312 TIP3     3332     TIP3     OH2      OT      -0.834000       15.9994           0
     34313 TIP3     3332     TIP3     H1       HT       0.417000       1.00800           0
     34314 TIP3     3332     TIP3     H2       HT       0.417000       1.00800           0
     34315 TIP3     3333     TIP3     OH2      OT      -0.834000       15.9994           0
     34316 TIP3     3333     TIP3     H1       HT       0.417000       1.00800           0
     34317 TIP3     3333     TIP3     H2       HT       0.417000       1.00800           0
     34318 TIP3     3334     TIP3     OH2      OT      -0.834000       15.9994           0
     34319 TIP3     3334     TIP3     H1       HT       0.417000       1.00800           0
     34320 TIP3     3334     TIP3     H2       HT       0.417000       1.00800           0
     34321 TIP3     3335     TIP3     OH2      OT      -0.834000       15.9994           0
     34322 TIP3     3335     TIP3     H1       HT       0.417000       1.00800           0
     34323 TIP3     3335     TIP3     H2       HT       0.417000       1.00800           0
     34324 TIP3     3336     TIP3     OH2      OT      -0.834000       15.9994           0
     34325 TIP3     3336     TIP3     H1       HT       0.417000       1.00800           0
     34326 TIP3     3336     TIP3     H2       HT       0.417000       1.00800           0
     34327 TIP3     3337     TIP3     OH2      OT      -0.834000       15.9994           0
     34328 TIP3     3337     TIP3     H1       HT       0.417000       1.00800           0
     34329 TIP3     3337     TIP3     H2       HT       0.417000       1.00800           0
     34330 TIP3     3338     TIP3     OH2      OT      -0.834000       15.9994           0
     34331 TIP3     3338     TIP3     H1       HT       0.417000       1.00800           0
     34332 TIP3     3338     TIP3     H2       HT       0.417000       1.00800           0
     34333 TIP3     3339     TIP3     OH2      OT      -0.834000       15.9994           0
     34334 TIP3     3339     TIP3     H1       HT       0.417000       1.00800           0
     34335 TIP3     3339     TIP3     H2       HT       0.417000       1.00800           0
     34336 TIP3     3340     TIP3     OH2      OT      -0.834000       15.9994           0
     34337 TIP3     3340     TIP3     H1       HT       0.417000       1.00800           0
     34338 TIP3     3340     TIP3     H2       HT       0.417000       1.00800           0
     34339 TIP3     3341     TIP3     OH2      OT      -0.834000       15.9994           0
     34340 TIP3     3341     TIP3     H1       HT       0.417000       1.00800           0
     34341 TIP3     3341     TIP3     H2       HT       0.417000       1.00800           0
     34342 TIP3     3342     TIP3     OH2      OT      -0.834000       15.9994           0
     34343 TIP3     3342     TIP3     H1       HT       0.417000       1.00800           0
     34344 TIP3     3342     TIP3     H2       HT       0.417000       1.00800           0
     34345 TIP3     3343     TIP3     OH2      OT      -0.834000       15.9994           0
     34346 TIP3     3343     TIP3     H1       HT       0.417000       1.00800           0
     34347 TIP3     3343     TIP3     H2       HT       0.417000       1.00800           0
     34348 TIP3     3344     TIP3     OH2      OT      -0.834000       15.9994           0
     34349 TIP3     3344     TIP3     H1       HT       0.417000       1.00800           0
     34350 TIP3     3344     TIP3     H2       HT       0.417000       1.00800           0
     34351 TIP3     3345     TIP3     OH2      OT      -0.834000       15.9994           0
     34352 TIP3     3345     TIP3     H1       HT       0.417000       1.00800           0
     34353 TIP3     3345     TIP3     H2       HT       0.417000       1.00800           0
     34354 TIP3     3346     TIP3     OH2      OT      -0.834000       15.9994           0
     34355 TIP3     3346     TIP3     H1       HT       0.417000       1.00800           0
     34356 TIP3     3346     TIP3     H2       HT       0.417000       1.00800           0
     34357 TIP3     3347     TIP3     OH2      OT      -0.834000       15.9994           0
     34358 TIP3     3347     TIP3     H1       HT       0.417000       1.00800           0
     34359 TIP3     3347     TIP3     H2       HT       0.417000       1.00800           0
     34360 TIP3     3348     TIP3     OH2      OT      -0.834000       15.9994           0
     34361 TIP3     3348     TIP3     H1       HT       0.417000       1.00800           0
     34362 TIP3     3348     TIP3     H2       HT       0.417000       1.00800           0
     34363 TIP3     3349     TIP3     OH2      OT      -0.834000       15.9994           0
     34364 TIP3     3349     TIP3     H1       HT       0.417000       1.00800           0
     34365 TIP3     3349     TIP3     H2       HT       0.417000       1.00800           0
     34366 TIP3     3350     TIP3     OH2      OT      -0.834000       15.9994           0
     34367 TIP3     3350     TIP3     H1       HT       0.417000       1.00800           0
     34368 TIP3     3350     TIP3     H2       HT       0.417000       1.00800           0
     34369 TIP3     3351     TIP3     OH2      OT      -0.834000       15.9994           0
     34370 TIP3     3351     TIP3     H1       HT       0.417000       1.00800           0
     34371 TIP3     3351     TIP3     H2       HT       0.417000       1.00800           0
     34372 TIP3     3352     TIP3     OH2      OT      -0.834000       15.9994           0
     34373 TIP3     3352     TIP3     H1       HT       0.417000       1.00800           0
     34374 TIP3     3352     TIP3     H2       HT       0.417000       1.00800           0
     34375 TIP3     3353     TIP3     OH2      OT      -0.834000       15.9994           0
     34376 TIP3     3353     TIP3     H1       HT       0.417000       1.00800           0
     34377 TIP3     3353     TIP3     H2       HT       0.417000       1.00800           0
     34378 TIP3     3354     TIP3     OH2      OT      -0.834000       15.9994           0
     34379 TIP3     3354     TIP3     H1       HT       0.417000       1.00800           0
     34380 TIP3     3354     TIP3     H2       HT       0.417000       1.00800           0
     34381 TIP3     3355     TIP3     OH2      OT      -0.834000       15.9994           0
     34382 TIP3     3355     TIP3     H1       HT       0.417000       1.00800           0
     34383 TIP3     3355     TIP3     H2       HT       0.417000       1.00800           0
     34384 TIP3     3356     TIP3     OH2      OT      -0.834000       15.9994           0
     34385 TIP3     3356     TIP3     H1       HT       0.417000       1.00800           0
     34386 TIP3     3356     TIP3     H2       HT       0.417000       1.00800           0
     34387 TIP3     3357     TIP3     OH2      OT      -0.834000       15.9994           0
     34388 TIP3     3357     TIP3     H1       HT       0.417000       1.00800           0
     34389 TIP3     3357     TIP3     H2       HT       0.417000       1.00800           0
     34390 TIP3     3358     TIP3     OH2      OT      -0.834000       15.9994           0
     34391 TIP3     3358     TIP3     H1       HT       0.417000       1.00800           0
     34392 TIP3     3358     TIP3     H2       HT       0.417000       1.00800           0
     34393 TIP3     3359     TIP3     OH2      OT      -0.834000       15.9994           0
     34394 TIP3     3359     TIP3     H1       HT       0.417000       1.00800           0
     34395 TIP3     3359     TIP3     H2       HT       0.417000       1.00800           0
     34396 TIP3     3360     TIP3     OH2      OT      -0.834000       15.9994           0
     34397 TIP3     3360     TIP3     H1       HT       0.417000       1.00800           0
     34398 TIP3     3360     TIP3     H2       HT       0.417000       1.00800           0
     34399 TIP3     3361     TIP3     OH2      OT      -0.834000       15.9994           0
     34400 TIP3     3361     TIP3     H1       HT       0.417000       1.00800           0
     34401 TIP3     3361     TIP3     H2       HT       0.417000       1.00800           0
     34402 TIP3     3362     TIP3     OH2      OT      -0.834000       15.9994           0
     34403 TIP3     3362     TIP3     H1       HT       0.417000       1.00800           0
     34404 TIP3     3362     TIP3     H2       HT       0.417000       1.00800           0
     34405 TIP3     3363     TIP3     OH2      OT      -0.834000       15.9994           0
     34406 TIP3     3363     TIP3     H1       HT       0.417000       1.00800           0
     34407 TIP3     3363     TIP3     H2       HT       0.417000       1.00800           0
     34408 TIP3     3364     TIP3     OH2      OT      -0.834000       15.9994           0
     34409 TIP3     3364     TIP3     H1       HT       0.417000       1.00800           0
     34410 TIP3     3364     TIP3     H2       HT       0.417000       1.00800           0
     34411 TIP3     3365     TIP3     OH2      OT      -0.834000       15.9994           0
     34412 TIP3     3365     TIP3     H1       HT       0.417000       1.00800           0
     34413 TIP3     3365     TIP3     H2       HT       0.417000       1.00800           0
     34414 TIP3     3366     TIP3     OH2      OT      -0.834000       15.9994           0
     34415 TIP3     3366     TIP3     H1       HT       0.417000       1.00800           0
     34416 TIP3     3366     TIP3     H2       HT       0.417000       1.00800           0
     34417 TIP3     3367     TIP3     OH2      OT      -0.834000       15.9994           0
     34418 TIP3     3367     TIP3     H1       HT       0.417000       1.00800           0
     34419 TIP3     3367     TIP3     H2       HT       0.417000       1.00800           0
     34420 TIP3     3368     TIP3     OH2      OT      -0.834000       15.9994           0
     34421 TIP3     3368     TIP3     H1       HT       0.417000       1.00800           0
     34422 TIP3     3368     TIP3     H2       HT       0.417000       1.00800           0
     34423 TIP3     3369     TIP3     OH2      OT      -0.834000       15.9994           0
     34424 TIP3     3369     TIP3     H1       HT       0.417000       1.00800           0
     34425 TIP3     3369     TIP3     H2       HT       0.417000       1.00800           0
     34426 TIP3     3370     TIP3     OH2      OT      -0.834000       15.9994           0
     34427 TIP3     3370     TIP3     H1       HT       0.417000       1.00800           0
     34428 TIP3     3370     TIP3     H2       HT       0.417000       1.00800           0
     34429 TIP3     3371     TIP3     OH2      OT      -0.834000       15.9994           0
     34430 TIP3     3371     TIP3     H1       HT       0.417000       1.00800           0
     34431 TIP3     3371     TIP3     H2       HT       0.417000       1.00800           0
     34432 TIP3     3372     TIP3     OH2      OT      -0.834000       15.9994           0
     34433 TIP3     3372     TIP3     H1       HT       0.417000       1.00800           0
     34434 TIP3     3372     TIP3     H2       HT       0.417000       1.00800           0
     34435 TIP3     3373     TIP3     OH2      OT      -0.834000       15.9994           0
     34436 TIP3     3373     TIP3     H1       HT       0.417000       1.00800           0
     34437 TIP3     3373     TIP3     H2       HT       0.417000       1.00800           0
     34438 TIP3     3374     TIP3     OH2      OT      -0.834000       15.9994           0
     34439 TIP3     3374     TIP3     H1       HT       0.417000       1.00800           0
     34440 TIP3     3374     TIP3     H2       HT       0.417000       1.00800           0
     34441 TIP3     3375     TIP3     OH2      OT      -0.834000       15.9994           0
     34442 TIP3     3375     TIP3     H1       HT       0.417000       1.00800           0
     34443 TIP3     3375     TIP3     H2       HT       0.417000       1.00800           0
     34444 TIP3     3376     TIP3     OH2      OT      -0.834000       15.9994           0
     34445 TIP3     3376     TIP3     H1       HT       0.417000       1.00800           0
     34446 TIP3     3376     TIP3     H2       HT       0.417000       1.00800           0
     34447 TIP3     3377     TIP3     OH2      OT      -0.834000       15.9994           0
     34448 TIP3     3377     TIP3     H1       HT       0.417000       1.00800           0
     34449 TIP3     3377     TIP3     H2       HT       0.417000       1.00800           0
     34450 TIP3     3378     TIP3     OH2      OT      -0.834000       15.9994           0
     34451 TIP3     3378     TIP3     H1       HT       0.417000       1.00800           0
     34452 TIP3     3378     TIP3     H2       HT       0.417000       1.00800           0
     34453 TIP3     3379     TIP3     OH2      OT      -0.834000       15.9994           0
     34454 TIP3     3379     TIP3     H1       HT       0.417000       1.00800           0
     34455 TIP3     3379     TIP3     H2       HT       0.417000       1.00800           0
     34456 TIP3     3380     TIP3     OH2      OT      -0.834000       15.9994           0
     34457 TIP3     3380     TIP3     H1       HT       0.417000       1.00800           0
     34458 TIP3     3380     TIP3     H2       HT       0.417000       1.00800           0
     34459 TIP3     3381     TIP3     OH2      OT      -0.834000       15.9994           0
     34460 TIP3     3381     TIP3     H1       HT       0.417000       1.00800           0
     34461 TIP3     3381     TIP3     H2       HT       0.417000       1.00800           0
     34462 TIP3     3382     TIP3     OH2      OT      -0.834000       15.9994           0
     34463 TIP3     3382     TIP3     H1       HT       0.417000       1.00800           0
     34464 TIP3     3382     TIP3     H2       HT       0.417000       1.00800           0
     34465 TIP3     3383     TIP3     OH2      OT      -0.834000       15.9994           0
     34466 TIP3     3383     TIP3     H1       HT       0.417000       1.00800           0
     34467 TIP3     3383     TIP3     H2       HT       0.417000       1.00800           0
     34468 TIP3     3384     TIP3     OH2      OT      -0.834000       15.9994           0
     34469 TIP3     3384     TIP3     H1       HT       0.417000       1.00800           0
     34470 TIP3     3384     TIP3     H2       HT       0.417000       1.00800           0
     34471 TIP3     3385     TIP3     OH2      OT      -0.834000       15.9994           0
     34472 TIP3     3385     TIP3     H1       HT       0.417000       1.00800           0
     34473 TIP3     3385     TIP3     H2       HT       0.417000       1.00800           0
     34474 TIP3     3386     TIP3     OH2      OT      -0.834000       15.9994           0
     34475 TIP3     3386     TIP3     H1       HT       0.417000       1.00800           0
     34476 TIP3     3386     TIP3     H2       HT       0.417000       1.00800           0
     34477 TIP3     3387     TIP3     OH2      OT      -0.834000       15.9994           0
     34478 TIP3     3387     TIP3     H1       HT       0.417000       1.00800           0
     34479 TIP3     3387     TIP3     H2       HT       0.417000       1.00800           0
     34480 TIP3     3388     TIP3     OH2      OT      -0.834000       15.9994           0
     34481 TIP3     3388     TIP3     H1       HT       0.417000       1.00800           0
     34482 TIP3     3388     TIP3     H2       HT       0.417000       1.00800           0
     34483 TIP3     3389     TIP3     OH2      OT      -0.834000       15.9994           0
     34484 TIP3     3389     TIP3     H1       HT       0.417000       1.00800           0
     34485 TIP3     3389     TIP3     H2       HT       0.417000       1.00800           0
     34486 TIP3     3390     TIP3     OH2      OT      -0.834000       15.9994           0
     34487 TIP3     3390     TIP3     H1       HT       0.417000       1.00800           0
     34488 TIP3     3390     TIP3     H2       HT       0.417000       1.00800           0
     34489 TIP3     3391     TIP3     OH2      OT      -0.834000       15.9994           0
     34490 TIP3     3391     TIP3     H1       HT       0.417000       1.00800           0
     34491 TIP3     3391     TIP3     H2       HT       0.417000       1.00800           0
     34492 TIP3     3392     TIP3     OH2      OT      -0.834000       15.9994           0
     34493 TIP3     3392     TIP3     H1       HT       0.417000       1.00800           0
     34494 TIP3     3392     TIP3     H2       HT       0.417000       1.00800           0
     34495 TIP3     3393     TIP3     OH2      OT      -0.834000       15.9994           0
     34496 TIP3     3393     TIP3     H1       HT       0.417000       1.00800           0
     34497 TIP3     3393     TIP3     H2       HT       0.417000       1.00800           0
     34498 TIP3     3394     TIP3     OH2      OT      -0.834000       15.9994           0
     34499 TIP3     3394     TIP3     H1       HT       0.417000       1.00800           0
     34500 TIP3     3394     TIP3     H2       HT       0.417000       1.00800           0
     34501 TIP3     3395     TIP3     OH2      OT      -0.834000       15.9994           0
     34502 TIP3     3395     TIP3     H1       HT       0.417000       1.00800           0
     34503 TIP3     3395     TIP3     H2       HT       0.417000       1.00800           0
     34504 TIP3     3396     TIP3     OH2      OT      -0.834000       15.9994           0
     34505 TIP3     3396     TIP3     H1       HT       0.417000       1.00800           0
     34506 TIP3     3396     TIP3     H2       HT       0.417000       1.00800           0
     34507 TIP3     3397     TIP3     OH2      OT      -0.834000       15.9994           0
     34508 TIP3     3397     TIP3     H1       HT       0.417000       1.00800           0
     34509 TIP3     3397     TIP3     H2       HT       0.417000       1.00800           0
     34510 TIP3     3398     TIP3     OH2      OT      -0.834000       15.9994           0
     34511 TIP3     3398     TIP3     H1       HT       0.417000       1.00800           0
     34512 TIP3     3398     TIP3     H2       HT       0.417000       1.00800           0
     34513 TIP3     3399     TIP3     OH2      OT      -0.834000       15.9994           0
     34514 TIP3     3399     TIP3     H1       HT       0.417000       1.00800           0
     34515 TIP3     3399     TIP3     H2       HT       0.417000       1.00800           0
     34516 TIP3     3400     TIP3     OH2      OT      -0.834000       15.9994           0
     34517 TIP3     3400     TIP3     H1       HT       0.417000       1.00800           0
     34518 TIP3     3400     TIP3     H2       HT       0.417000       1.00800           0
     34519 TIP3     3401     TIP3     OH2      OT      -0.834000       15.9994           0
     34520 TIP3     3401     TIP3     H1       HT       0.417000       1.00800           0
     34521 TIP3     3401     TIP3     H2       HT       0.417000       1.00800           0
     34522 TIP3     3402     TIP3     OH2      OT      -0.834000       15.9994           0
     34523 TIP3     3402     TIP3     H1       HT       0.417000       1.00800           0
     34524 TIP3     3402     TIP3     H2       HT       0.417000       1.00800           0
     34525 TIP3     3403     TIP3     OH2      OT      -0.834000       15.9994           0
     34526 TIP3     3403     TIP3     H1       HT       0.417000       1.00800           0
     34527 TIP3     3403     TIP3     H2       HT       0.417000       1.00800           0
     34528 TIP3     3404     TIP3     OH2      OT      -0.834000       15.9994           0
     34529 TIP3     3404     TIP3     H1       HT       0.417000       1.00800           0
     34530 TIP3     3404     TIP3     H2       HT       0.417000       1.00800           0
     34531 TIP3     3405     TIP3     OH2      OT      -0.834000       15.9994           0
     34532 TIP3     3405     TIP3     H1       HT       0.417000       1.00800           0
     34533 TIP3     3405     TIP3     H2       HT       0.417000       1.00800           0
     34534 TIP3     3406     TIP3     OH2      OT      -0.834000       15.9994           0
     34535 TIP3     3406     TIP3     H1       HT       0.417000       1.00800           0
     34536 TIP3     3406     TIP3     H2       HT       0.417000       1.00800           0
     34537 TIP3     3407     TIP3     OH2      OT      -0.834000       15.9994           0
     34538 TIP3     3407     TIP3     H1       HT       0.417000       1.00800           0
     34539 TIP3     3407     TIP3     H2       HT       0.417000       1.00800           0
     34540 TIP3     3408     TIP3     OH2      OT      -0.834000       15.9994           0
     34541 TIP3     3408     TIP3     H1       HT       0.417000       1.00800           0
     34542 TIP3     3408     TIP3     H2       HT       0.417000       1.00800           0
     34543 TIP3     3409     TIP3     OH2      OT      -0.834000       15.9994           0
     34544 TIP3     3409     TIP3     H1       HT       0.417000       1.00800           0
     34545 TIP3     3409     TIP3     H2       HT       0.417000       1.00800           0
     34546 TIP3     3410     TIP3     OH2      OT      -0.834000       15.9994           0
     34547 TIP3     3410     TIP3     H1       HT       0.417000       1.00800           0
     34548 TIP3     3410     TIP3     H2       HT       0.417000       1.00800           0
     34549 TIP3     3411     TIP3     OH2      OT      -0.834000       15.9994           0
     34550 TIP3     3411     TIP3     H1       HT       0.417000       1.00800           0
     34551 TIP3     3411     TIP3     H2       HT       0.417000       1.00800           0
     34552 TIP3     3412     TIP3     OH2      OT      -0.834000       15.9994           0
     34553 TIP3     3412     TIP3     H1       HT       0.417000       1.00800           0
     34554 TIP3     3412     TIP3     H2       HT       0.417000       1.00800           0
     34555 TIP3     3413     TIP3     OH2      OT      -0.834000       15.9994           0
     34556 TIP3     3413     TIP3     H1       HT       0.417000       1.00800           0
     34557 TIP3     3413     TIP3     H2       HT       0.417000       1.00800           0
     34558 TIP3     3414     TIP3     OH2      OT      -0.834000       15.9994           0
     34559 TIP3     3414     TIP3     H1       HT       0.417000       1.00800           0
     34560 TIP3     3414     TIP3     H2       HT       0.417000       1.00800           0
     34561 TIP3     3415     TIP3     OH2      OT      -0.834000       15.9994           0
     34562 TIP3     3415     TIP3     H1       HT       0.417000       1.00800           0
     34563 TIP3     3415     TIP3     H2       HT       0.417000       1.00800           0
     34564 TIP3     3416     TIP3     OH2      OT      -0.834000       15.9994           0
     34565 TIP3     3416     TIP3     H1       HT       0.417000       1.00800           0
     34566 TIP3     3416     TIP3     H2       HT       0.417000       1.00800           0
     34567 TIP3     3417     TIP3     OH2      OT      -0.834000       15.9994           0
     34568 TIP3     3417     TIP3     H1       HT       0.417000       1.00800           0
     34569 TIP3     3417     TIP3     H2       HT       0.417000       1.00800           0
     34570 TIP3     3418     TIP3     OH2      OT      -0.834000       15.9994           0
     34571 TIP3     3418     TIP3     H1       HT       0.417000       1.00800           0
     34572 TIP3     3418     TIP3     H2       HT       0.417000       1.00800           0
     34573 TIP3     3419     TIP3     OH2      OT      -0.834000       15.9994           0
     34574 TIP3     3419     TIP3     H1       HT       0.417000       1.00800           0
     34575 TIP3     3419     TIP3     H2       HT       0.417000       1.00800           0
     34576 TIP3     3420     TIP3     OH2      OT      -0.834000       15.9994           0
     34577 TIP3     3420     TIP3     H1       HT       0.417000       1.00800           0
     34578 TIP3     3420     TIP3     H2       HT       0.417000       1.00800           0
     34579 TIP3     3421     TIP3     OH2      OT      -0.834000       15.9994           0
     34580 TIP3     3421     TIP3     H1       HT       0.417000       1.00800           0
     34581 TIP3     3421     TIP3     H2       HT       0.417000       1.00800           0
     34582 TIP3     3422     TIP3     OH2      OT      -0.834000       15.9994           0
     34583 TIP3     3422     TIP3     H1       HT       0.417000       1.00800           0
     34584 TIP3     3422     TIP3     H2       HT       0.417000       1.00800           0
     34585 TIP3     3423     TIP3     OH2      OT      -0.834000       15.9994           0
     34586 TIP3     3423     TIP3     H1       HT       0.417000       1.00800           0
     34587 TIP3     3423     TIP3     H2       HT       0.417000       1.00800           0
     34588 TIP3     3424     TIP3     OH2      OT      -0.834000       15.9994           0
     34589 TIP3     3424     TIP3     H1       HT       0.417000       1.00800           0
     34590 TIP3     3424     TIP3     H2       HT       0.417000       1.00800           0
     34591 TIP3     3425     TIP3     OH2      OT      -0.834000       15.9994           0
     34592 TIP3     3425     TIP3     H1       HT       0.417000       1.00800           0
     34593 TIP3     3425     TIP3     H2       HT       0.417000       1.00800           0
     34594 TIP3     3426     TIP3     OH2      OT      -0.834000       15.9994           0
     34595 TIP3     3426     TIP3     H1       HT       0.417000       1.00800           0
     34596 TIP3     3426     TIP3     H2       HT       0.417000       1.00800           0
     34597 TIP3     3427     TIP3     OH2      OT      -0.834000       15.9994           0
     34598 TIP3     3427     TIP3     H1       HT       0.417000       1.00800           0
     34599 TIP3     3427     TIP3     H2       HT       0.417000       1.00800           0
     34600 TIP3     3428     TIP3     OH2      OT      -0.834000       15.9994           0
     34601 TIP3     3428     TIP3     H1       HT       0.417000       1.00800           0
     34602 TIP3     3428     TIP3     H2       HT       0.417000       1.00800           0
     34603 TIP3     3429     TIP3     OH2      OT      -0.834000       15.9994           0
     34604 TIP3     3429     TIP3     H1       HT       0.417000       1.00800           0
     34605 TIP3     3429     TIP3     H2       HT       0.417000       1.00800           0
     34606 TIP3     3430     TIP3     OH2      OT      -0.834000       15.9994           0
     34607 TIP3     3430     TIP3     H1       HT       0.417000       1.00800           0
     34608 TIP3     3430     TIP3     H2       HT       0.417000       1.00800           0
     34609 TIP3     3431     TIP3     OH2      OT      -0.834000       15.9994           0
     34610 TIP3     3431     TIP3     H1       HT       0.417000       1.00800           0
     34611 TIP3     3431     TIP3     H2       HT       0.417000       1.00800           0
     34612 TIP3     3432     TIP3     OH2      OT      -0.834000       15.9994           0
     34613 TIP3     3432     TIP3     H1       HT       0.417000       1.00800           0
     34614 TIP3     3432     TIP3     H2       HT       0.417000       1.00800           0
     34615 TIP3     3433     TIP3     OH2      OT      -0.834000       15.9994           0
     34616 TIP3     3433     TIP3     H1       HT       0.417000       1.00800           0
     34617 TIP3     3433     TIP3     H2       HT       0.417000       1.00800           0
     34618 TIP3     3434     TIP3     OH2      OT      -0.834000       15.9994           0
     34619 TIP3     3434     TIP3     H1       HT       0.417000       1.00800           0
     34620 TIP3     3434     TIP3     H2       HT       0.417000       1.00800           0
     34621 TIP3     3435     TIP3     OH2      OT      -0.834000       15.9994           0
     34622 TIP3     3435     TIP3     H1       HT       0.417000       1.00800           0
     34623 TIP3     3435     TIP3     H2       HT       0.417000       1.00800           0
     34624 TIP3     3436     TIP3     OH2      OT      -0.834000       15.9994           0
     34625 TIP3     3436     TIP3     H1       HT       0.417000       1.00800           0
     34626 TIP3     3436     TIP3     H2       HT       0.417000       1.00800           0
     34627 TIP3     3437     TIP3     OH2      OT      -0.834000       15.9994           0
     34628 TIP3     3437     TIP3     H1       HT       0.417000       1.00800           0
     34629 TIP3     3437     TIP3     H2       HT       0.417000       1.00800           0
     34630 TIP3     3438     TIP3     OH2      OT      -0.834000       15.9994           0
     34631 TIP3     3438     TIP3     H1       HT       0.417000       1.00800           0
     34632 TIP3     3438     TIP3     H2       HT       0.417000       1.00800           0
     34633 TIP3     3439     TIP3     OH2      OT      -0.834000       15.9994           0
     34634 TIP3     3439     TIP3     H1       HT       0.417000       1.00800           0
     34635 TIP3     3439     TIP3     H2       HT       0.417000       1.00800           0
     34636 TIP3     3440     TIP3     OH2      OT      -0.834000       15.9994           0
     34637 TIP3     3440     TIP3     H1       HT       0.417000       1.00800           0
     34638 TIP3     3440     TIP3     H2       HT       0.417000       1.00800           0
     34639 TIP3     3441     TIP3     OH2      OT      -0.834000       15.9994           0
     34640 TIP3     3441     TIP3     H1       HT       0.417000       1.00800           0
     34641 TIP3     3441     TIP3     H2       HT       0.417000       1.00800           0
     34642 TIP3     3442     TIP3     OH2      OT      -0.834000       15.9994           0
     34643 TIP3     3442     TIP3     H1       HT       0.417000       1.00800           0
     34644 TIP3     3442     TIP3     H2       HT       0.417000       1.00800           0
     34645 TIP3     3443     TIP3     OH2      OT      -0.834000       15.9994           0
     34646 TIP3     3443     TIP3     H1       HT       0.417000       1.00800           0
     34647 TIP3     3443     TIP3     H2       HT       0.417000       1.00800           0
     34648 TIP3     3444     TIP3     OH2      OT      -0.834000       15.9994           0
     34649 TIP3     3444     TIP3     H1       HT       0.417000       1.00800           0
     34650 TIP3     3444     TIP3     H2       HT       0.417000       1.00800           0
     34651 TIP3     3445     TIP3     OH2      OT      -0.834000       15.9994           0
     34652 TIP3     3445     TIP3     H1       HT       0.417000       1.00800           0
     34653 TIP3     3445     TIP3     H2       HT       0.417000       1.00800           0
     34654 TIP3     3446     TIP3     OH2      OT      -0.834000       15.9994           0
     34655 TIP3     3446     TIP3     H1       HT       0.417000       1.00800           0
     34656 TIP3     3446     TIP3     H2       HT       0.417000       1.00800           0
     34657 TIP3     3447     TIP3     OH2      OT      -0.834000       15.9994           0
     34658 TIP3     3447     TIP3     H1       HT       0.417000       1.00800           0
     34659 TIP3     3447     TIP3     H2       HT       0.417000       1.00800           0
     34660 TIP3     3448     TIP3     OH2      OT      -0.834000       15.9994           0
     34661 TIP3     3448     TIP3     H1       HT       0.417000       1.00800           0
     34662 TIP3     3448     TIP3     H2       HT       0.417000       1.00800           0
     34663 TIP3     3449     TIP3     OH2      OT      -0.834000       15.9994           0
     34664 TIP3     3449     TIP3     H1       HT       0.417000       1.00800           0
     34665 TIP3     3449     TIP3     H2       HT       0.417000       1.00800           0
     34666 TIP3     3450     TIP3     OH2      OT      -0.834000       15.9994           0
     34667 TIP3     3450     TIP3     H1       HT       0.417000       1.00800           0
     34668 TIP3     3450     TIP3     H2       HT       0.417000       1.00800           0
     34669 TIP3     3451     TIP3     OH2      OT      -0.834000       15.9994           0
     34670 TIP3     3451     TIP3     H1       HT       0.417000       1.00800           0
     34671 TIP3     3451     TIP3     H2       HT       0.417000       1.00800           0
     34672 TIP3     3452     TIP3     OH2      OT      -0.834000       15.9994           0
     34673 TIP3     3452     TIP3     H1       HT       0.417000       1.00800           0
     34674 TIP3     3452     TIP3     H2       HT       0.417000       1.00800           0
     34675 TIP3     3453     TIP3     OH2      OT      -0.834000       15.9994           0
     34676 TIP3     3453     TIP3     H1       HT       0.417000       1.00800           0
     34677 TIP3     3453     TIP3     H2       HT       0.417000       1.00800           0
     34678 TIP3     3454     TIP3     OH2      OT      -0.834000       15.9994           0
     34679 TIP3     3454     TIP3     H1       HT       0.417000       1.00800           0
     34680 TIP3     3454     TIP3     H2       HT       0.417000       1.00800           0
     34681 TIP3     3455     TIP3     OH2      OT      -0.834000       15.9994           0
     34682 TIP3     3455     TIP3     H1       HT       0.417000       1.00800           0
     34683 TIP3     3455     TIP3     H2       HT       0.417000       1.00800           0
     34684 TIP3     3456     TIP3     OH2      OT      -0.834000       15.9994           0
     34685 TIP3     3456     TIP3     H1       HT       0.417000       1.00800           0
     34686 TIP3     3456     TIP3     H2       HT       0.417000       1.00800           0
     34687 TIP3     3457     TIP3     OH2      OT      -0.834000       15.9994           0
     34688 TIP3     3457     TIP3     H1       HT       0.417000       1.00800           0
     34689 TIP3     3457     TIP3     H2       HT       0.417000       1.00800           0
     34690 TIP3     3458     TIP3     OH2      OT      -0.834000       15.9994           0
     34691 TIP3     3458     TIP3     H1       HT       0.417000       1.00800           0
     34692 TIP3     3458     TIP3     H2       HT       0.417000       1.00800           0
     34693 TIP3     3459     TIP3     OH2      OT      -0.834000       15.9994           0
     34694 TIP3     3459     TIP3     H1       HT       0.417000       1.00800           0
     34695 TIP3     3459     TIP3     H2       HT       0.417000       1.00800           0
     34696 TIP3     3460     TIP3     OH2      OT      -0.834000       15.9994           0
     34697 TIP3     3460     TIP3     H1       HT       0.417000       1.00800           0
     34698 TIP3     3460     TIP3     H2       HT       0.417000       1.00800           0
     34699 TIP3     3461     TIP3     OH2      OT      -0.834000       15.9994           0
     34700 TIP3     3461     TIP3     H1       HT       0.417000       1.00800           0
     34701 TIP3     3461     TIP3     H2       HT       0.417000       1.00800           0
     34702 TIP3     3462     TIP3     OH2      OT      -0.834000       15.9994           0
     34703 TIP3     3462     TIP3     H1       HT       0.417000       1.00800           0
     34704 TIP3     3462     TIP3     H2       HT       0.417000       1.00800           0
     34705 TIP3     3463     TIP3     OH2      OT      -0.834000       15.9994           0
     34706 TIP3     3463     TIP3     H1       HT       0.417000       1.00800           0
     34707 TIP3     3463     TIP3     H2       HT       0.417000       1.00800           0
     34708 TIP3     3464     TIP3     OH2      OT      -0.834000       15.9994           0
     34709 TIP3     3464     TIP3     H1       HT       0.417000       1.00800           0
     34710 TIP3     3464     TIP3     H2       HT       0.417000       1.00800           0
     34711 TIP3     3465     TIP3     OH2      OT      -0.834000       15.9994           0
     34712 TIP3     3465     TIP3     H1       HT       0.417000       1.00800           0
     34713 TIP3     3465     TIP3     H2       HT       0.417000       1.00800           0
     34714 TIP3     3466     TIP3     OH2      OT      -0.834000       15.9994           0
     34715 TIP3     3466     TIP3     H1       HT       0.417000       1.00800           0
     34716 TIP3     3466     TIP3     H2       HT       0.417000       1.00800           0
     34717 TIP3     3467     TIP3     OH2      OT      -0.834000       15.9994           0
     34718 TIP3     3467     TIP3     H1       HT       0.417000       1.00800           0
     34719 TIP3     3467     TIP3     H2       HT       0.417000       1.00800           0
     34720 TIP3     3468     TIP3     OH2      OT      -0.834000       15.9994           0
     34721 TIP3     3468     TIP3     H1       HT       0.417000       1.00800           0
     34722 TIP3     3468     TIP3     H2       HT       0.417000       1.00800           0
     34723 TIP3     3469     TIP3     OH2      OT      -0.834000       15.9994           0
     34724 TIP3     3469     TIP3     H1       HT       0.417000       1.00800           0
     34725 TIP3     3469     TIP3     H2       HT       0.417000       1.00800           0
     34726 TIP3     3470     TIP3     OH2      OT      -0.834000       15.9994           0
     34727 TIP3     3470     TIP3     H1       HT       0.417000       1.00800           0
     34728 TIP3     3470     TIP3     H2       HT       0.417000       1.00800           0
     34729 TIP3     3471     TIP3     OH2      OT      -0.834000       15.9994           0
     34730 TIP3     3471     TIP3     H1       HT       0.417000       1.00800           0
     34731 TIP3     3471     TIP3     H2       HT       0.417000       1.00800           0
     34732 TIP3     3472     TIP3     OH2      OT      -0.834000       15.9994           0
     34733 TIP3     3472     TIP3     H1       HT       0.417000       1.00800           0
     34734 TIP3     3472     TIP3     H2       HT       0.417000       1.00800           0
     34735 TIP3     3473     TIP3     OH2      OT      -0.834000       15.9994           0
     34736 TIP3     3473     TIP3     H1       HT       0.417000       1.00800           0
     34737 TIP3     3473     TIP3     H2       HT       0.417000       1.00800           0
     34738 TIP3     3474     TIP3     OH2      OT      -0.834000       15.9994           0
     34739 TIP3     3474     TIP3     H1       HT       0.417000       1.00800           0
     34740 TIP3     3474     TIP3     H2       HT       0.417000       1.00800           0
     34741 TIP3     3475     TIP3     OH2      OT      -0.834000       15.9994           0
     34742 TIP3     3475     TIP3     H1       HT       0.417000       1.00800           0
     34743 TIP3     3475     TIP3     H2       HT       0.417000       1.00800           0
     34744 TIP3     3476     TIP3     OH2      OT      -0.834000       15.9994           0
     34745 TIP3     3476     TIP3     H1       HT       0.417000       1.00800           0
     34746 TIP3     3476     TIP3     H2       HT       0.417000       1.00800           0
     34747 TIP3     3477     TIP3     OH2      OT      -0.834000       15.9994           0
     34748 TIP3     3477     TIP3     H1       HT       0.417000       1.00800           0
     34749 TIP3     3477     TIP3     H2       HT       0.417000       1.00800           0
     34750 TIP3     3478     TIP3     OH2      OT      -0.834000       15.9994           0
     34751 TIP3     3478     TIP3     H1       HT       0.417000       1.00800           0
     34752 TIP3     3478     TIP3     H2       HT       0.417000       1.00800           0
     34753 TIP3     3479     TIP3     OH2      OT      -0.834000       15.9994           0
     34754 TIP3     3479     TIP3     H1       HT       0.417000       1.00800           0
     34755 TIP3     3479     TIP3     H2       HT       0.417000       1.00800           0
     34756 TIP3     3480     TIP3     OH2      OT      -0.834000       15.9994           0
     34757 TIP3     3480     TIP3     H1       HT       0.417000       1.00800           0
     34758 TIP3     3480     TIP3     H2       HT       0.417000       1.00800           0
     34759 TIP3     3481     TIP3     OH2      OT      -0.834000       15.9994           0
     34760 TIP3     3481     TIP3     H1       HT       0.417000       1.00800           0
     34761 TIP3     3481     TIP3     H2       HT       0.417000       1.00800           0
     34762 TIP3     3482     TIP3     OH2      OT      -0.834000       15.9994           0
     34763 TIP3     3482     TIP3     H1       HT       0.417000       1.00800           0
     34764 TIP3     3482     TIP3     H2       HT       0.417000       1.00800           0
     34765 TIP3     3483     TIP3     OH2      OT      -0.834000       15.9994           0
     34766 TIP3     3483     TIP3     H1       HT       0.417000       1.00800           0
     34767 TIP3     3483     TIP3     H2       HT       0.417000       1.00800           0
     34768 TIP3     3484     TIP3     OH2      OT      -0.834000       15.9994           0
     34769 TIP3     3484     TIP3     H1       HT       0.417000       1.00800           0
     34770 TIP3     3484     TIP3     H2       HT       0.417000       1.00800           0
     34771 TIP3     3485     TIP3     OH2      OT      -0.834000       15.9994           0
     34772 TIP3     3485     TIP3     H1       HT       0.417000       1.00800           0
     34773 TIP3     3485     TIP3     H2       HT       0.417000       1.00800           0
     34774 TIP3     3486     TIP3     OH2      OT      -0.834000       15.9994           0
     34775 TIP3     3486     TIP3     H1       HT       0.417000       1.00800           0
     34776 TIP3     3486     TIP3     H2       HT       0.417000       1.00800           0
     34777 TIP3     3487     TIP3     OH2      OT      -0.834000       15.9994           0
     34778 TIP3     3487     TIP3     H1       HT       0.417000       1.00800           0
     34779 TIP3     3487     TIP3     H2       HT       0.417000       1.00800           0
     34780 TIP3     3488     TIP3     OH2      OT      -0.834000       15.9994           0
     34781 TIP3     3488     TIP3     H1       HT       0.417000       1.00800           0
     34782 TIP3     3488     TIP3     H2       HT       0.417000       1.00800           0
     34783 TIP3     3489     TIP3     OH2      OT      -0.834000       15.9994           0
     34784 TIP3     3489     TIP3     H1       HT       0.417000       1.00800           0
     34785 TIP3     3489     TIP3     H2       HT       0.417000       1.00800           0
     34786 TIP3     3490     TIP3     OH2      OT      -0.834000       15.9994           0
     34787 TIP3     3490     TIP3     H1       HT       0.417000       1.00800           0
     34788 TIP3     3490     TIP3     H2       HT       0.417000       1.00800           0
     34789 TIP3     3491     TIP3     OH2      OT      -0.834000       15.9994           0
     34790 TIP3     3491     TIP3     H1       HT       0.417000       1.00800           0
     34791 TIP3     3491     TIP3     H2       HT       0.417000       1.00800           0
     34792 TIP3     3492     TIP3     OH2      OT      -0.834000       15.9994           0
     34793 TIP3     3492     TIP3     H1       HT       0.417000       1.00800           0
     34794 TIP3     3492     TIP3     H2       HT       0.417000       1.00800           0
     34795 TIP3     3493     TIP3     OH2      OT      -0.834000       15.9994           0
     34796 TIP3     3493     TIP3     H1       HT       0.417000       1.00800           0
     34797 TIP3     3493     TIP3     H2       HT       0.417000       1.00800           0
     34798 TIP3     3494     TIP3     OH2      OT      -0.834000       15.9994           0
     34799 TIP3     3494     TIP3     H1       HT       0.417000       1.00800           0
     34800 TIP3     3494     TIP3     H2       HT       0.417000       1.00800           0
     34801 TIP3     3495     TIP3     OH2      OT      -0.834000       15.9994           0
     34802 TIP3     3495     TIP3     H1       HT       0.417000       1.00800           0
     34803 TIP3     3495     TIP3     H2       HT       0.417000       1.00800           0
     34804 TIP3     3496     TIP3     OH2      OT      -0.834000       15.9994           0
     34805 TIP3     3496     TIP3     H1       HT       0.417000       1.00800           0
     34806 TIP3     3496     TIP3     H2       HT       0.417000       1.00800           0
     34807 TIP3     3497     TIP3     OH2      OT      -0.834000       15.9994           0
     34808 TIP3     3497     TIP3     H1       HT       0.417000       1.00800           0
     34809 TIP3     3497     TIP3     H2       HT       0.417000       1.00800           0
     34810 TIP3     3498     TIP3     OH2      OT      -0.834000       15.9994           0
     34811 TIP3     3498     TIP3     H1       HT       0.417000       1.00800           0
     34812 TIP3     3498     TIP3     H2       HT       0.417000       1.00800           0
     34813 TIP3     3499     TIP3     OH2      OT      -0.834000       15.9994           0
     34814 TIP3     3499     TIP3     H1       HT       0.417000       1.00800           0
     34815 TIP3     3499     TIP3     H2       HT       0.417000       1.00800           0
     34816 TIP3     3500     TIP3     OH2      OT      -0.834000       15.9994           0
     34817 TIP3     3500     TIP3     H1       HT       0.417000       1.00800           0
     34818 TIP3     3500     TIP3     H2       HT       0.417000       1.00800           0
     34819 TIP3     3501     TIP3     OH2      OT      -0.834000       15.9994           0
     34820 TIP3     3501     TIP3     H1       HT       0.417000       1.00800           0
     34821 TIP3     3501     TIP3     H2       HT       0.417000       1.00800           0
     34822 TIP3     3502     TIP3     OH2      OT      -0.834000       15.9994           0
     34823 TIP3     3502     TIP3     H1       HT       0.417000       1.00800           0
     34824 TIP3     3502     TIP3     H2       HT       0.417000       1.00800           0
     34825 TIP3     3503     TIP3     OH2      OT      -0.834000       15.9994           0
     34826 TIP3     3503     TIP3     H1       HT       0.417000       1.00800           0
     34827 TIP3     3503     TIP3     H2       HT       0.417000       1.00800           0
     34828 TIP3     3504     TIP3     OH2      OT      -0.834000       15.9994           0
     34829 TIP3     3504     TIP3     H1       HT       0.417000       1.00800           0
     34830 TIP3     3504     TIP3     H2       HT       0.417000       1.00800           0
     34831 TIP3     3505     TIP3     OH2      OT      -0.834000       15.9994           0
     34832 TIP3     3505     TIP3     H1       HT       0.417000       1.00800           0
     34833 TIP3     3505     TIP3     H2       HT       0.417000       1.00800           0
     34834 TIP3     3506     TIP3     OH2      OT      -0.834000       15.9994           0
     34835 TIP3     3506     TIP3     H1       HT       0.417000       1.00800           0
     34836 TIP3     3506     TIP3     H2       HT       0.417000       1.00800           0
     34837 TIP3     3507     TIP3     OH2      OT      -0.834000       15.9994           0
     34838 TIP3     3507     TIP3     H1       HT       0.417000       1.00800           0
     34839 TIP3     3507     TIP3     H2       HT       0.417000       1.00800           0
     34840 TIP3     3508     TIP3     OH2      OT      -0.834000       15.9994           0
     34841 TIP3     3508     TIP3     H1       HT       0.417000       1.00800           0
     34842 TIP3     3508     TIP3     H2       HT       0.417000       1.00800           0
     34843 TIP3     3509     TIP3     OH2      OT      -0.834000       15.9994           0
     34844 TIP3     3509     TIP3     H1       HT       0.417000       1.00800           0
     34845 TIP3     3509     TIP3     H2       HT       0.417000       1.00800           0
     34846 TIP3     3510     TIP3     OH2      OT      -0.834000       15.9994           0
     34847 TIP3     3510     TIP3     H1       HT       0.417000       1.00800           0
     34848 TIP3     3510     TIP3     H2       HT       0.417000       1.00800           0
     34849 TIP3     3511     TIP3     OH2      OT      -0.834000       15.9994           0
     34850 TIP3     3511     TIP3     H1       HT       0.417000       1.00800           0
     34851 TIP3     3511     TIP3     H2       HT       0.417000       1.00800           0
     34852 TIP3     3512     TIP3     OH2      OT      -0.834000       15.9994           0
     34853 TIP3     3512     TIP3     H1       HT       0.417000       1.00800           0
     34854 TIP3     3512     TIP3     H2       HT       0.417000       1.00800           0
     34855 TIP3     3513     TIP3     OH2      OT      -0.834000       15.9994           0
     34856 TIP3     3513     TIP3     H1       HT       0.417000       1.00800           0
     34857 TIP3     3513     TIP3     H2       HT       0.417000       1.00800           0
     34858 TIP3     3514     TIP3     OH2      OT      -0.834000       15.9994           0
     34859 TIP3     3514     TIP3     H1       HT       0.417000       1.00800           0
     34860 TIP3     3514     TIP3     H2       HT       0.417000       1.00800           0
     34861 TIP3     3515     TIP3     OH2      OT      -0.834000       15.9994           0
     34862 TIP3     3515     TIP3     H1       HT       0.417000       1.00800           0
     34863 TIP3     3515     TIP3     H2       HT       0.417000       1.00800           0
     34864 TIP3     3516     TIP3     OH2      OT      -0.834000       15.9994           0
     34865 TIP3     3516     TIP3     H1       HT       0.417000       1.00800           0
     34866 TIP3     3516     TIP3     H2       HT       0.417000       1.00800           0
     34867 TIP3     3517     TIP3     OH2      OT      -0.834000       15.9994           0
     34868 TIP3     3517     TIP3     H1       HT       0.417000       1.00800           0
     34869 TIP3     3517     TIP3     H2       HT       0.417000       1.00800           0
     34870 TIP3     3518     TIP3     OH2      OT      -0.834000       15.9994           0
     34871 TIP3     3518     TIP3     H1       HT       0.417000       1.00800           0
     34872 TIP3     3518     TIP3     H2       HT       0.417000       1.00800           0
     34873 TIP3     3519     TIP3     OH2      OT      -0.834000       15.9994           0
     34874 TIP3     3519     TIP3     H1       HT       0.417000       1.00800           0
     34875 TIP3     3519     TIP3     H2       HT       0.417000       1.00800           0
     34876 TIP3     3520     TIP3     OH2      OT      -0.834000       15.9994           0
     34877 TIP3     3520     TIP3     H1       HT       0.417000       1.00800           0
     34878 TIP3     3520     TIP3     H2       HT       0.417000       1.00800           0
     34879 TIP3     3521     TIP3     OH2      OT      -0.834000       15.9994           0
     34880 TIP3     3521     TIP3     H1       HT       0.417000       1.00800           0
     34881 TIP3     3521     TIP3     H2       HT       0.417000       1.00800           0
     34882 TIP3     3522     TIP3     OH2      OT      -0.834000       15.9994           0
     34883 TIP3     3522     TIP3     H1       HT       0.417000       1.00800           0
     34884 TIP3     3522     TIP3     H2       HT       0.417000       1.00800           0
     34885 TIP3     3523     TIP3     OH2      OT      -0.834000       15.9994           0
     34886 TIP3     3523     TIP3     H1       HT       0.417000       1.00800           0
     34887 TIP3     3523     TIP3     H2       HT       0.417000       1.00800           0
     34888 TIP3     3524     TIP3     OH2      OT      -0.834000       15.9994           0
     34889 TIP3     3524     TIP3     H1       HT       0.417000       1.00800           0
     34890 TIP3     3524     TIP3     H2       HT       0.417000       1.00800           0
     34891 TIP3     3525     TIP3     OH2      OT      -0.834000       15.9994           0
     34892 TIP3     3525     TIP3     H1       HT       0.417000       1.00800           0
     34893 TIP3     3525     TIP3     H2       HT       0.417000       1.00800           0
     34894 TIP3     3526     TIP3     OH2      OT      -0.834000       15.9994           0
     34895 TIP3     3526     TIP3     H1       HT       0.417000       1.00800           0
     34896 TIP3     3526     TIP3     H2       HT       0.417000       1.00800           0
     34897 TIP3     3527     TIP3     OH2      OT      -0.834000       15.9994           0
     34898 TIP3     3527     TIP3     H1       HT       0.417000       1.00800           0
     34899 TIP3     3527     TIP3     H2       HT       0.417000       1.00800           0
     34900 TIP3     3528     TIP3     OH2      OT      -0.834000       15.9994           0
     34901 TIP3     3528     TIP3     H1       HT       0.417000       1.00800           0
     34902 TIP3     3528     TIP3     H2       HT       0.417000       1.00800           0
     34903 TIP3     3529     TIP3     OH2      OT      -0.834000       15.9994           0
     34904 TIP3     3529     TIP3     H1       HT       0.417000       1.00800           0
     34905 TIP3     3529     TIP3     H2       HT       0.417000       1.00800           0
     34906 TIP3     3530     TIP3     OH2      OT      -0.834000       15.9994           0
     34907 TIP3     3530     TIP3     H1       HT       0.417000       1.00800           0
     34908 TIP3     3530     TIP3     H2       HT       0.417000       1.00800           0
     34909 TIP3     3531     TIP3     OH2      OT      -0.834000       15.9994           0
     34910 TIP3     3531     TIP3     H1       HT       0.417000       1.00800           0
     34911 TIP3     3531     TIP3     H2       HT       0.417000       1.00800           0
     34912 TIP3     3532     TIP3     OH2      OT      -0.834000       15.9994           0
     34913 TIP3     3532     TIP3     H1       HT       0.417000       1.00800           0
     34914 TIP3     3532     TIP3     H2       HT       0.417000       1.00800           0
     34915 TIP3     3533     TIP3     OH2      OT      -0.834000       15.9994           0
     34916 TIP3     3533     TIP3     H1       HT       0.417000       1.00800           0
     34917 TIP3     3533     TIP3     H2       HT       0.417000       1.00800           0
     34918 TIP3     3534     TIP3     OH2      OT      -0.834000       15.9994           0
     34919 TIP3     3534     TIP3     H1       HT       0.417000       1.00800           0
     34920 TIP3     3534     TIP3     H2       HT       0.417000       1.00800           0
     34921 TIP3     3535     TIP3     OH2      OT      -0.834000       15.9994           0
     34922 TIP3     3535     TIP3     H1       HT       0.417000       1.00800           0
     34923 TIP3     3535     TIP3     H2       HT       0.417000       1.00800           0
     34924 TIP3     3536     TIP3     OH2      OT      -0.834000       15.9994           0
     34925 TIP3     3536     TIP3     H1       HT       0.417000       1.00800           0
     34926 TIP3     3536     TIP3     H2       HT       0.417000       1.00800           0
     34927 TIP3     3537     TIP3     OH2      OT      -0.834000       15.9994           0
     34928 TIP3     3537     TIP3     H1       HT       0.417000       1.00800           0
     34929 TIP3     3537     TIP3     H2       HT       0.417000       1.00800           0
     34930 TIP3     3538     TIP3     OH2      OT      -0.834000       15.9994           0
     34931 TIP3     3538     TIP3     H1       HT       0.417000       1.00800           0
     34932 TIP3     3538     TIP3     H2       HT       0.417000       1.00800           0
     34933 TIP3     3539     TIP3     OH2      OT      -0.834000       15.9994           0
     34934 TIP3     3539     TIP3     H1       HT       0.417000       1.00800           0
     34935 TIP3     3539     TIP3     H2       HT       0.417000       1.00800           0
     34936 TIP3     3540     TIP3     OH2      OT      -0.834000       15.9994           0
     34937 TIP3     3540     TIP3     H1       HT       0.417000       1.00800           0
     34938 TIP3     3540     TIP3     H2       HT       0.417000       1.00800           0
     34939 TIP3     3541     TIP3     OH2      OT      -0.834000       15.9994           0
     34940 TIP3     3541     TIP3     H1       HT       0.417000       1.00800           0
     34941 TIP3     3541     TIP3     H2       HT       0.417000       1.00800           0
     34942 TIP3     3542     TIP3     OH2      OT      -0.834000       15.9994           0
     34943 TIP3     3542     TIP3     H1       HT       0.417000       1.00800           0
     34944 TIP3     3542     TIP3     H2       HT       0.417000       1.00800           0
     34945 TIP3     3543     TIP3     OH2      OT      -0.834000       15.9994           0
     34946 TIP3     3543     TIP3     H1       HT       0.417000       1.00800           0
     34947 TIP3     3543     TIP3     H2       HT       0.417000       1.00800           0
     34948 TIP3     3544     TIP3     OH2      OT      -0.834000       15.9994           0
     34949 TIP3     3544     TIP3     H1       HT       0.417000       1.00800           0
     34950 TIP3     3544     TIP3     H2       HT       0.417000       1.00800           0
     34951 TIP3     3545     TIP3     OH2      OT      -0.834000       15.9994           0
     34952 TIP3     3545     TIP3     H1       HT       0.417000       1.00800           0
     34953 TIP3     3545     TIP3     H2       HT       0.417000       1.00800           0
     34954 TIP3     3546     TIP3     OH2      OT      -0.834000       15.9994           0
     34955 TIP3     3546     TIP3     H1       HT       0.417000       1.00800           0
     34956 TIP3     3546     TIP3     H2       HT       0.417000       1.00800           0
     34957 TIP3     3547     TIP3     OH2      OT      -0.834000       15.9994           0
     34958 TIP3     3547     TIP3     H1       HT       0.417000       1.00800           0
     34959 TIP3     3547     TIP3     H2       HT       0.417000       1.00800           0
     34960 TIP3     3548     TIP3     OH2      OT      -0.834000       15.9994           0
     34961 TIP3     3548     TIP3     H1       HT       0.417000       1.00800           0
     34962 TIP3     3548     TIP3     H2       HT       0.417000       1.00800           0
     34963 TIP3     3549     TIP3     OH2      OT      -0.834000       15.9994           0
     34964 TIP3     3549     TIP3     H1       HT       0.417000       1.00800           0
     34965 TIP3     3549     TIP3     H2       HT       0.417000       1.00800           0
     34966 TIP3     3550     TIP3     OH2      OT      -0.834000       15.9994           0
     34967 TIP3     3550     TIP3     H1       HT       0.417000       1.00800           0
     34968 TIP3     3550     TIP3     H2       HT       0.417000       1.00800           0
     34969 TIP3     3551     TIP3     OH2      OT      -0.834000       15.9994           0
     34970 TIP3     3551     TIP3     H1       HT       0.417000       1.00800           0
     34971 TIP3     3551     TIP3     H2       HT       0.417000       1.00800           0
     34972 TIP3     3552     TIP3     OH2      OT      -0.834000       15.9994           0
     34973 TIP3     3552     TIP3     H1       HT       0.417000       1.00800           0
     34974 TIP3     3552     TIP3     H2       HT       0.417000       1.00800           0
     34975 TIP3     3553     TIP3     OH2      OT      -0.834000       15.9994           0
     34976 TIP3     3553     TIP3     H1       HT       0.417000       1.00800           0
     34977 TIP3     3553     TIP3     H2       HT       0.417000       1.00800           0
     34978 TIP3     3554     TIP3     OH2      OT      -0.834000       15.9994           0
     34979 TIP3     3554     TIP3     H1       HT       0.417000       1.00800           0
     34980 TIP3     3554     TIP3     H2       HT       0.417000       1.00800           0
     34981 TIP3     3555     TIP3     OH2      OT      -0.834000       15.9994           0
     34982 TIP3     3555     TIP3     H1       HT       0.417000       1.00800           0
     34983 TIP3     3555     TIP3     H2       HT       0.417000       1.00800           0
     34984 TIP3     3556     TIP3     OH2      OT      -0.834000       15.9994           0
     34985 TIP3     3556     TIP3     H1       HT       0.417000       1.00800           0
     34986 TIP3     3556     TIP3     H2       HT       0.417000       1.00800           0
     34987 TIP3     3557     TIP3     OH2      OT      -0.834000       15.9994           0
     34988 TIP3     3557     TIP3     H1       HT       0.417000       1.00800           0
     34989 TIP3     3557     TIP3     H2       HT       0.417000       1.00800           0
     34990 TIP3     3558     TIP3     OH2      OT      -0.834000       15.9994           0
     34991 TIP3     3558     TIP3     H1       HT       0.417000       1.00800           0
     34992 TIP3     3558     TIP3     H2       HT       0.417000       1.00800           0
     34993 TIP3     3559     TIP3     OH2      OT      -0.834000       15.9994           0
     34994 TIP3     3559     TIP3     H1       HT       0.417000       1.00800           0
     34995 TIP3     3559     TIP3     H2       HT       0.417000       1.00800           0
     34996 TIP3     3560     TIP3     OH2      OT      -0.834000       15.9994           0
     34997 TIP3     3560     TIP3     H1       HT       0.417000       1.00800           0
     34998 TIP3     3560     TIP3     H2       HT       0.417000       1.00800           0
     34999 TIP3     3561     TIP3     OH2      OT      -0.834000       15.9994           0
     35000 TIP3     3561     TIP3     H1       HT       0.417000       1.00800           0
     35001 TIP3     3561     TIP3     H2       HT       0.417000       1.00800           0
     35002 TIP3     3562     TIP3     OH2      OT      -0.834000       15.9994           0
     35003 TIP3     3562     TIP3     H1       HT       0.417000       1.00800           0
     35004 TIP3     3562     TIP3     H2       HT       0.417000       1.00800           0
     35005 TIP3     3563     TIP3     OH2      OT      -0.834000       15.9994           0
     35006 TIP3     3563     TIP3     H1       HT       0.417000       1.00800           0
     35007 TIP3     3563     TIP3     H2       HT       0.417000       1.00800           0
     35008 TIP3     3564     TIP3     OH2      OT      -0.834000       15.9994           0
     35009 TIP3     3564     TIP3     H1       HT       0.417000       1.00800           0
     35010 TIP3     3564     TIP3     H2       HT       0.417000       1.00800           0
     35011 TIP3     3565     TIP3     OH2      OT      -0.834000       15.9994           0
     35012 TIP3     3565     TIP3     H1       HT       0.417000       1.00800           0
     35013 TIP3     3565     TIP3     H2       HT       0.417000       1.00800           0
     35014 TIP3     3566     TIP3     OH2      OT      -0.834000       15.9994           0
     35015 TIP3     3566     TIP3     H1       HT       0.417000       1.00800           0
     35016 TIP3     3566     TIP3     H2       HT       0.417000       1.00800           0
     35017 TIP3     3567     TIP3     OH2      OT      -0.834000       15.9994           0
     35018 TIP3     3567     TIP3     H1       HT       0.417000       1.00800           0
     35019 TIP3     3567     TIP3     H2       HT       0.417000       1.00800           0
     35020 TIP3     3568     TIP3     OH2      OT      -0.834000       15.9994           0
     35021 TIP3     3568     TIP3     H1       HT       0.417000       1.00800           0
     35022 TIP3     3568     TIP3     H2       HT       0.417000       1.00800           0
     35023 TIP3     3569     TIP3     OH2      OT      -0.834000       15.9994           0
     35024 TIP3     3569     TIP3     H1       HT       0.417000       1.00800           0
     35025 TIP3     3569     TIP3     H2       HT       0.417000       1.00800           0
     35026 TIP3     3570     TIP3     OH2      OT      -0.834000       15.9994           0
     35027 TIP3     3570     TIP3     H1       HT       0.417000       1.00800           0
     35028 TIP3     3570     TIP3     H2       HT       0.417000       1.00800           0
     35029 TIP3     3571     TIP3     OH2      OT      -0.834000       15.9994           0
     35030 TIP3     3571     TIP3     H1       HT       0.417000       1.00800           0
     35031 TIP3     3571     TIP3     H2       HT       0.417000       1.00800           0
     35032 TIP3     3572     TIP3     OH2      OT      -0.834000       15.9994           0
     35033 TIP3     3572     TIP3     H1       HT       0.417000       1.00800           0
     35034 TIP3     3572     TIP3     H2       HT       0.417000       1.00800           0
     35035 TIP3     3573     TIP3     OH2      OT      -0.834000       15.9994           0
     35036 TIP3     3573     TIP3     H1       HT       0.417000       1.00800           0
     35037 TIP3     3573     TIP3     H2       HT       0.417000       1.00800           0
     35038 TIP3     3574     TIP3     OH2      OT      -0.834000       15.9994           0
     35039 TIP3     3574     TIP3     H1       HT       0.417000       1.00800           0
     35040 TIP3     3574     TIP3     H2       HT       0.417000       1.00800           0
     35041 TIP3     3575     TIP3     OH2      OT      -0.834000       15.9994           0
     35042 TIP3     3575     TIP3     H1       HT       0.417000       1.00800           0
     35043 TIP3     3575     TIP3     H2       HT       0.417000       1.00800           0
     35044 TIP3     3576     TIP3     OH2      OT      -0.834000       15.9994           0
     35045 TIP3     3576     TIP3     H1       HT       0.417000       1.00800           0
     35046 TIP3     3576     TIP3     H2       HT       0.417000       1.00800           0
     35047 TIP3     3577     TIP3     OH2      OT      -0.834000       15.9994           0
     35048 TIP3     3577     TIP3     H1       HT       0.417000       1.00800           0
     35049 TIP3     3577     TIP3     H2       HT       0.417000       1.00800           0
     35050 TIP3     3578     TIP3     OH2      OT      -0.834000       15.9994           0
     35051 TIP3     3578     TIP3     H1       HT       0.417000       1.00800           0
     35052 TIP3     3578     TIP3     H2       HT       0.417000       1.00800           0
     35053 TIP3     3579     TIP3     OH2      OT      -0.834000       15.9994           0
     35054 TIP3     3579     TIP3     H1       HT       0.417000       1.00800           0
     35055 TIP3     3579     TIP3     H2       HT       0.417000       1.00800           0
     35056 TIP3     3580     TIP3     OH2      OT      -0.834000       15.9994           0
     35057 TIP3     3580     TIP3     H1       HT       0.417000       1.00800           0
     35058 TIP3     3580     TIP3     H2       HT       0.417000       1.00800           0
     35059 TIP3     3581     TIP3     OH2      OT      -0.834000       15.9994           0
     35060 TIP3     3581     TIP3     H1       HT       0.417000       1.00800           0
     35061 TIP3     3581     TIP3     H2       HT       0.417000       1.00800           0
     35062 TIP3     3582     TIP3     OH2      OT      -0.834000       15.9994           0
     35063 TIP3     3582     TIP3     H1       HT       0.417000       1.00800           0
     35064 TIP3     3582     TIP3     H2       HT       0.417000       1.00800           0
     35065 TIP3     3583     TIP3     OH2      OT      -0.834000       15.9994           0
     35066 TIP3     3583     TIP3     H1       HT       0.417000       1.00800           0
     35067 TIP3     3583     TIP3     H2       HT       0.417000       1.00800           0
     35068 TIP3     3584     TIP3     OH2      OT      -0.834000       15.9994           0
     35069 TIP3     3584     TIP3     H1       HT       0.417000       1.00800           0
     35070 TIP3     3584     TIP3     H2       HT       0.417000       1.00800           0
     35071 TIP3     3585     TIP3     OH2      OT      -0.834000       15.9994           0
     35072 TIP3     3585     TIP3     H1       HT       0.417000       1.00800           0
     35073 TIP3     3585     TIP3     H2       HT       0.417000       1.00800           0
     35074 TIP3     3586     TIP3     OH2      OT      -0.834000       15.9994           0
     35075 TIP3     3586     TIP3     H1       HT       0.417000       1.00800           0
     35076 TIP3     3586     TIP3     H2       HT       0.417000       1.00800           0
     35077 TIP3     3587     TIP3     OH2      OT      -0.834000       15.9994           0
     35078 TIP3     3587     TIP3     H1       HT       0.417000       1.00800           0
     35079 TIP3     3587     TIP3     H2       HT       0.417000       1.00800           0
     35080 TIP3     3588     TIP3     OH2      OT      -0.834000       15.9994           0
     35081 TIP3     3588     TIP3     H1       HT       0.417000       1.00800           0
     35082 TIP3     3588     TIP3     H2       HT       0.417000       1.00800           0
     35083 TIP3     3589     TIP3     OH2      OT      -0.834000       15.9994           0
     35084 TIP3     3589     TIP3     H1       HT       0.417000       1.00800           0
     35085 TIP3     3589     TIP3     H2       HT       0.417000       1.00800           0
     35086 TIP3     3590     TIP3     OH2      OT      -0.834000       15.9994           0
     35087 TIP3     3590     TIP3     H1       HT       0.417000       1.00800           0
     35088 TIP3     3590     TIP3     H2       HT       0.417000       1.00800           0
     35089 TIP3     3591     TIP3     OH2      OT      -0.834000       15.9994           0
     35090 TIP3     3591     TIP3     H1       HT       0.417000       1.00800           0
     35091 TIP3     3591     TIP3     H2       HT       0.417000       1.00800           0
     35092 TIP3     3592     TIP3     OH2      OT      -0.834000       15.9994           0
     35093 TIP3     3592     TIP3     H1       HT       0.417000       1.00800           0
     35094 TIP3     3592     TIP3     H2       HT       0.417000       1.00800           0
     35095 TIP3     3593     TIP3     OH2      OT      -0.834000       15.9994           0
     35096 TIP3     3593     TIP3     H1       HT       0.417000       1.00800           0
     35097 TIP3     3593     TIP3     H2       HT       0.417000       1.00800           0
     35098 TIP3     3594     TIP3     OH2      OT      -0.834000       15.9994           0
     35099 TIP3     3594     TIP3     H1       HT       0.417000       1.00800           0
     35100 TIP3     3594     TIP3     H2       HT       0.417000       1.00800           0
     35101 TIP3     3595     TIP3     OH2      OT      -0.834000       15.9994           0
     35102 TIP3     3595     TIP3     H1       HT       0.417000       1.00800           0
     35103 TIP3     3595     TIP3     H2       HT       0.417000       1.00800           0
     35104 TIP3     3596     TIP3     OH2      OT      -0.834000       15.9994           0
     35105 TIP3     3596     TIP3     H1       HT       0.417000       1.00800           0
     35106 TIP3     3596     TIP3     H2       HT       0.417000       1.00800           0
     35107 TIP3     3597     TIP3     OH2      OT      -0.834000       15.9994           0
     35108 TIP3     3597     TIP3     H1       HT       0.417000       1.00800           0
     35109 TIP3     3597     TIP3     H2       HT       0.417000       1.00800           0
     35110 TIP3     3598     TIP3     OH2      OT      -0.834000       15.9994           0
     35111 TIP3     3598     TIP3     H1       HT       0.417000       1.00800           0
     35112 TIP3     3598     TIP3     H2       HT       0.417000       1.00800           0
     35113 TIP3     3599     TIP3     OH2      OT      -0.834000       15.9994           0
     35114 TIP3     3599     TIP3     H1       HT       0.417000       1.00800           0
     35115 TIP3     3599     TIP3     H2       HT       0.417000       1.00800           0
     35116 TIP3     3600     TIP3     OH2      OT      -0.834000       15.9994           0
     35117 TIP3     3600     TIP3     H1       HT       0.417000       1.00800           0
     35118 TIP3     3600     TIP3     H2       HT       0.417000       1.00800           0
     35119 TIP3     3601     TIP3     OH2      OT      -0.834000       15.9994           0
     35120 TIP3     3601     TIP3     H1       HT       0.417000       1.00800           0
     35121 TIP3     3601     TIP3     H2       HT       0.417000       1.00800           0
     35122 TIP3     3602     TIP3     OH2      OT      -0.834000       15.9994           0
     35123 TIP3     3602     TIP3     H1       HT       0.417000       1.00800           0
     35124 TIP3     3602     TIP3     H2       HT       0.417000       1.00800           0
     35125 TIP3     3603     TIP3     OH2      OT      -0.834000       15.9994           0
     35126 TIP3     3603     TIP3     H1       HT       0.417000       1.00800           0
     35127 TIP3     3603     TIP3     H2       HT       0.417000       1.00800           0
     35128 TIP3     3604     TIP3     OH2      OT      -0.834000       15.9994           0
     35129 TIP3     3604     TIP3     H1       HT       0.417000       1.00800           0
     35130 TIP3     3604     TIP3     H2       HT       0.417000       1.00800           0
     35131 TIP3     3605     TIP3     OH2      OT      -0.834000       15.9994           0
     35132 TIP3     3605     TIP3     H1       HT       0.417000       1.00800           0
     35133 TIP3     3605     TIP3     H2       HT       0.417000       1.00800           0
     35134 TIP3     3606     TIP3     OH2      OT      -0.834000       15.9994           0
     35135 TIP3     3606     TIP3     H1       HT       0.417000       1.00800           0
     35136 TIP3     3606     TIP3     H2       HT       0.417000       1.00800           0
     35137 TIP3     3607     TIP3     OH2      OT      -0.834000       15.9994           0
     35138 TIP3     3607     TIP3     H1       HT       0.417000       1.00800           0
     35139 TIP3     3607     TIP3     H2       HT       0.417000       1.00800           0
     35140 TIP3     3608     TIP3     OH2      OT      -0.834000       15.9994           0
     35141 TIP3     3608     TIP3     H1       HT       0.417000       1.00800           0
     35142 TIP3     3608     TIP3     H2       HT       0.417000       1.00800           0
     35143 TIP3     3609     TIP3     OH2      OT      -0.834000       15.9994           0
     35144 TIP3     3609     TIP3     H1       HT       0.417000       1.00800           0
     35145 TIP3     3609     TIP3     H2       HT       0.417000       1.00800           0
     35146 TIP3     3610     TIP3     OH2      OT      -0.834000       15.9994           0
     35147 TIP3     3610     TIP3     H1       HT       0.417000       1.00800           0
     35148 TIP3     3610     TIP3     H2       HT       0.417000       1.00800           0
     35149 TIP3     3611     TIP3     OH2      OT      -0.834000       15.9994           0
     35150 TIP3     3611     TIP3     H1       HT       0.417000       1.00800           0
     35151 TIP3     3611     TIP3     H2       HT       0.417000       1.00800           0
     35152 TIP3     3612     TIP3     OH2      OT      -0.834000       15.9994           0
     35153 TIP3     3612     TIP3     H1       HT       0.417000       1.00800           0
     35154 TIP3     3612     TIP3     H2       HT       0.417000       1.00800           0
     35155 TIP3     3613     TIP3     OH2      OT      -0.834000       15.9994           0
     35156 TIP3     3613     TIP3     H1       HT       0.417000       1.00800           0
     35157 TIP3     3613     TIP3     H2       HT       0.417000       1.00800           0
     35158 TIP3     3614     TIP3     OH2      OT      -0.834000       15.9994           0
     35159 TIP3     3614     TIP3     H1       HT       0.417000       1.00800           0
     35160 TIP3     3614     TIP3     H2       HT       0.417000       1.00800           0
     35161 TIP3     3615     TIP3     OH2      OT      -0.834000       15.9994           0
     35162 TIP3     3615     TIP3     H1       HT       0.417000       1.00800           0
     35163 TIP3     3615     TIP3     H2       HT       0.417000       1.00800           0
     35164 TIP3     3616     TIP3     OH2      OT      -0.834000       15.9994           0
     35165 TIP3     3616     TIP3     H1       HT       0.417000       1.00800           0
     35166 TIP3     3616     TIP3     H2       HT       0.417000       1.00800           0
     35167 TIP3     3617     TIP3     OH2      OT      -0.834000       15.9994           0
     35168 TIP3     3617     TIP3     H1       HT       0.417000       1.00800           0
     35169 TIP3     3617     TIP3     H2       HT       0.417000       1.00800           0
     35170 TIP3     3618     TIP3     OH2      OT      -0.834000       15.9994           0
     35171 TIP3     3618     TIP3     H1       HT       0.417000       1.00800           0
     35172 TIP3     3618     TIP3     H2       HT       0.417000       1.00800           0
     35173 TIP3     3619     TIP3     OH2      OT      -0.834000       15.9994           0
     35174 TIP3     3619     TIP3     H1       HT       0.417000       1.00800           0
     35175 TIP3     3619     TIP3     H2       HT       0.417000       1.00800           0
     35176 TIP3     3620     TIP3     OH2      OT      -0.834000       15.9994           0
     35177 TIP3     3620     TIP3     H1       HT       0.417000       1.00800           0
     35178 TIP3     3620     TIP3     H2       HT       0.417000       1.00800           0
     35179 TIP3     3621     TIP3     OH2      OT      -0.834000       15.9994           0
     35180 TIP3     3621     TIP3     H1       HT       0.417000       1.00800           0
     35181 TIP3     3621     TIP3     H2       HT       0.417000       1.00800           0
     35182 TIP3     3622     TIP3     OH2      OT      -0.834000       15.9994           0
     35183 TIP3     3622     TIP3     H1       HT       0.417000       1.00800           0
     35184 TIP3     3622     TIP3     H2       HT       0.417000       1.00800           0
     35185 TIP3     3623     TIP3     OH2      OT      -0.834000       15.9994           0
     35186 TIP3     3623     TIP3     H1       HT       0.417000       1.00800           0
     35187 TIP3     3623     TIP3     H2       HT       0.417000       1.00800           0
     35188 TIP3     3624     TIP3     OH2      OT      -0.834000       15.9994           0
     35189 TIP3     3624     TIP3     H1       HT       0.417000       1.00800           0
     35190 TIP3     3624     TIP3     H2       HT       0.417000       1.00800           0
     35191 TIP3     3625     TIP3     OH2      OT      -0.834000       15.9994           0
     35192 TIP3     3625     TIP3     H1       HT       0.417000       1.00800           0
     35193 TIP3     3625     TIP3     H2       HT       0.417000       1.00800           0
     35194 TIP3     3626     TIP3     OH2      OT      -0.834000       15.9994           0
     35195 TIP3     3626     TIP3     H1       HT       0.417000       1.00800           0
     35196 TIP3     3626     TIP3     H2       HT       0.417000       1.00800           0
     35197 TIP3     3627     TIP3     OH2      OT      -0.834000       15.9994           0
     35198 TIP3     3627     TIP3     H1       HT       0.417000       1.00800           0
     35199 TIP3     3627     TIP3     H2       HT       0.417000       1.00800           0
     35200 TIP3     3628     TIP3     OH2      OT      -0.834000       15.9994           0
     35201 TIP3     3628     TIP3     H1       HT       0.417000       1.00800           0
     35202 TIP3     3628     TIP3     H2       HT       0.417000       1.00800           0
     35203 TIP3     3629     TIP3     OH2      OT      -0.834000       15.9994           0
     35204 TIP3     3629     TIP3     H1       HT       0.417000       1.00800           0
     35205 TIP3     3629     TIP3     H2       HT       0.417000       1.00800           0
     35206 TIP3     3630     TIP3     OH2      OT      -0.834000       15.9994           0
     35207 TIP3     3630     TIP3     H1       HT       0.417000       1.00800           0
     35208 TIP3     3630     TIP3     H2       HT       0.417000       1.00800           0
     35209 TIP3     3631     TIP3     OH2      OT      -0.834000       15.9994           0
     35210 TIP3     3631     TIP3     H1       HT       0.417000       1.00800           0
     35211 TIP3     3631     TIP3     H2       HT       0.417000       1.00800           0
     35212 TIP3     3632     TIP3     OH2      OT      -0.834000       15.9994           0
     35213 TIP3     3632     TIP3     H1       HT       0.417000       1.00800           0
     35214 TIP3     3632     TIP3     H2       HT       0.417000       1.00800           0
     35215 TIP3     3633     TIP3     OH2      OT      -0.834000       15.9994           0
     35216 TIP3     3633     TIP3     H1       HT       0.417000       1.00800           0
     35217 TIP3     3633     TIP3     H2       HT       0.417000       1.00800           0
     35218 TIP3     3634     TIP3     OH2      OT      -0.834000       15.9994           0
     35219 TIP3     3634     TIP3     H1       HT       0.417000       1.00800           0
     35220 TIP3     3634     TIP3     H2       HT       0.417000       1.00800           0
     35221 TIP3     3635     TIP3     OH2      OT      -0.834000       15.9994           0
     35222 TIP3     3635     TIP3     H1       HT       0.417000       1.00800           0
     35223 TIP3     3635     TIP3     H2       HT       0.417000       1.00800           0
     35224 TIP3     3636     TIP3     OH2      OT      -0.834000       15.9994           0
     35225 TIP3     3636     TIP3     H1       HT       0.417000       1.00800           0
     35226 TIP3     3636     TIP3     H2       HT       0.417000       1.00800           0
     35227 TIP3     3637     TIP3     OH2      OT      -0.834000       15.9994           0
     35228 TIP3     3637     TIP3     H1       HT       0.417000       1.00800           0
     35229 TIP3     3637     TIP3     H2       HT       0.417000       1.00800           0
     35230 TIP3     3638     TIP3     OH2      OT      -0.834000       15.9994           0
     35231 TIP3     3638     TIP3     H1       HT       0.417000       1.00800           0
     35232 TIP3     3638     TIP3     H2       HT       0.417000       1.00800           0
     35233 TIP3     3639     TIP3     OH2      OT      -0.834000       15.9994           0
     35234 TIP3     3639     TIP3     H1       HT       0.417000       1.00800           0
     35235 TIP3     3639     TIP3     H2       HT       0.417000       1.00800           0
     35236 TIP3     3640     TIP3     OH2      OT      -0.834000       15.9994           0
     35237 TIP3     3640     TIP3     H1       HT       0.417000       1.00800           0
     35238 TIP3     3640     TIP3     H2       HT       0.417000       1.00800           0
     35239 TIP3     3641     TIP3     OH2      OT      -0.834000       15.9994           0
     35240 TIP3     3641     TIP3     H1       HT       0.417000       1.00800           0
     35241 TIP3     3641     TIP3     H2       HT       0.417000       1.00800           0
     35242 TIP3     3642     TIP3     OH2      OT      -0.834000       15.9994           0
     35243 TIP3     3642     TIP3     H1       HT       0.417000       1.00800           0
     35244 TIP3     3642     TIP3     H2       HT       0.417000       1.00800           0
     35245 TIP3     3643     TIP3     OH2      OT      -0.834000       15.9994           0
     35246 TIP3     3643     TIP3     H1       HT       0.417000       1.00800           0
     35247 TIP3     3643     TIP3     H2       HT       0.417000       1.00800           0
     35248 TIP3     3644     TIP3     OH2      OT      -0.834000       15.9994           0
     35249 TIP3     3644     TIP3     H1       HT       0.417000       1.00800           0
     35250 TIP3     3644     TIP3     H2       HT       0.417000       1.00800           0
     35251 TIP3     3645     TIP3     OH2      OT      -0.834000       15.9994           0
     35252 TIP3     3645     TIP3     H1       HT       0.417000       1.00800           0
     35253 TIP3     3645     TIP3     H2       HT       0.417000       1.00800           0
     35254 TIP3     3646     TIP3     OH2      OT      -0.834000       15.9994           0
     35255 TIP3     3646     TIP3     H1       HT       0.417000       1.00800           0
     35256 TIP3     3646     TIP3     H2       HT       0.417000       1.00800           0
     35257 TIP3     3647     TIP3     OH2      OT      -0.834000       15.9994           0
     35258 TIP3     3647     TIP3     H1       HT       0.417000       1.00800           0
     35259 TIP3     3647     TIP3     H2       HT       0.417000       1.00800           0
     35260 TIP3     3648     TIP3     OH2      OT      -0.834000       15.9994           0
     35261 TIP3     3648     TIP3     H1       HT       0.417000       1.00800           0
     35262 TIP3     3648     TIP3     H2       HT       0.417000       1.00800           0
     35263 TIP3     3649     TIP3     OH2      OT      -0.834000       15.9994           0
     35264 TIP3     3649     TIP3     H1       HT       0.417000       1.00800           0
     35265 TIP3     3649     TIP3     H2       HT       0.417000       1.00800           0
     35266 TIP3     3650     TIP3     OH2      OT      -0.834000       15.9994           0
     35267 TIP3     3650     TIP3     H1       HT       0.417000       1.00800           0
     35268 TIP3     3650     TIP3     H2       HT       0.417000       1.00800           0
     35269 TIP3     3651     TIP3     OH2      OT      -0.834000       15.9994           0
     35270 TIP3     3651     TIP3     H1       HT       0.417000       1.00800           0
     35271 TIP3     3651     TIP3     H2       HT       0.417000       1.00800           0
     35272 TIP3     3652     TIP3     OH2      OT      -0.834000       15.9994           0
     35273 TIP3     3652     TIP3     H1       HT       0.417000       1.00800           0
     35274 TIP3     3652     TIP3     H2       HT       0.417000       1.00800           0
     35275 TIP3     3653     TIP3     OH2      OT      -0.834000       15.9994           0
     35276 TIP3     3653     TIP3     H1       HT       0.417000       1.00800           0
     35277 TIP3     3653     TIP3     H2       HT       0.417000       1.00800           0
     35278 TIP3     3654     TIP3     OH2      OT      -0.834000       15.9994           0
     35279 TIP3     3654     TIP3     H1       HT       0.417000       1.00800           0
     35280 TIP3     3654     TIP3     H2       HT       0.417000       1.00800           0
     35281 TIP3     3655     TIP3     OH2      OT      -0.834000       15.9994           0
     35282 TIP3     3655     TIP3     H1       HT       0.417000       1.00800           0
     35283 TIP3     3655     TIP3     H2       HT       0.417000       1.00800           0
     35284 TIP3     3656     TIP3     OH2      OT      -0.834000       15.9994           0
     35285 TIP3     3656     TIP3     H1       HT       0.417000       1.00800           0
     35286 TIP3     3656     TIP3     H2       HT       0.417000       1.00800           0
     35287 TIP3     3657     TIP3     OH2      OT      -0.834000       15.9994           0
     35288 TIP3     3657     TIP3     H1       HT       0.417000       1.00800           0
     35289 TIP3     3657     TIP3     H2       HT       0.417000       1.00800           0
     35290 TIP3     3658     TIP3     OH2      OT      -0.834000       15.9994           0
     35291 TIP3     3658     TIP3     H1       HT       0.417000       1.00800           0
     35292 TIP3     3658     TIP3     H2       HT       0.417000       1.00800           0
     35293 TIP3     3659     TIP3     OH2      OT      -0.834000       15.9994           0
     35294 TIP3     3659     TIP3     H1       HT       0.417000       1.00800           0
     35295 TIP3     3659     TIP3     H2       HT       0.417000       1.00800           0
     35296 TIP3     3660     TIP3     OH2      OT      -0.834000       15.9994           0
     35297 TIP3     3660     TIP3     H1       HT       0.417000       1.00800           0
     35298 TIP3     3660     TIP3     H2       HT       0.417000       1.00800           0
     35299 TIP3     3661     TIP3     OH2      OT      -0.834000       15.9994           0
     35300 TIP3     3661     TIP3     H1       HT       0.417000       1.00800           0
     35301 TIP3     3661     TIP3     H2       HT       0.417000       1.00800           0
     35302 TIP3     3662     TIP3     OH2      OT      -0.834000       15.9994           0
     35303 TIP3     3662     TIP3     H1       HT       0.417000       1.00800           0
     35304 TIP3     3662     TIP3     H2       HT       0.417000       1.00800           0
     35305 TIP3     3663     TIP3     OH2      OT      -0.834000       15.9994           0
     35306 TIP3     3663     TIP3     H1       HT       0.417000       1.00800           0
     35307 TIP3     3663     TIP3     H2       HT       0.417000       1.00800           0
     35308 TIP3     3664     TIP3     OH2      OT      -0.834000       15.9994           0
     35309 TIP3     3664     TIP3     H1       HT       0.417000       1.00800           0
     35310 TIP3     3664     TIP3     H2       HT       0.417000       1.00800           0
     35311 TIP3     3665     TIP3     OH2      OT      -0.834000       15.9994           0
     35312 TIP3     3665     TIP3     H1       HT       0.417000       1.00800           0
     35313 TIP3     3665     TIP3     H2       HT       0.417000       1.00800           0
     35314 TIP3     3666     TIP3     OH2      OT      -0.834000       15.9994           0
     35315 TIP3     3666     TIP3     H1       HT       0.417000       1.00800           0
     35316 TIP3     3666     TIP3     H2       HT       0.417000       1.00800           0
     35317 TIP3     3667     TIP3     OH2      OT      -0.834000       15.9994           0
     35318 TIP3     3667     TIP3     H1       HT       0.417000       1.00800           0
     35319 TIP3     3667     TIP3     H2       HT       0.417000       1.00800           0
     35320 TIP3     3668     TIP3     OH2      OT      -0.834000       15.9994           0
     35321 TIP3     3668     TIP3     H1       HT       0.417000       1.00800           0
     35322 TIP3     3668     TIP3     H2       HT       0.417000       1.00800           0
     35323 TIP3     3669     TIP3     OH2      OT      -0.834000       15.9994           0
     35324 TIP3     3669     TIP3     H1       HT       0.417000       1.00800           0
     35325 TIP3     3669     TIP3     H2       HT       0.417000       1.00800           0
     35326 TIP3     3670     TIP3     OH2      OT      -0.834000       15.9994           0
     35327 TIP3     3670     TIP3     H1       HT       0.417000       1.00800           0
     35328 TIP3     3670     TIP3     H2       HT       0.417000       1.00800           0
     35329 TIP3     3671     TIP3     OH2      OT      -0.834000       15.9994           0
     35330 TIP3     3671     TIP3     H1       HT       0.417000       1.00800           0
     35331 TIP3     3671     TIP3     H2       HT       0.417000       1.00800           0
     35332 TIP3     3672     TIP3     OH2      OT      -0.834000       15.9994           0
     35333 TIP3     3672     TIP3     H1       HT       0.417000       1.00800           0
     35334 TIP3     3672     TIP3     H2       HT       0.417000       1.00800           0
     35335 TIP3     3673     TIP3     OH2      OT      -0.834000       15.9994           0
     35336 TIP3     3673     TIP3     H1       HT       0.417000       1.00800           0
     35337 TIP3     3673     TIP3     H2       HT       0.417000       1.00800           0
     35338 TIP3     3674     TIP3     OH2      OT      -0.834000       15.9994           0
     35339 TIP3     3674     TIP3     H1       HT       0.417000       1.00800           0
     35340 TIP3     3674     TIP3     H2       HT       0.417000       1.00800           0
     35341 TIP3     3675     TIP3     OH2      OT      -0.834000       15.9994           0
     35342 TIP3     3675     TIP3     H1       HT       0.417000       1.00800           0
     35343 TIP3     3675     TIP3     H2       HT       0.417000       1.00800           0
     35344 TIP3     3676     TIP3     OH2      OT      -0.834000       15.9994           0
     35345 TIP3     3676     TIP3     H1       HT       0.417000       1.00800           0
     35346 TIP3     3676     TIP3     H2       HT       0.417000       1.00800           0
     35347 TIP3     3677     TIP3     OH2      OT      -0.834000       15.9994           0
     35348 TIP3     3677     TIP3     H1       HT       0.417000       1.00800           0
     35349 TIP3     3677     TIP3     H2       HT       0.417000       1.00800           0
     35350 TIP3     3678     TIP3     OH2      OT      -0.834000       15.9994           0
     35351 TIP3     3678     TIP3     H1       HT       0.417000       1.00800           0
     35352 TIP3     3678     TIP3     H2       HT       0.417000       1.00800           0
     35353 TIP3     3679     TIP3     OH2      OT      -0.834000       15.9994           0
     35354 TIP3     3679     TIP3     H1       HT       0.417000       1.00800           0
     35355 TIP3     3679     TIP3     H2       HT       0.417000       1.00800           0
     35356 TIP3     3680     TIP3     OH2      OT      -0.834000       15.9994           0
     35357 TIP3     3680     TIP3     H1       HT       0.417000       1.00800           0
     35358 TIP3     3680     TIP3     H2       HT       0.417000       1.00800           0
     35359 TIP3     3681     TIP3     OH2      OT      -0.834000       15.9994           0
     35360 TIP3     3681     TIP3     H1       HT       0.417000       1.00800           0
     35361 TIP3     3681     TIP3     H2       HT       0.417000       1.00800           0
     35362 TIP3     3682     TIP3     OH2      OT      -0.834000       15.9994           0
     35363 TIP3     3682     TIP3     H1       HT       0.417000       1.00800           0
     35364 TIP3     3682     TIP3     H2       HT       0.417000       1.00800           0
     35365 TIP3     3683     TIP3     OH2      OT      -0.834000       15.9994           0
     35366 TIP3     3683     TIP3     H1       HT       0.417000       1.00800           0
     35367 TIP3     3683     TIP3     H2       HT       0.417000       1.00800           0
     35368 TIP3     3684     TIP3     OH2      OT      -0.834000       15.9994           0
     35369 TIP3     3684     TIP3     H1       HT       0.417000       1.00800           0
     35370 TIP3     3684     TIP3     H2       HT       0.417000       1.00800           0
     35371 TIP3     3685     TIP3     OH2      OT      -0.834000       15.9994           0
     35372 TIP3     3685     TIP3     H1       HT       0.417000       1.00800           0
     35373 TIP3     3685     TIP3     H2       HT       0.417000       1.00800           0
     35374 TIP3     3686     TIP3     OH2      OT      -0.834000       15.9994           0
     35375 TIP3     3686     TIP3     H1       HT       0.417000       1.00800           0
     35376 TIP3     3686     TIP3     H2       HT       0.417000       1.00800           0
     35377 TIP3     3687     TIP3     OH2      OT      -0.834000       15.9994           0
     35378 TIP3     3687     TIP3     H1       HT       0.417000       1.00800           0
     35379 TIP3     3687     TIP3     H2       HT       0.417000       1.00800           0
     35380 TIP3     3688     TIP3     OH2      OT      -0.834000       15.9994           0
     35381 TIP3     3688     TIP3     H1       HT       0.417000       1.00800           0
     35382 TIP3     3688     TIP3     H2       HT       0.417000       1.00800           0
     35383 TIP3     3689     TIP3     OH2      OT      -0.834000       15.9994           0
     35384 TIP3     3689     TIP3     H1       HT       0.417000       1.00800           0
     35385 TIP3     3689     TIP3     H2       HT       0.417000       1.00800           0
     35386 TIP3     3690     TIP3     OH2      OT      -0.834000       15.9994           0
     35387 TIP3     3690     TIP3     H1       HT       0.417000       1.00800           0
     35388 TIP3     3690     TIP3     H2       HT       0.417000       1.00800           0
     35389 TIP3     3691     TIP3     OH2      OT      -0.834000       15.9994           0
     35390 TIP3     3691     TIP3     H1       HT       0.417000       1.00800           0
     35391 TIP3     3691     TIP3     H2       HT       0.417000       1.00800           0
     35392 TIP3     3692     TIP3     OH2      OT      -0.834000       15.9994           0
     35393 TIP3     3692     TIP3     H1       HT       0.417000       1.00800           0
     35394 TIP3     3692     TIP3     H2       HT       0.417000       1.00800           0
     35395 TIP3     3693     TIP3     OH2      OT      -0.834000       15.9994           0
     35396 TIP3     3693     TIP3     H1       HT       0.417000       1.00800           0
     35397 TIP3     3693     TIP3     H2       HT       0.417000       1.00800           0
     35398 TIP3     3694     TIP3     OH2      OT      -0.834000       15.9994           0
     35399 TIP3     3694     TIP3     H1       HT       0.417000       1.00800           0
     35400 TIP3     3694     TIP3     H2       HT       0.417000       1.00800           0
     35401 TIP3     3695     TIP3     OH2      OT      -0.834000       15.9994           0
     35402 TIP3     3695     TIP3     H1       HT       0.417000       1.00800           0
     35403 TIP3     3695     TIP3     H2       HT       0.417000       1.00800           0
     35404 TIP3     3696     TIP3     OH2      OT      -0.834000       15.9994           0
     35405 TIP3     3696     TIP3     H1       HT       0.417000       1.00800           0
     35406 TIP3     3696     TIP3     H2       HT       0.417000       1.00800           0
     35407 TIP3     3697     TIP3     OH2      OT      -0.834000       15.9994           0
     35408 TIP3     3697     TIP3     H1       HT       0.417000       1.00800           0
     35409 TIP3     3697     TIP3     H2       HT       0.417000       1.00800           0
     35410 TIP3     3698     TIP3     OH2      OT      -0.834000       15.9994           0
     35411 TIP3     3698     TIP3     H1       HT       0.417000       1.00800           0
     35412 TIP3     3698     TIP3     H2       HT       0.417000       1.00800           0
     35413 TIP3     3699     TIP3     OH2      OT      -0.834000       15.9994           0
     35414 TIP3     3699     TIP3     H1       HT       0.417000       1.00800           0
     35415 TIP3     3699     TIP3     H2       HT       0.417000       1.00800           0
     35416 TIP3     3700     TIP3     OH2      OT      -0.834000       15.9994           0
     35417 TIP3     3700     TIP3     H1       HT       0.417000       1.00800           0
     35418 TIP3     3700     TIP3     H2       HT       0.417000       1.00800           0
     35419 TIP3     3701     TIP3     OH2      OT      -0.834000       15.9994           0
     35420 TIP3     3701     TIP3     H1       HT       0.417000       1.00800           0
     35421 TIP3     3701     TIP3     H2       HT       0.417000       1.00800           0
     35422 TIP3     3702     TIP3     OH2      OT      -0.834000       15.9994           0
     35423 TIP3     3702     TIP3     H1       HT       0.417000       1.00800           0
     35424 TIP3     3702     TIP3     H2       HT       0.417000       1.00800           0
     35425 TIP3     3703     TIP3     OH2      OT      -0.834000       15.9994           0
     35426 TIP3     3703     TIP3     H1       HT       0.417000       1.00800           0
     35427 TIP3     3703     TIP3     H2       HT       0.417000       1.00800           0
     35428 TIP3     3704     TIP3     OH2      OT      -0.834000       15.9994           0
     35429 TIP3     3704     TIP3     H1       HT       0.417000       1.00800           0
     35430 TIP3     3704     TIP3     H2       HT       0.417000       1.00800           0
     35431 TIP3     3705     TIP3     OH2      OT      -0.834000       15.9994           0
     35432 TIP3     3705     TIP3     H1       HT       0.417000       1.00800           0
     35433 TIP3     3705     TIP3     H2       HT       0.417000       1.00800           0
     35434 TIP3     3706     TIP3     OH2      OT      -0.834000       15.9994           0
     35435 TIP3     3706     TIP3     H1       HT       0.417000       1.00800           0
     35436 TIP3     3706     TIP3     H2       HT       0.417000       1.00800           0
     35437 TIP3     3707     TIP3     OH2      OT      -0.834000       15.9994           0
     35438 TIP3     3707     TIP3     H1       HT       0.417000       1.00800           0
     35439 TIP3     3707     TIP3     H2       HT       0.417000       1.00800           0
     35440 TIP3     3708     TIP3     OH2      OT      -0.834000       15.9994           0
     35441 TIP3     3708     TIP3     H1       HT       0.417000       1.00800           0
     35442 TIP3     3708     TIP3     H2       HT       0.417000       1.00800           0
     35443 TIP3     3709     TIP3     OH2      OT      -0.834000       15.9994           0
     35444 TIP3     3709     TIP3     H1       HT       0.417000       1.00800           0
     35445 TIP3     3709     TIP3     H2       HT       0.417000       1.00800           0
     35446 TIP3     3710     TIP3     OH2      OT      -0.834000       15.9994           0
     35447 TIP3     3710     TIP3     H1       HT       0.417000       1.00800           0
     35448 TIP3     3710     TIP3     H2       HT       0.417000       1.00800           0
     35449 TIP3     3711     TIP3     OH2      OT      -0.834000       15.9994           0
     35450 TIP3     3711     TIP3     H1       HT       0.417000       1.00800           0
     35451 TIP3     3711     TIP3     H2       HT       0.417000       1.00800           0
     35452 TIP3     3712     TIP3     OH2      OT      -0.834000       15.9994           0
     35453 TIP3     3712     TIP3     H1       HT       0.417000       1.00800           0
     35454 TIP3     3712     TIP3     H2       HT       0.417000       1.00800           0
     35455 TIP3     3713     TIP3     OH2      OT      -0.834000       15.9994           0
     35456 TIP3     3713     TIP3     H1       HT       0.417000       1.00800           0
     35457 TIP3     3713     TIP3     H2       HT       0.417000       1.00800           0
     35458 TIP3     3714     TIP3     OH2      OT      -0.834000       15.9994           0
     35459 TIP3     3714     TIP3     H1       HT       0.417000       1.00800           0
     35460 TIP3     3714     TIP3     H2       HT       0.417000       1.00800           0
     35461 TIP3     3715     TIP3     OH2      OT      -0.834000       15.9994           0
     35462 TIP3     3715     TIP3     H1       HT       0.417000       1.00800           0
     35463 TIP3     3715     TIP3     H2       HT       0.417000       1.00800           0
     35464 TIP3     3716     TIP3     OH2      OT      -0.834000       15.9994           0
     35465 TIP3     3716     TIP3     H1       HT       0.417000       1.00800           0
     35466 TIP3     3716     TIP3     H2       HT       0.417000       1.00800           0
     35467 TIP3     3717     TIP3     OH2      OT      -0.834000       15.9994           0
     35468 TIP3     3717     TIP3     H1       HT       0.417000       1.00800           0
     35469 TIP3     3717     TIP3     H2       HT       0.417000       1.00800           0
     35470 TIP3     3718     TIP3     OH2      OT      -0.834000       15.9994           0
     35471 TIP3     3718     TIP3     H1       HT       0.417000       1.00800           0
     35472 TIP3     3718     TIP3     H2       HT       0.417000       1.00800           0
     35473 TIP3     3719     TIP3     OH2      OT      -0.834000       15.9994           0
     35474 TIP3     3719     TIP3     H1       HT       0.417000       1.00800           0
     35475 TIP3     3719     TIP3     H2       HT       0.417000       1.00800           0
     35476 TIP3     3720     TIP3     OH2      OT      -0.834000       15.9994           0
     35477 TIP3     3720     TIP3     H1       HT       0.417000       1.00800           0
     35478 TIP3     3720     TIP3     H2       HT       0.417000       1.00800           0
     35479 TIP3     3721     TIP3     OH2      OT      -0.834000       15.9994           0
     35480 TIP3     3721     TIP3     H1       HT       0.417000       1.00800           0
     35481 TIP3     3721     TIP3     H2       HT       0.417000       1.00800           0
     35482 TIP3     3722     TIP3     OH2      OT      -0.834000       15.9994           0
     35483 TIP3     3722     TIP3     H1       HT       0.417000       1.00800           0
     35484 TIP3     3722     TIP3     H2       HT       0.417000       1.00800           0
     35485 TIP3     3723     TIP3     OH2      OT      -0.834000       15.9994           0
     35486 TIP3     3723     TIP3     H1       HT       0.417000       1.00800           0
     35487 TIP3     3723     TIP3     H2       HT       0.417000       1.00800           0
     35488 TIP3     3724     TIP3     OH2      OT      -0.834000       15.9994           0
     35489 TIP3     3724     TIP3     H1       HT       0.417000       1.00800           0
     35490 TIP3     3724     TIP3     H2       HT       0.417000       1.00800           0
     35491 TIP3     3725     TIP3     OH2      OT      -0.834000       15.9994           0
     35492 TIP3     3725     TIP3     H1       HT       0.417000       1.00800           0
     35493 TIP3     3725     TIP3     H2       HT       0.417000       1.00800           0
     35494 TIP3     3726     TIP3     OH2      OT      -0.834000       15.9994           0
     35495 TIP3     3726     TIP3     H1       HT       0.417000       1.00800           0
     35496 TIP3     3726     TIP3     H2       HT       0.417000       1.00800           0
     35497 TIP3     3727     TIP3     OH2      OT      -0.834000       15.9994           0
     35498 TIP3     3727     TIP3     H1       HT       0.417000       1.00800           0
     35499 TIP3     3727     TIP3     H2       HT       0.417000       1.00800           0
     35500 TIP3     3728     TIP3     OH2      OT      -0.834000       15.9994           0
     35501 TIP3     3728     TIP3     H1       HT       0.417000       1.00800           0
     35502 TIP3     3728     TIP3     H2       HT       0.417000       1.00800           0
     35503 TIP3     3729     TIP3     OH2      OT      -0.834000       15.9994           0
     35504 TIP3     3729     TIP3     H1       HT       0.417000       1.00800           0
     35505 TIP3     3729     TIP3     H2       HT       0.417000       1.00800           0
     35506 TIP3     3730     TIP3     OH2      OT      -0.834000       15.9994           0
     35507 TIP3     3730     TIP3     H1       HT       0.417000       1.00800           0
     35508 TIP3     3730     TIP3     H2       HT       0.417000       1.00800           0
     35509 TIP3     3731     TIP3     OH2      OT      -0.834000       15.9994           0
     35510 TIP3     3731     TIP3     H1       HT       0.417000       1.00800           0
     35511 TIP3     3731     TIP3     H2       HT       0.417000       1.00800           0
     35512 TIP3     3732     TIP3     OH2      OT      -0.834000       15.9994           0
     35513 TIP3     3732     TIP3     H1       HT       0.417000       1.00800           0
     35514 TIP3     3732     TIP3     H2       HT       0.417000       1.00800           0
     35515 TIP3     3733     TIP3     OH2      OT      -0.834000       15.9994           0
     35516 TIP3     3733     TIP3     H1       HT       0.417000       1.00800           0
     35517 TIP3     3733     TIP3     H2       HT       0.417000       1.00800           0
     35518 TIP3     3734     TIP3     OH2      OT      -0.834000       15.9994           0
     35519 TIP3     3734     TIP3     H1       HT       0.417000       1.00800           0
     35520 TIP3     3734     TIP3     H2       HT       0.417000       1.00800           0
     35521 TIP3     3735     TIP3     OH2      OT      -0.834000       15.9994           0
     35522 TIP3     3735     TIP3     H1       HT       0.417000       1.00800           0
     35523 TIP3     3735     TIP3     H2       HT       0.417000       1.00800           0
     35524 TIP3     3736     TIP3     OH2      OT      -0.834000       15.9994           0
     35525 TIP3     3736     TIP3     H1       HT       0.417000       1.00800           0
     35526 TIP3     3736     TIP3     H2       HT       0.417000       1.00800           0
     35527 TIP3     3737     TIP3     OH2      OT      -0.834000       15.9994           0
     35528 TIP3     3737     TIP3     H1       HT       0.417000       1.00800           0
     35529 TIP3     3737     TIP3     H2       HT       0.417000       1.00800           0
     35530 TIP3     3738     TIP3     OH2      OT      -0.834000       15.9994           0
     35531 TIP3     3738     TIP3     H1       HT       0.417000       1.00800           0
     35532 TIP3     3738     TIP3     H2       HT       0.417000       1.00800           0
     35533 TIP3     3739     TIP3     OH2      OT      -0.834000       15.9994           0
     35534 TIP3     3739     TIP3     H1       HT       0.417000       1.00800           0
     35535 TIP3     3739     TIP3     H2       HT       0.417000       1.00800           0
     35536 TIP3     3740     TIP3     OH2      OT      -0.834000       15.9994           0
     35537 TIP3     3740     TIP3     H1       HT       0.417000       1.00800           0
     35538 TIP3     3740     TIP3     H2       HT       0.417000       1.00800           0
     35539 TIP3     3741     TIP3     OH2      OT      -0.834000       15.9994           0
     35540 TIP3     3741     TIP3     H1       HT       0.417000       1.00800           0
     35541 TIP3     3741     TIP3     H2       HT       0.417000       1.00800           0
     35542 TIP3     3742     TIP3     OH2      OT      -0.834000       15.9994           0
     35543 TIP3     3742     TIP3     H1       HT       0.417000       1.00800           0
     35544 TIP3     3742     TIP3     H2       HT       0.417000       1.00800           0
     35545 TIP3     3743     TIP3     OH2      OT      -0.834000       15.9994           0
     35546 TIP3     3743     TIP3     H1       HT       0.417000       1.00800           0
     35547 TIP3     3743     TIP3     H2       HT       0.417000       1.00800           0
     35548 TIP3     3744     TIP3     OH2      OT      -0.834000       15.9994           0
     35549 TIP3     3744     TIP3     H1       HT       0.417000       1.00800           0
     35550 TIP3     3744     TIP3     H2       HT       0.417000       1.00800           0
     35551 TIP3     3745     TIP3     OH2      OT      -0.834000       15.9994           0
     35552 TIP3     3745     TIP3     H1       HT       0.417000       1.00800           0
     35553 TIP3     3745     TIP3     H2       HT       0.417000       1.00800           0
     35554 TIP3     3746     TIP3     OH2      OT      -0.834000       15.9994           0
     35555 TIP3     3746     TIP3     H1       HT       0.417000       1.00800           0
     35556 TIP3     3746     TIP3     H2       HT       0.417000       1.00800           0
     35557 TIP3     3747     TIP3     OH2      OT      -0.834000       15.9994           0
     35558 TIP3     3747     TIP3     H1       HT       0.417000       1.00800           0
     35559 TIP3     3747     TIP3     H2       HT       0.417000       1.00800           0
     35560 TIP3     3748     TIP3     OH2      OT      -0.834000       15.9994           0
     35561 TIP3     3748     TIP3     H1       HT       0.417000       1.00800           0
     35562 TIP3     3748     TIP3     H2       HT       0.417000       1.00800           0
     35563 TIP3     3749     TIP3     OH2      OT      -0.834000       15.9994           0
     35564 TIP3     3749     TIP3     H1       HT       0.417000       1.00800           0
     35565 TIP3     3749     TIP3     H2       HT       0.417000       1.00800           0
     35566 TIP3     3750     TIP3     OH2      OT      -0.834000       15.9994           0
     35567 TIP3     3750     TIP3     H1       HT       0.417000       1.00800           0
     35568 TIP3     3750     TIP3     H2       HT       0.417000       1.00800           0
     35569 TIP3     3751     TIP3     OH2      OT      -0.834000       15.9994           0
     35570 TIP3     3751     TIP3     H1       HT       0.417000       1.00800           0
     35571 TIP3     3751     TIP3     H2       HT       0.417000       1.00800           0
     35572 TIP3     3752     TIP3     OH2      OT      -0.834000       15.9994           0
     35573 TIP3     3752     TIP3     H1       HT       0.417000       1.00800           0
     35574 TIP3     3752     TIP3     H2       HT       0.417000       1.00800           0
     35575 TIP3     3753     TIP3     OH2      OT      -0.834000       15.9994           0
     35576 TIP3     3753     TIP3     H1       HT       0.417000       1.00800           0
     35577 TIP3     3753     TIP3     H2       HT       0.417000       1.00800           0
     35578 TIP3     3754     TIP3     OH2      OT      -0.834000       15.9994           0
     35579 TIP3     3754     TIP3     H1       HT       0.417000       1.00800           0
     35580 TIP3     3754     TIP3     H2       HT       0.417000       1.00800           0
     35581 TIP3     3755     TIP3     OH2      OT      -0.834000       15.9994           0
     35582 TIP3     3755     TIP3     H1       HT       0.417000       1.00800           0
     35583 TIP3     3755     TIP3     H2       HT       0.417000       1.00800           0
     35584 TIP3     3756     TIP3     OH2      OT      -0.834000       15.9994           0
     35585 TIP3     3756     TIP3     H1       HT       0.417000       1.00800           0
     35586 TIP3     3756     TIP3     H2       HT       0.417000       1.00800           0
     35587 TIP3     3757     TIP3     OH2      OT      -0.834000       15.9994           0
     35588 TIP3     3757     TIP3     H1       HT       0.417000       1.00800           0
     35589 TIP3     3757     TIP3     H2       HT       0.417000       1.00800           0
     35590 TIP3     3758     TIP3     OH2      OT      -0.834000       15.9994           0
     35591 TIP3     3758     TIP3     H1       HT       0.417000       1.00800           0
     35592 TIP3     3758     TIP3     H2       HT       0.417000       1.00800           0
     35593 TIP3     3759     TIP3     OH2      OT      -0.834000       15.9994           0
     35594 TIP3     3759     TIP3     H1       HT       0.417000       1.00800           0
     35595 TIP3     3759     TIP3     H2       HT       0.417000       1.00800           0
     35596 TIP3     3760     TIP3     OH2      OT      -0.834000       15.9994           0
     35597 TIP3     3760     TIP3     H1       HT       0.417000       1.00800           0
     35598 TIP3     3760     TIP3     H2       HT       0.417000       1.00800           0
     35599 TIP3     3761     TIP3     OH2      OT      -0.834000       15.9994           0
     35600 TIP3     3761     TIP3     H1       HT       0.417000       1.00800           0
     35601 TIP3     3761     TIP3     H2       HT       0.417000       1.00800           0
     35602 TIP3     3762     TIP3     OH2      OT      -0.834000       15.9994           0
     35603 TIP3     3762     TIP3     H1       HT       0.417000       1.00800           0
     35604 TIP3     3762     TIP3     H2       HT       0.417000       1.00800           0
     35605 TIP3     3763     TIP3     OH2      OT      -0.834000       15.9994           0
     35606 TIP3     3763     TIP3     H1       HT       0.417000       1.00800           0
     35607 TIP3     3763     TIP3     H2       HT       0.417000       1.00800           0
     35608 TIP3     3764     TIP3     OH2      OT      -0.834000       15.9994           0
     35609 TIP3     3764     TIP3     H1       HT       0.417000       1.00800           0
     35610 TIP3     3764     TIP3     H2       HT       0.417000       1.00800           0
     35611 TIP3     3765     TIP3     OH2      OT      -0.834000       15.9994           0
     35612 TIP3     3765     TIP3     H1       HT       0.417000       1.00800           0
     35613 TIP3     3765     TIP3     H2       HT       0.417000       1.00800           0
     35614 TIP3     3766     TIP3     OH2      OT      -0.834000       15.9994           0
     35615 TIP3     3766     TIP3     H1       HT       0.417000       1.00800           0
     35616 TIP3     3766     TIP3     H2       HT       0.417000       1.00800           0
     35617 TIP3     3767     TIP3     OH2      OT      -0.834000       15.9994           0
     35618 TIP3     3767     TIP3     H1       HT       0.417000       1.00800           0
     35619 TIP3     3767     TIP3     H2       HT       0.417000       1.00800           0
     35620 TIP3     3768     TIP3     OH2      OT      -0.834000       15.9994           0
     35621 TIP3     3768     TIP3     H1       HT       0.417000       1.00800           0
     35622 TIP3     3768     TIP3     H2       HT       0.417000       1.00800           0
     35623 TIP3     3769     TIP3     OH2      OT      -0.834000       15.9994           0
     35624 TIP3     3769     TIP3     H1       HT       0.417000       1.00800           0
     35625 TIP3     3769     TIP3     H2       HT       0.417000       1.00800           0
     35626 TIP3     3770     TIP3     OH2      OT      -0.834000       15.9994           0
     35627 TIP3     3770     TIP3     H1       HT       0.417000       1.00800           0
     35628 TIP3     3770     TIP3     H2       HT       0.417000       1.00800           0
     35629 TIP3     3771     TIP3     OH2      OT      -0.834000       15.9994           0
     35630 TIP3     3771     TIP3     H1       HT       0.417000       1.00800           0
     35631 TIP3     3771     TIP3     H2       HT       0.417000       1.00800           0
     35632 TIP3     3772     TIP3     OH2      OT      -0.834000       15.9994           0
     35633 TIP3     3772     TIP3     H1       HT       0.417000       1.00800           0
     35634 TIP3     3772     TIP3     H2       HT       0.417000       1.00800           0
     35635 TIP3     3773     TIP3     OH2      OT      -0.834000       15.9994           0
     35636 TIP3     3773     TIP3     H1       HT       0.417000       1.00800           0
     35637 TIP3     3773     TIP3     H2       HT       0.417000       1.00800           0
     35638 TIP3     3774     TIP3     OH2      OT      -0.834000       15.9994           0
     35639 TIP3     3774     TIP3     H1       HT       0.417000       1.00800           0
     35640 TIP3     3774     TIP3     H2       HT       0.417000       1.00800           0
     35641 TIP3     3775     TIP3     OH2      OT      -0.834000       15.9994           0
     35642 TIP3     3775     TIP3     H1       HT       0.417000       1.00800           0
     35643 TIP3     3775     TIP3     H2       HT       0.417000       1.00800           0
     35644 TIP3     3776     TIP3     OH2      OT      -0.834000       15.9994           0
     35645 TIP3     3776     TIP3     H1       HT       0.417000       1.00800           0
     35646 TIP3     3776     TIP3     H2       HT       0.417000       1.00800           0
     35647 TIP3     3777     TIP3     OH2      OT      -0.834000       15.9994           0
     35648 TIP3     3777     TIP3     H1       HT       0.417000       1.00800           0
     35649 TIP3     3777     TIP3     H2       HT       0.417000       1.00800           0
     35650 TIP3     3778     TIP3     OH2      OT      -0.834000       15.9994           0
     35651 TIP3     3778     TIP3     H1       HT       0.417000       1.00800           0
     35652 TIP3     3778     TIP3     H2       HT       0.417000       1.00800           0
     35653 TIP3     3779     TIP3     OH2      OT      -0.834000       15.9994           0
     35654 TIP3     3779     TIP3     H1       HT       0.417000       1.00800           0
     35655 TIP3     3779     TIP3     H2       HT       0.417000       1.00800           0
     35656 TIP3     3780     TIP3     OH2      OT      -0.834000       15.9994           0
     35657 TIP3     3780     TIP3     H1       HT       0.417000       1.00800           0
     35658 TIP3     3780     TIP3     H2       HT       0.417000       1.00800           0
     35659 TIP3     3781     TIP3     OH2      OT      -0.834000       15.9994           0
     35660 TIP3     3781     TIP3     H1       HT       0.417000       1.00800           0
     35661 TIP3     3781     TIP3     H2       HT       0.417000       1.00800           0
     35662 TIP3     3782     TIP3     OH2      OT      -0.834000       15.9994           0
     35663 TIP3     3782     TIP3     H1       HT       0.417000       1.00800           0
     35664 TIP3     3782     TIP3     H2       HT       0.417000       1.00800           0
     35665 TIP3     3783     TIP3     OH2      OT      -0.834000       15.9994           0
     35666 TIP3     3783     TIP3     H1       HT       0.417000       1.00800           0
     35667 TIP3     3783     TIP3     H2       HT       0.417000       1.00800           0
     35668 TIP3     3784     TIP3     OH2      OT      -0.834000       15.9994           0
     35669 TIP3     3784     TIP3     H1       HT       0.417000       1.00800           0
     35670 TIP3     3784     TIP3     H2       HT       0.417000       1.00800           0
     35671 TIP3     3785     TIP3     OH2      OT      -0.834000       15.9994           0
     35672 TIP3     3785     TIP3     H1       HT       0.417000       1.00800           0
     35673 TIP3     3785     TIP3     H2       HT       0.417000       1.00800           0
     35674 TIP3     3786     TIP3     OH2      OT      -0.834000       15.9994           0
     35675 TIP3     3786     TIP3     H1       HT       0.417000       1.00800           0
     35676 TIP3     3786     TIP3     H2       HT       0.417000       1.00800           0
     35677 TIP3     3787     TIP3     OH2      OT      -0.834000       15.9994           0
     35678 TIP3     3787     TIP3     H1       HT       0.417000       1.00800           0
     35679 TIP3     3787     TIP3     H2       HT       0.417000       1.00800           0
     35680 TIP3     3788     TIP3     OH2      OT      -0.834000       15.9994           0
     35681 TIP3     3788     TIP3     H1       HT       0.417000       1.00800           0
     35682 TIP3     3788     TIP3     H2       HT       0.417000       1.00800           0
     35683 TIP3     3789     TIP3     OH2      OT      -0.834000       15.9994           0
     35684 TIP3     3789     TIP3     H1       HT       0.417000       1.00800           0
     35685 TIP3     3789     TIP3     H2       HT       0.417000       1.00800           0
     35686 TIP3     3790     TIP3     OH2      OT      -0.834000       15.9994           0
     35687 TIP3     3790     TIP3     H1       HT       0.417000       1.00800           0
     35688 TIP3     3790     TIP3     H2       HT       0.417000       1.00800           0
     35689 TIP3     3791     TIP3     OH2      OT      -0.834000       15.9994           0
     35690 TIP3     3791     TIP3     H1       HT       0.417000       1.00800           0
     35691 TIP3     3791     TIP3     H2       HT       0.417000       1.00800           0
     35692 TIP3     3792     TIP3     OH2      OT      -0.834000       15.9994           0
     35693 TIP3     3792     TIP3     H1       HT       0.417000       1.00800           0
     35694 TIP3     3792     TIP3     H2       HT       0.417000       1.00800           0
     35695 TIP3     3793     TIP3     OH2      OT      -0.834000       15.9994           0
     35696 TIP3     3793     TIP3     H1       HT       0.417000       1.00800           0
     35697 TIP3     3793     TIP3     H2       HT       0.417000       1.00800           0
     35698 TIP3     3794     TIP3     OH2      OT      -0.834000       15.9994           0
     35699 TIP3     3794     TIP3     H1       HT       0.417000       1.00800           0
     35700 TIP3     3794     TIP3     H2       HT       0.417000       1.00800           0
     35701 TIP3     3795     TIP3     OH2      OT      -0.834000       15.9994           0
     35702 TIP3     3795     TIP3     H1       HT       0.417000       1.00800           0
     35703 TIP3     3795     TIP3     H2       HT       0.417000       1.00800           0
     35704 TIP3     3796     TIP3     OH2      OT      -0.834000       15.9994           0
     35705 TIP3     3796     TIP3     H1       HT       0.417000       1.00800           0
     35706 TIP3     3796     TIP3     H2       HT       0.417000       1.00800           0
     35707 TIP3     3797     TIP3     OH2      OT      -0.834000       15.9994           0
     35708 TIP3     3797     TIP3     H1       HT       0.417000       1.00800           0
     35709 TIP3     3797     TIP3     H2       HT       0.417000       1.00800           0
     35710 TIP3     3798     TIP3     OH2      OT      -0.834000       15.9994           0
     35711 TIP3     3798     TIP3     H1       HT       0.417000       1.00800           0
     35712 TIP3     3798     TIP3     H2       HT       0.417000       1.00800           0
     35713 TIP3     3799     TIP3     OH2      OT      -0.834000       15.9994           0
     35714 TIP3     3799     TIP3     H1       HT       0.417000       1.00800           0
     35715 TIP3     3799     TIP3     H2       HT       0.417000       1.00800           0
     35716 TIP3     3800     TIP3     OH2      OT      -0.834000       15.9994           0
     35717 TIP3     3800     TIP3     H1       HT       0.417000       1.00800           0
     35718 TIP3     3800     TIP3     H2       HT       0.417000       1.00800           0
     35719 TIP3     3801     TIP3     OH2      OT      -0.834000       15.9994           0
     35720 TIP3     3801     TIP3     H1       HT       0.417000       1.00800           0
     35721 TIP3     3801     TIP3     H2       HT       0.417000       1.00800           0
     35722 TIP3     3802     TIP3     OH2      OT      -0.834000       15.9994           0
     35723 TIP3     3802     TIP3     H1       HT       0.417000       1.00800           0
     35724 TIP3     3802     TIP3     H2       HT       0.417000       1.00800           0
     35725 TIP3     3803     TIP3     OH2      OT      -0.834000       15.9994           0
     35726 TIP3     3803     TIP3     H1       HT       0.417000       1.00800           0
     35727 TIP3     3803     TIP3     H2       HT       0.417000       1.00800           0
     35728 TIP3     3804     TIP3     OH2      OT      -0.834000       15.9994           0
     35729 TIP3     3804     TIP3     H1       HT       0.417000       1.00800           0
     35730 TIP3     3804     TIP3     H2       HT       0.417000       1.00800           0
     35731 TIP3     3805     TIP3     OH2      OT      -0.834000       15.9994           0
     35732 TIP3     3805     TIP3     H1       HT       0.417000       1.00800           0
     35733 TIP3     3805     TIP3     H2       HT       0.417000       1.00800           0
     35734 TIP3     3806     TIP3     OH2      OT      -0.834000       15.9994           0
     35735 TIP3     3806     TIP3     H1       HT       0.417000       1.00800           0
     35736 TIP3     3806     TIP3     H2       HT       0.417000       1.00800           0
     35737 TIP3     3807     TIP3     OH2      OT      -0.834000       15.9994           0
     35738 TIP3     3807     TIP3     H1       HT       0.417000       1.00800           0
     35739 TIP3     3807     TIP3     H2       HT       0.417000       1.00800           0
     35740 TIP3     3808     TIP3     OH2      OT      -0.834000       15.9994           0
     35741 TIP3     3808     TIP3     H1       HT       0.417000       1.00800           0
     35742 TIP3     3808     TIP3     H2       HT       0.417000       1.00800           0
     35743 TIP3     3809     TIP3     OH2      OT      -0.834000       15.9994           0
     35744 TIP3     3809     TIP3     H1       HT       0.417000       1.00800           0
     35745 TIP3     3809     TIP3     H2       HT       0.417000       1.00800           0
     35746 TIP3     3810     TIP3     OH2      OT      -0.834000       15.9994           0
     35747 TIP3     3810     TIP3     H1       HT       0.417000       1.00800           0
     35748 TIP3     3810     TIP3     H2       HT       0.417000       1.00800           0
     35749 TIP3     3811     TIP3     OH2      OT      -0.834000       15.9994           0
     35750 TIP3     3811     TIP3     H1       HT       0.417000       1.00800           0
     35751 TIP3     3811     TIP3     H2       HT       0.417000       1.00800           0
     35752 TIP3     3812     TIP3     OH2      OT      -0.834000       15.9994           0
     35753 TIP3     3812     TIP3     H1       HT       0.417000       1.00800           0
     35754 TIP3     3812     TIP3     H2       HT       0.417000       1.00800           0
     35755 TIP3     3813     TIP3     OH2      OT      -0.834000       15.9994           0
     35756 TIP3     3813     TIP3     H1       HT       0.417000       1.00800           0
     35757 TIP3     3813     TIP3     H2       HT       0.417000       1.00800           0
     35758 TIP3     3814     TIP3     OH2      OT      -0.834000       15.9994           0
     35759 TIP3     3814     TIP3     H1       HT       0.417000       1.00800           0
     35760 TIP3     3814     TIP3     H2       HT       0.417000       1.00800           0
     35761 TIP3     3815     TIP3     OH2      OT      -0.834000       15.9994           0
     35762 TIP3     3815     TIP3     H1       HT       0.417000       1.00800           0
     35763 TIP3     3815     TIP3     H2       HT       0.417000       1.00800           0
     35764 TIP3     3816     TIP3     OH2      OT      -0.834000       15.9994           0
     35765 TIP3     3816     TIP3     H1       HT       0.417000       1.00800           0
     35766 TIP3     3816     TIP3     H2       HT       0.417000       1.00800           0
     35767 TIP3     3817     TIP3     OH2      OT      -0.834000       15.9994           0
     35768 TIP3     3817     TIP3     H1       HT       0.417000       1.00800           0
     35769 TIP3     3817     TIP3     H2       HT       0.417000       1.00800           0
     35770 TIP3     3818     TIP3     OH2      OT      -0.834000       15.9994           0
     35771 TIP3     3818     TIP3     H1       HT       0.417000       1.00800           0
     35772 TIP3     3818     TIP3     H2       HT       0.417000       1.00800           0
     35773 TIP3     3819     TIP3     OH2      OT      -0.834000       15.9994           0
     35774 TIP3     3819     TIP3     H1       HT       0.417000       1.00800           0
     35775 TIP3     3819     TIP3     H2       HT       0.417000       1.00800           0
     35776 TIP3     3820     TIP3     OH2      OT      -0.834000       15.9994           0
     35777 TIP3     3820     TIP3     H1       HT       0.417000       1.00800           0
     35778 TIP3     3820     TIP3     H2       HT       0.417000       1.00800           0
     35779 TIP3     3821     TIP3     OH2      OT      -0.834000       15.9994           0
     35780 TIP3     3821     TIP3     H1       HT       0.417000       1.00800           0
     35781 TIP3     3821     TIP3     H2       HT       0.417000       1.00800           0
     35782 TIP3     3822     TIP3     OH2      OT      -0.834000       15.9994           0
     35783 TIP3     3822     TIP3     H1       HT       0.417000       1.00800           0
     35784 TIP3     3822     TIP3     H2       HT       0.417000       1.00800           0
     35785 TIP3     3823     TIP3     OH2      OT      -0.834000       15.9994           0
     35786 TIP3     3823     TIP3     H1       HT       0.417000       1.00800           0
     35787 TIP3     3823     TIP3     H2       HT       0.417000       1.00800           0
     35788 TIP3     3824     TIP3     OH2      OT      -0.834000       15.9994           0
     35789 TIP3     3824     TIP3     H1       HT       0.417000       1.00800           0
     35790 TIP3     3824     TIP3     H2       HT       0.417000       1.00800           0
     35791 TIP3     3825     TIP3     OH2      OT      -0.834000       15.9994           0
     35792 TIP3     3825     TIP3     H1       HT       0.417000       1.00800           0
     35793 TIP3     3825     TIP3     H2       HT       0.417000       1.00800           0
     35794 TIP3     3826     TIP3     OH2      OT      -0.834000       15.9994           0
     35795 TIP3     3826     TIP3     H1       HT       0.417000       1.00800           0
     35796 TIP3     3826     TIP3     H2       HT       0.417000       1.00800           0
     35797 TIP3     3827     TIP3     OH2      OT      -0.834000       15.9994           0
     35798 TIP3     3827     TIP3     H1       HT       0.417000       1.00800           0
     35799 TIP3     3827     TIP3     H2       HT       0.417000       1.00800           0
     35800 TIP3     3828     TIP3     OH2      OT      -0.834000       15.9994           0
     35801 TIP3     3828     TIP3     H1       HT       0.417000       1.00800           0
     35802 TIP3     3828     TIP3     H2       HT       0.417000       1.00800           0
     35803 TIP3     3829     TIP3     OH2      OT      -0.834000       15.9994           0
     35804 TIP3     3829     TIP3     H1       HT       0.417000       1.00800           0
     35805 TIP3     3829     TIP3     H2       HT       0.417000       1.00800           0
     35806 TIP3     3830     TIP3     OH2      OT      -0.834000       15.9994           0
     35807 TIP3     3830     TIP3     H1       HT       0.417000       1.00800           0
     35808 TIP3     3830     TIP3     H2       HT       0.417000       1.00800           0
     35809 TIP3     3831     TIP3     OH2      OT      -0.834000       15.9994           0
     35810 TIP3     3831     TIP3     H1       HT       0.417000       1.00800           0
     35811 TIP3     3831     TIP3     H2       HT       0.417000       1.00800           0
     35812 TIP3     3832     TIP3     OH2      OT      -0.834000       15.9994           0
     35813 TIP3     3832     TIP3     H1       HT       0.417000       1.00800           0
     35814 TIP3     3832     TIP3     H2       HT       0.417000       1.00800           0
     35815 TIP3     3833     TIP3     OH2      OT      -0.834000       15.9994           0
     35816 TIP3     3833     TIP3     H1       HT       0.417000       1.00800           0
     35817 TIP3     3833     TIP3     H2       HT       0.417000       1.00800           0
     35818 TIP3     3834     TIP3     OH2      OT      -0.834000       15.9994           0
     35819 TIP3     3834     TIP3     H1       HT       0.417000       1.00800           0
     35820 TIP3     3834     TIP3     H2       HT       0.417000       1.00800           0
     35821 TIP3     3835     TIP3     OH2      OT      -0.834000       15.9994           0
     35822 TIP3     3835     TIP3     H1       HT       0.417000       1.00800           0
     35823 TIP3     3835     TIP3     H2       HT       0.417000       1.00800           0
     35824 TIP3     3836     TIP3     OH2      OT      -0.834000       15.9994           0
     35825 TIP3     3836     TIP3     H1       HT       0.417000       1.00800           0
     35826 TIP3     3836     TIP3     H2       HT       0.417000       1.00800           0
     35827 TIP3     3837     TIP3     OH2      OT      -0.834000       15.9994           0
     35828 TIP3     3837     TIP3     H1       HT       0.417000       1.00800           0
     35829 TIP3     3837     TIP3     H2       HT       0.417000       1.00800           0
     35830 TIP3     3838     TIP3     OH2      OT      -0.834000       15.9994           0
     35831 TIP3     3838     TIP3     H1       HT       0.417000       1.00800           0
     35832 TIP3     3838     TIP3     H2       HT       0.417000       1.00800           0
     35833 TIP3     3839     TIP3     OH2      OT      -0.834000       15.9994           0
     35834 TIP3     3839     TIP3     H1       HT       0.417000       1.00800           0
     35835 TIP3     3839     TIP3     H2       HT       0.417000       1.00800           0
     35836 TIP3     3840     TIP3     OH2      OT      -0.834000       15.9994           0
     35837 TIP3     3840     TIP3     H1       HT       0.417000       1.00800           0
     35838 TIP3     3840     TIP3     H2       HT       0.417000       1.00800           0
     35839 TIP3     3841     TIP3     OH2      OT      -0.834000       15.9994           0
     35840 TIP3     3841     TIP3     H1       HT       0.417000       1.00800           0
     35841 TIP3     3841     TIP3     H2       HT       0.417000       1.00800           0
     35842 TIP3     3842     TIP3     OH2      OT      -0.834000       15.9994           0
     35843 TIP3     3842     TIP3     H1       HT       0.417000       1.00800           0
     35844 TIP3     3842     TIP3     H2       HT       0.417000       1.00800           0
     35845 TIP3     3843     TIP3     OH2      OT      -0.834000       15.9994           0
     35846 TIP3     3843     TIP3     H1       HT       0.417000       1.00800           0
     35847 TIP3     3843     TIP3     H2       HT       0.417000       1.00800           0
     35848 TIP3     3844     TIP3     OH2      OT      -0.834000       15.9994           0
     35849 TIP3     3844     TIP3     H1       HT       0.417000       1.00800           0
     35850 TIP3     3844     TIP3     H2       HT       0.417000       1.00800           0
     35851 TIP3     3845     TIP3     OH2      OT      -0.834000       15.9994           0
     35852 TIP3     3845     TIP3     H1       HT       0.417000       1.00800           0
     35853 TIP3     3845     TIP3     H2       HT       0.417000       1.00800           0
     35854 TIP3     3846     TIP3     OH2      OT      -0.834000       15.9994           0
     35855 TIP3     3846     TIP3     H1       HT       0.417000       1.00800           0
     35856 TIP3     3846     TIP3     H2       HT       0.417000       1.00800           0
     35857 TIP3     3847     TIP3     OH2      OT      -0.834000       15.9994           0
     35858 TIP3     3847     TIP3     H1       HT       0.417000       1.00800           0
     35859 TIP3     3847     TIP3     H2       HT       0.417000       1.00800           0
     35860 TIP3     3848     TIP3     OH2      OT      -0.834000       15.9994           0
     35861 TIP3     3848     TIP3     H1       HT       0.417000       1.00800           0
     35862 TIP3     3848     TIP3     H2       HT       0.417000       1.00800           0
     35863 TIP3     3849     TIP3     OH2      OT      -0.834000       15.9994           0
     35864 TIP3     3849     TIP3     H1       HT       0.417000       1.00800           0
     35865 TIP3     3849     TIP3     H2       HT       0.417000       1.00800           0
     35866 TIP3     3850     TIP3     OH2      OT      -0.834000       15.9994           0
     35867 TIP3     3850     TIP3     H1       HT       0.417000       1.00800           0
     35868 TIP3     3850     TIP3     H2       HT       0.417000       1.00800           0
     35869 TIP3     3851     TIP3     OH2      OT      -0.834000       15.9994           0
     35870 TIP3     3851     TIP3     H1       HT       0.417000       1.00800           0
     35871 TIP3     3851     TIP3     H2       HT       0.417000       1.00800           0
     35872 TIP3     3852     TIP3     OH2      OT      -0.834000       15.9994           0
     35873 TIP3     3852     TIP3     H1       HT       0.417000       1.00800           0
     35874 TIP3     3852     TIP3     H2       HT       0.417000       1.00800           0
     35875 TIP3     3853     TIP3     OH2      OT      -0.834000       15.9994           0
     35876 TIP3     3853     TIP3     H1       HT       0.417000       1.00800           0
     35877 TIP3     3853     TIP3     H2       HT       0.417000       1.00800           0
     35878 TIP3     3854     TIP3     OH2      OT      -0.834000       15.9994           0
     35879 TIP3     3854     TIP3     H1       HT       0.417000       1.00800           0
     35880 TIP3     3854     TIP3     H2       HT       0.417000       1.00800           0
     35881 TIP3     3855     TIP3     OH2      OT      -0.834000       15.9994           0
     35882 TIP3     3855     TIP3     H1       HT       0.417000       1.00800           0
     35883 TIP3     3855     TIP3     H2       HT       0.417000       1.00800           0
     35884 TIP3     3856     TIP3     OH2      OT      -0.834000       15.9994           0
     35885 TIP3     3856     TIP3     H1       HT       0.417000       1.00800           0
     35886 TIP3     3856     TIP3     H2       HT       0.417000       1.00800           0
     35887 TIP3     3857     TIP3     OH2      OT      -0.834000       15.9994           0
     35888 TIP3     3857     TIP3     H1       HT       0.417000       1.00800           0
     35889 TIP3     3857     TIP3     H2       HT       0.417000       1.00800           0
     35890 TIP3     3858     TIP3     OH2      OT      -0.834000       15.9994           0
     35891 TIP3     3858     TIP3     H1       HT       0.417000       1.00800           0
     35892 TIP3     3858     TIP3     H2       HT       0.417000       1.00800           0
     35893 TIP3     3859     TIP3     OH2      OT      -0.834000       15.9994           0
     35894 TIP3     3859     TIP3     H1       HT       0.417000       1.00800           0
     35895 TIP3     3859     TIP3     H2       HT       0.417000       1.00800           0
     35896 TIP3     3860     TIP3     OH2      OT      -0.834000       15.9994           0
     35897 TIP3     3860     TIP3     H1       HT       0.417000       1.00800           0
     35898 TIP3     3860     TIP3     H2       HT       0.417000       1.00800           0
     35899 TIP3     3861     TIP3     OH2      OT      -0.834000       15.9994           0
     35900 TIP3     3861     TIP3     H1       HT       0.417000       1.00800           0
     35901 TIP3     3861     TIP3     H2       HT       0.417000       1.00800           0
     35902 TIP3     3862     TIP3     OH2      OT      -0.834000       15.9994           0
     35903 TIP3     3862     TIP3     H1       HT       0.417000       1.00800           0
     35904 TIP3     3862     TIP3     H2       HT       0.417000       1.00800           0
     35905 TIP3     3863     TIP3     OH2      OT      -0.834000       15.9994           0
     35906 TIP3     3863     TIP3     H1       HT       0.417000       1.00800           0
     35907 TIP3     3863     TIP3     H2       HT       0.417000       1.00800           0
     35908 TIP3     3864     TIP3     OH2      OT      -0.834000       15.9994           0
     35909 TIP3     3864     TIP3     H1       HT       0.417000       1.00800           0
     35910 TIP3     3864     TIP3     H2       HT       0.417000       1.00800           0
     35911 TIP3     3865     TIP3     OH2      OT      -0.834000       15.9994           0
     35912 TIP3     3865     TIP3     H1       HT       0.417000       1.00800           0
     35913 TIP3     3865     TIP3     H2       HT       0.417000       1.00800           0
     35914 TIP3     3866     TIP3     OH2      OT      -0.834000       15.9994           0
     35915 TIP3     3866     TIP3     H1       HT       0.417000       1.00800           0
     35916 TIP3     3866     TIP3     H2       HT       0.417000       1.00800           0
     35917 TIP3     3867     TIP3     OH2      OT      -0.834000       15.9994           0
     35918 TIP3     3867     TIP3     H1       HT       0.417000       1.00800           0
     35919 TIP3     3867     TIP3     H2       HT       0.417000       1.00800           0
     35920 TIP3     3868     TIP3     OH2      OT      -0.834000       15.9994           0
     35921 TIP3     3868     TIP3     H1       HT       0.417000       1.00800           0
     35922 TIP3     3868     TIP3     H2       HT       0.417000       1.00800           0
     35923 TIP3     3869     TIP3     OH2      OT      -0.834000       15.9994           0
     35924 TIP3     3869     TIP3     H1       HT       0.417000       1.00800           0
     35925 TIP3     3869     TIP3     H2       HT       0.417000       1.00800           0
     35926 TIP3     3870     TIP3     OH2      OT      -0.834000       15.9994           0
     35927 TIP3     3870     TIP3     H1       HT       0.417000       1.00800           0
     35928 TIP3     3870     TIP3     H2       HT       0.417000       1.00800           0
     35929 TIP3     3871     TIP3     OH2      OT      -0.834000       15.9994           0
     35930 TIP3     3871     TIP3     H1       HT       0.417000       1.00800           0
     35931 TIP3     3871     TIP3     H2       HT       0.417000       1.00800           0
     35932 TIP3     3872     TIP3     OH2      OT      -0.834000       15.9994           0
     35933 TIP3     3872     TIP3     H1       HT       0.417000       1.00800           0
     35934 TIP3     3872     TIP3     H2       HT       0.417000       1.00800           0
     35935 TIP3     3873     TIP3     OH2      OT      -0.834000       15.9994           0
     35936 TIP3     3873     TIP3     H1       HT       0.417000       1.00800           0
     35937 TIP3     3873     TIP3     H2       HT       0.417000       1.00800           0
     35938 TIP3     3874     TIP3     OH2      OT      -0.834000       15.9994           0
     35939 TIP3     3874     TIP3     H1       HT       0.417000       1.00800           0
     35940 TIP3     3874     TIP3     H2       HT       0.417000       1.00800           0
     35941 TIP3     3875     TIP3     OH2      OT      -0.834000       15.9994           0
     35942 TIP3     3875     TIP3     H1       HT       0.417000       1.00800           0
     35943 TIP3     3875     TIP3     H2       HT       0.417000       1.00800           0
     35944 TIP3     3876     TIP3     OH2      OT      -0.834000       15.9994           0
     35945 TIP3     3876     TIP3     H1       HT       0.417000       1.00800           0
     35946 TIP3     3876     TIP3     H2       HT       0.417000       1.00800           0
     35947 TIP3     3877     TIP3     OH2      OT      -0.834000       15.9994           0
     35948 TIP3     3877     TIP3     H1       HT       0.417000       1.00800           0
     35949 TIP3     3877     TIP3     H2       HT       0.417000       1.00800           0
     35950 TIP3     3878     TIP3     OH2      OT      -0.834000       15.9994           0
     35951 TIP3     3878     TIP3     H1       HT       0.417000       1.00800           0
     35952 TIP3     3878     TIP3     H2       HT       0.417000       1.00800           0
     35953 TIP3     3879     TIP3     OH2      OT      -0.834000       15.9994           0
     35954 TIP3     3879     TIP3     H1       HT       0.417000       1.00800           0
     35955 TIP3     3879     TIP3     H2       HT       0.417000       1.00800           0
     35956 TIP3     3880     TIP3     OH2      OT      -0.834000       15.9994           0
     35957 TIP3     3880     TIP3     H1       HT       0.417000       1.00800           0
     35958 TIP3     3880     TIP3     H2       HT       0.417000       1.00800           0
     35959 TIP3     3881     TIP3     OH2      OT      -0.834000       15.9994           0
     35960 TIP3     3881     TIP3     H1       HT       0.417000       1.00800           0
     35961 TIP3     3881     TIP3     H2       HT       0.417000       1.00800           0
     35962 TIP3     3882     TIP3     OH2      OT      -0.834000       15.9994           0
     35963 TIP3     3882     TIP3     H1       HT       0.417000       1.00800           0
     35964 TIP3     3882     TIP3     H2       HT       0.417000       1.00800           0
     35965 TIP3     3883     TIP3     OH2      OT      -0.834000       15.9994           0
     35966 TIP3     3883     TIP3     H1       HT       0.417000       1.00800           0
     35967 TIP3     3883     TIP3     H2       HT       0.417000       1.00800           0
     35968 TIP3     3884     TIP3     OH2      OT      -0.834000       15.9994           0
     35969 TIP3     3884     TIP3     H1       HT       0.417000       1.00800           0
     35970 TIP3     3884     TIP3     H2       HT       0.417000       1.00800           0
     35971 TIP3     3885     TIP3     OH2      OT      -0.834000       15.9994           0
     35972 TIP3     3885     TIP3     H1       HT       0.417000       1.00800           0
     35973 TIP3     3885     TIP3     H2       HT       0.417000       1.00800           0
     35974 TIP3     3886     TIP3     OH2      OT      -0.834000       15.9994           0
     35975 TIP3     3886     TIP3     H1       HT       0.417000       1.00800           0
     35976 TIP3     3886     TIP3     H2       HT       0.417000       1.00800           0
     35977 TIP3     3887     TIP3     OH2      OT      -0.834000       15.9994           0
     35978 TIP3     3887     TIP3     H1       HT       0.417000       1.00800           0
     35979 TIP3     3887     TIP3     H2       HT       0.417000       1.00800           0
     35980 TIP3     3888     TIP3     OH2      OT      -0.834000       15.9994           0
     35981 TIP3     3888     TIP3     H1       HT       0.417000       1.00800           0
     35982 TIP3     3888     TIP3     H2       HT       0.417000       1.00800           0
     35983 TIP3     3889     TIP3     OH2      OT      -0.834000       15.9994           0
     35984 TIP3     3889     TIP3     H1       HT       0.417000       1.00800           0
     35985 TIP3     3889     TIP3     H2       HT       0.417000       1.00800           0
     35986 TIP3     3890     TIP3     OH2      OT      -0.834000       15.9994           0
     35987 TIP3     3890     TIP3     H1       HT       0.417000       1.00800           0
     35988 TIP3     3890     TIP3     H2       HT       0.417000       1.00800           0
     35989 TIP3     3891     TIP3     OH2      OT      -0.834000       15.9994           0
     35990 TIP3     3891     TIP3     H1       HT       0.417000       1.00800           0
     35991 TIP3     3891     TIP3     H2       HT       0.417000       1.00800           0
     35992 TIP3     3892     TIP3     OH2      OT      -0.834000       15.9994           0
     35993 TIP3     3892     TIP3     H1       HT       0.417000       1.00800           0
     35994 TIP3     3892     TIP3     H2       HT       0.417000       1.00800           0
     35995 TIP3     3893     TIP3     OH2      OT      -0.834000       15.9994           0
     35996 TIP3     3893     TIP3     H1       HT       0.417000       1.00800           0
     35997 TIP3     3893     TIP3     H2       HT       0.417000       1.00800           0
     35998 TIP3     3894     TIP3     OH2      OT      -0.834000       15.9994           0
     35999 TIP3     3894     TIP3     H1       HT       0.417000       1.00800           0
     36000 TIP3     3894     TIP3     H2       HT       0.417000       1.00800           0
     36001 TIP3     3895     TIP3     OH2      OT      -0.834000       15.9994           0
     36002 TIP3     3895     TIP3     H1       HT       0.417000       1.00800           0
     36003 TIP3     3895     TIP3     H2       HT       0.417000       1.00800           0
     36004 TIP3     3896     TIP3     OH2      OT      -0.834000       15.9994           0
     36005 TIP3     3896     TIP3     H1       HT       0.417000       1.00800           0
     36006 TIP3     3896     TIP3     H2       HT       0.417000       1.00800           0
     36007 TIP3     3897     TIP3     OH2      OT      -0.834000       15.9994           0
     36008 TIP3     3897     TIP3     H1       HT       0.417000       1.00800           0
     36009 TIP3     3897     TIP3     H2       HT       0.417000       1.00800           0
     36010 TIP3     3898     TIP3     OH2      OT      -0.834000       15.9994           0
     36011 TIP3     3898     TIP3     H1       HT       0.417000       1.00800           0
     36012 TIP3     3898     TIP3     H2       HT       0.417000       1.00800           0
     36013 TIP3     3899     TIP3     OH2      OT      -0.834000       15.9994           0
     36014 TIP3     3899     TIP3     H1       HT       0.417000       1.00800           0
     36015 TIP3     3899     TIP3     H2       HT       0.417000       1.00800           0
     36016 TIP3     3900     TIP3     OH2      OT      -0.834000       15.9994           0
     36017 TIP3     3900     TIP3     H1       HT       0.417000       1.00800           0
     36018 TIP3     3900     TIP3     H2       HT       0.417000       1.00800           0
     36019 TIP3     3901     TIP3     OH2      OT      -0.834000       15.9994           0
     36020 TIP3     3901     TIP3     H1       HT       0.417000       1.00800           0
     36021 TIP3     3901     TIP3     H2       HT       0.417000       1.00800           0
     36022 TIP3     3902     TIP3     OH2      OT      -0.834000       15.9994           0
     36023 TIP3     3902     TIP3     H1       HT       0.417000       1.00800           0
     36024 TIP3     3902     TIP3     H2       HT       0.417000       1.00800           0
     36025 TIP3     3903     TIP3     OH2      OT      -0.834000       15.9994           0
     36026 TIP3     3903     TIP3     H1       HT       0.417000       1.00800           0
     36027 TIP3     3903     TIP3     H2       HT       0.417000       1.00800           0
     36028 TIP3     3904     TIP3     OH2      OT      -0.834000       15.9994           0
     36029 TIP3     3904     TIP3     H1       HT       0.417000       1.00800           0
     36030 TIP3     3904     TIP3     H2       HT       0.417000       1.00800           0
     36031 TIP3     3905     TIP3     OH2      OT      -0.834000       15.9994           0
     36032 TIP3     3905     TIP3     H1       HT       0.417000       1.00800           0
     36033 TIP3     3905     TIP3     H2       HT       0.417000       1.00800           0
     36034 TIP3     3906     TIP3     OH2      OT      -0.834000       15.9994           0
     36035 TIP3     3906     TIP3     H1       HT       0.417000       1.00800           0
     36036 TIP3     3906     TIP3     H2       HT       0.417000       1.00800           0
     36037 TIP3     3907     TIP3     OH2      OT      -0.834000       15.9994           0
     36038 TIP3     3907     TIP3     H1       HT       0.417000       1.00800           0
     36039 TIP3     3907     TIP3     H2       HT       0.417000       1.00800           0
     36040 TIP3     3908     TIP3     OH2      OT      -0.834000       15.9994           0
     36041 TIP3     3908     TIP3     H1       HT       0.417000       1.00800           0
     36042 TIP3     3908     TIP3     H2       HT       0.417000       1.00800           0
     36043 TIP3     3909     TIP3     OH2      OT      -0.834000       15.9994           0
     36044 TIP3     3909     TIP3     H1       HT       0.417000       1.00800           0
     36045 TIP3     3909     TIP3     H2       HT       0.417000       1.00800           0
     36046 TIP3     3910     TIP3     OH2      OT      -0.834000       15.9994           0
     36047 TIP3     3910     TIP3     H1       HT       0.417000       1.00800           0
     36048 TIP3     3910     TIP3     H2       HT       0.417000       1.00800           0
     36049 TIP3     3911     TIP3     OH2      OT      -0.834000       15.9994           0
     36050 TIP3     3911     TIP3     H1       HT       0.417000       1.00800           0
     36051 TIP3     3911     TIP3     H2       HT       0.417000       1.00800           0
     36052 TIP3     3912     TIP3     OH2      OT      -0.834000       15.9994           0
     36053 TIP3     3912     TIP3     H1       HT       0.417000       1.00800           0
     36054 TIP3     3912     TIP3     H2       HT       0.417000       1.00800           0
     36055 TIP3     3913     TIP3     OH2      OT      -0.834000       15.9994           0
     36056 TIP3     3913     TIP3     H1       HT       0.417000       1.00800           0
     36057 TIP3     3913     TIP3     H2       HT       0.417000       1.00800           0
     36058 TIP3     3914     TIP3     OH2      OT      -0.834000       15.9994           0
     36059 TIP3     3914     TIP3     H1       HT       0.417000       1.00800           0
     36060 TIP3     3914     TIP3     H2       HT       0.417000       1.00800           0
     36061 TIP3     3915     TIP3     OH2      OT      -0.834000       15.9994           0
     36062 TIP3     3915     TIP3     H1       HT       0.417000       1.00800           0
     36063 TIP3     3915     TIP3     H2       HT       0.417000       1.00800           0
     36064 TIP3     3916     TIP3     OH2      OT      -0.834000       15.9994           0
     36065 TIP3     3916     TIP3     H1       HT       0.417000       1.00800           0
     36066 TIP3     3916     TIP3     H2       HT       0.417000       1.00800           0
     36067 TIP3     3917     TIP3     OH2      OT      -0.834000       15.9994           0
     36068 TIP3     3917     TIP3     H1       HT       0.417000       1.00800           0
     36069 TIP3     3917     TIP3     H2       HT       0.417000       1.00800           0
     36070 TIP3     3918     TIP3     OH2      OT      -0.834000       15.9994           0
     36071 TIP3     3918     TIP3     H1       HT       0.417000       1.00800           0
     36072 TIP3     3918     TIP3     H2       HT       0.417000       1.00800           0
     36073 TIP3     3919     TIP3     OH2      OT      -0.834000       15.9994           0
     36074 TIP3     3919     TIP3     H1       HT       0.417000       1.00800           0
     36075 TIP3     3919     TIP3     H2       HT       0.417000       1.00800           0
     36076 TIP3     3920     TIP3     OH2      OT      -0.834000       15.9994           0
     36077 TIP3     3920     TIP3     H1       HT       0.417000       1.00800           0
     36078 TIP3     3920     TIP3     H2       HT       0.417000       1.00800           0
     36079 TIP3     3921     TIP3     OH2      OT      -0.834000       15.9994           0
     36080 TIP3     3921     TIP3     H1       HT       0.417000       1.00800           0
     36081 TIP3     3921     TIP3     H2       HT       0.417000       1.00800           0
     36082 TIP3     3922     TIP3     OH2      OT      -0.834000       15.9994           0
     36083 TIP3     3922     TIP3     H1       HT       0.417000       1.00800           0
     36084 TIP3     3922     TIP3     H2       HT       0.417000       1.00800           0
     36085 TIP3     3923     TIP3     OH2      OT      -0.834000       15.9994           0
     36086 TIP3     3923     TIP3     H1       HT       0.417000       1.00800           0
     36087 TIP3     3923     TIP3     H2       HT       0.417000       1.00800           0
     36088 TIP3     3924     TIP3     OH2      OT      -0.834000       15.9994           0
     36089 TIP3     3924     TIP3     H1       HT       0.417000       1.00800           0
     36090 TIP3     3924     TIP3     H2       HT       0.417000       1.00800           0
     36091 TIP3     3925     TIP3     OH2      OT      -0.834000       15.9994           0
     36092 TIP3     3925     TIP3     H1       HT       0.417000       1.00800           0
     36093 TIP3     3925     TIP3     H2       HT       0.417000       1.00800           0
     36094 TIP3     3926     TIP3     OH2      OT      -0.834000       15.9994           0
     36095 TIP3     3926     TIP3     H1       HT       0.417000       1.00800           0
     36096 TIP3     3926     TIP3     H2       HT       0.417000       1.00800           0
     36097 TIP3     3927     TIP3     OH2      OT      -0.834000       15.9994           0
     36098 TIP3     3927     TIP3     H1       HT       0.417000       1.00800           0
     36099 TIP3     3927     TIP3     H2       HT       0.417000       1.00800           0
     36100 TIP3     3928     TIP3     OH2      OT      -0.834000       15.9994           0
     36101 TIP3     3928     TIP3     H1       HT       0.417000       1.00800           0
     36102 TIP3     3928     TIP3     H2       HT       0.417000       1.00800           0
     36103 TIP3     3929     TIP3     OH2      OT      -0.834000       15.9994           0
     36104 TIP3     3929     TIP3     H1       HT       0.417000       1.00800           0
     36105 TIP3     3929     TIP3     H2       HT       0.417000       1.00800           0
     36106 TIP3     3930     TIP3     OH2      OT      -0.834000       15.9994           0
     36107 TIP3     3930     TIP3     H1       HT       0.417000       1.00800           0
     36108 TIP3     3930     TIP3     H2       HT       0.417000       1.00800           0
     36109 TIP3     3931     TIP3     OH2      OT      -0.834000       15.9994           0
     36110 TIP3     3931     TIP3     H1       HT       0.417000       1.00800           0
     36111 TIP3     3931     TIP3     H2       HT       0.417000       1.00800           0
     36112 TIP3     3932     TIP3     OH2      OT      -0.834000       15.9994           0
     36113 TIP3     3932     TIP3     H1       HT       0.417000       1.00800           0
     36114 TIP3     3932     TIP3     H2       HT       0.417000       1.00800           0
     36115 TIP3     3933     TIP3     OH2      OT      -0.834000       15.9994           0
     36116 TIP3     3933     TIP3     H1       HT       0.417000       1.00800           0
     36117 TIP3     3933     TIP3     H2       HT       0.417000       1.00800           0
     36118 TIP3     3934     TIP3     OH2      OT      -0.834000       15.9994           0
     36119 TIP3     3934     TIP3     H1       HT       0.417000       1.00800           0
     36120 TIP3     3934     TIP3     H2       HT       0.417000       1.00800           0
     36121 TIP3     3935     TIP3     OH2      OT      -0.834000       15.9994           0
     36122 TIP3     3935     TIP3     H1       HT       0.417000       1.00800           0
     36123 TIP3     3935     TIP3     H2       HT       0.417000       1.00800           0
     36124 TIP3     3936     TIP3     OH2      OT      -0.834000       15.9994           0
     36125 TIP3     3936     TIP3     H1       HT       0.417000       1.00800           0
     36126 TIP3     3936     TIP3     H2       HT       0.417000       1.00800           0
     36127 TIP3     3937     TIP3     OH2      OT      -0.834000       15.9994           0
     36128 TIP3     3937     TIP3     H1       HT       0.417000       1.00800           0
     36129 TIP3     3937     TIP3     H2       HT       0.417000       1.00800           0
     36130 TIP3     3938     TIP3     OH2      OT      -0.834000       15.9994           0
     36131 TIP3     3938     TIP3     H1       HT       0.417000       1.00800           0
     36132 TIP3     3938     TIP3     H2       HT       0.417000       1.00800           0
     36133 TIP3     3939     TIP3     OH2      OT      -0.834000       15.9994           0
     36134 TIP3     3939     TIP3     H1       HT       0.417000       1.00800           0
     36135 TIP3     3939     TIP3     H2       HT       0.417000       1.00800           0
     36136 TIP3     3940     TIP3     OH2      OT      -0.834000       15.9994           0
     36137 TIP3     3940     TIP3     H1       HT       0.417000       1.00800           0
     36138 TIP3     3940     TIP3     H2       HT       0.417000       1.00800           0
     36139 TIP3     3941     TIP3     OH2      OT      -0.834000       15.9994           0
     36140 TIP3     3941     TIP3     H1       HT       0.417000       1.00800           0
     36141 TIP3     3941     TIP3     H2       HT       0.417000       1.00800           0
     36142 TIP3     3942     TIP3     OH2      OT      -0.834000       15.9994           0
     36143 TIP3     3942     TIP3     H1       HT       0.417000       1.00800           0
     36144 TIP3     3942     TIP3     H2       HT       0.417000       1.00800           0
     36145 TIP3     3943     TIP3     OH2      OT      -0.834000       15.9994           0
     36146 TIP3     3943     TIP3     H1       HT       0.417000       1.00800           0
     36147 TIP3     3943     TIP3     H2       HT       0.417000       1.00800           0
     36148 TIP3     3944     TIP3     OH2      OT      -0.834000       15.9994           0
     36149 TIP3     3944     TIP3     H1       HT       0.417000       1.00800           0
     36150 TIP3     3944     TIP3     H2       HT       0.417000       1.00800           0
     36151 TIP3     3945     TIP3     OH2      OT      -0.834000       15.9994           0
     36152 TIP3     3945     TIP3     H1       HT       0.417000       1.00800           0
     36153 TIP3     3945     TIP3     H2       HT       0.417000       1.00800           0
     36154 TIP3     3946     TIP3     OH2      OT      -0.834000       15.9994           0
     36155 TIP3     3946     TIP3     H1       HT       0.417000       1.00800           0
     36156 TIP3     3946     TIP3     H2       HT       0.417000       1.00800           0
     36157 TIP3     3947     TIP3     OH2      OT      -0.834000       15.9994           0
     36158 TIP3     3947     TIP3     H1       HT       0.417000       1.00800           0
     36159 TIP3     3947     TIP3     H2       HT       0.417000       1.00800           0
     36160 TIP3     3948     TIP3     OH2      OT      -0.834000       15.9994           0
     36161 TIP3     3948     TIP3     H1       HT       0.417000       1.00800           0
     36162 TIP3     3948     TIP3     H2       HT       0.417000       1.00800           0
     36163 TIP3     3949     TIP3     OH2      OT      -0.834000       15.9994           0
     36164 TIP3     3949     TIP3     H1       HT       0.417000       1.00800           0
     36165 TIP3     3949     TIP3     H2       HT       0.417000       1.00800           0
     36166 TIP3     3950     TIP3     OH2      OT      -0.834000       15.9994           0
     36167 TIP3     3950     TIP3     H1       HT       0.417000       1.00800           0
     36168 TIP3     3950     TIP3     H2       HT       0.417000       1.00800           0
     36169 TIP3     3951     TIP3     OH2      OT      -0.834000       15.9994           0
     36170 TIP3     3951     TIP3     H1       HT       0.417000       1.00800           0
     36171 TIP3     3951     TIP3     H2       HT       0.417000       1.00800           0
     36172 TIP3     3952     TIP3     OH2      OT      -0.834000       15.9994           0
     36173 TIP3     3952     TIP3     H1       HT       0.417000       1.00800           0
     36174 TIP3     3952     TIP3     H2       HT       0.417000       1.00800           0
     36175 TIP3     3953     TIP3     OH2      OT      -0.834000       15.9994           0
     36176 TIP3     3953     TIP3     H1       HT       0.417000       1.00800           0
     36177 TIP3     3953     TIP3     H2       HT       0.417000       1.00800           0
     36178 TIP3     3954     TIP3     OH2      OT      -0.834000       15.9994           0
     36179 TIP3     3954     TIP3     H1       HT       0.417000       1.00800           0
     36180 TIP3     3954     TIP3     H2       HT       0.417000       1.00800           0
     36181 TIP3     3955     TIP3     OH2      OT      -0.834000       15.9994           0
     36182 TIP3     3955     TIP3     H1       HT       0.417000       1.00800           0
     36183 TIP3     3955     TIP3     H2       HT       0.417000       1.00800           0
     36184 TIP3     3956     TIP3     OH2      OT      -0.834000       15.9994           0
     36185 TIP3     3956     TIP3     H1       HT       0.417000       1.00800           0
     36186 TIP3     3956     TIP3     H2       HT       0.417000       1.00800           0
     36187 TIP3     3957     TIP3     OH2      OT      -0.834000       15.9994           0
     36188 TIP3     3957     TIP3     H1       HT       0.417000       1.00800           0
     36189 TIP3     3957     TIP3     H2       HT       0.417000       1.00800           0
     36190 TIP3     3958     TIP3     OH2      OT      -0.834000       15.9994           0
     36191 TIP3     3958     TIP3     H1       HT       0.417000       1.00800           0
     36192 TIP3     3958     TIP3     H2       HT       0.417000       1.00800           0
     36193 TIP3     3959     TIP3     OH2      OT      -0.834000       15.9994           0
     36194 TIP3     3959     TIP3     H1       HT       0.417000       1.00800           0
     36195 TIP3     3959     TIP3     H2       HT       0.417000       1.00800           0
     36196 TIP3     3960     TIP3     OH2      OT      -0.834000       15.9994           0
     36197 TIP3     3960     TIP3     H1       HT       0.417000       1.00800           0
     36198 TIP3     3960     TIP3     H2       HT       0.417000       1.00800           0
     36199 TIP3     3961     TIP3     OH2      OT      -0.834000       15.9994           0
     36200 TIP3     3961     TIP3     H1       HT       0.417000       1.00800           0
     36201 TIP3     3961     TIP3     H2       HT       0.417000       1.00800           0
     36202 TIP3     3962     TIP3     OH2      OT      -0.834000       15.9994           0
     36203 TIP3     3962     TIP3     H1       HT       0.417000       1.00800           0
     36204 TIP3     3962     TIP3     H2       HT       0.417000       1.00800           0
     36205 TIP3     3963     TIP3     OH2      OT      -0.834000       15.9994           0
     36206 TIP3     3963     TIP3     H1       HT       0.417000       1.00800           0
     36207 TIP3     3963     TIP3     H2       HT       0.417000       1.00800           0
     36208 TIP3     3964     TIP3     OH2      OT      -0.834000       15.9994           0
     36209 TIP3     3964     TIP3     H1       HT       0.417000       1.00800           0
     36210 TIP3     3964     TIP3     H2       HT       0.417000       1.00800           0
     36211 TIP3     3965     TIP3     OH2      OT      -0.834000       15.9994           0
     36212 TIP3     3965     TIP3     H1       HT       0.417000       1.00800           0
     36213 TIP3     3965     TIP3     H2       HT       0.417000       1.00800           0
     36214 TIP3     3966     TIP3     OH2      OT      -0.834000       15.9994           0
     36215 TIP3     3966     TIP3     H1       HT       0.417000       1.00800           0
     36216 TIP3     3966     TIP3     H2       HT       0.417000       1.00800           0
     36217 TIP3     3967     TIP3     OH2      OT      -0.834000       15.9994           0
     36218 TIP3     3967     TIP3     H1       HT       0.417000       1.00800           0
     36219 TIP3     3967     TIP3     H2       HT       0.417000       1.00800           0
     36220 TIP3     3968     TIP3     OH2      OT      -0.834000       15.9994           0
     36221 TIP3     3968     TIP3     H1       HT       0.417000       1.00800           0
     36222 TIP3     3968     TIP3     H2       HT       0.417000       1.00800           0
     36223 TIP3     3969     TIP3     OH2      OT      -0.834000       15.9994           0
     36224 TIP3     3969     TIP3     H1       HT       0.417000       1.00800           0
     36225 TIP3     3969     TIP3     H2       HT       0.417000       1.00800           0
     36226 TIP3     3970     TIP3     OH2      OT      -0.834000       15.9994           0
     36227 TIP3     3970     TIP3     H1       HT       0.417000       1.00800           0
     36228 TIP3     3970     TIP3     H2       HT       0.417000       1.00800           0
     36229 TIP3     3971     TIP3     OH2      OT      -0.834000       15.9994           0
     36230 TIP3     3971     TIP3     H1       HT       0.417000       1.00800           0
     36231 TIP3     3971     TIP3     H2       HT       0.417000       1.00800           0
     36232 TIP3     3972     TIP3     OH2      OT      -0.834000       15.9994           0
     36233 TIP3     3972     TIP3     H1       HT       0.417000       1.00800           0
     36234 TIP3     3972     TIP3     H2       HT       0.417000       1.00800           0
     36235 TIP3     3973     TIP3     OH2      OT      -0.834000       15.9994           0
     36236 TIP3     3973     TIP3     H1       HT       0.417000       1.00800           0
     36237 TIP3     3973     TIP3     H2       HT       0.417000       1.00800           0
     36238 TIP3     3974     TIP3     OH2      OT      -0.834000       15.9994           0
     36239 TIP3     3974     TIP3     H1       HT       0.417000       1.00800           0
     36240 TIP3     3974     TIP3     H2       HT       0.417000       1.00800           0
     36241 TIP3     3975     TIP3     OH2      OT      -0.834000       15.9994           0
     36242 TIP3     3975     TIP3     H1       HT       0.417000       1.00800           0
     36243 TIP3     3975     TIP3     H2       HT       0.417000       1.00800           0
     36244 TIP3     3976     TIP3     OH2      OT      -0.834000       15.9994           0
     36245 TIP3     3976     TIP3     H1       HT       0.417000       1.00800           0
     36246 TIP3     3976     TIP3     H2       HT       0.417000       1.00800           0
     36247 TIP3     3977     TIP3     OH2      OT      -0.834000       15.9994           0
     36248 TIP3     3977     TIP3     H1       HT       0.417000       1.00800           0
     36249 TIP3     3977     TIP3     H2       HT       0.417000       1.00800           0
     36250 TIP3     3978     TIP3     OH2      OT      -0.834000       15.9994           0
     36251 TIP3     3978     TIP3     H1       HT       0.417000       1.00800           0
     36252 TIP3     3978     TIP3     H2       HT       0.417000       1.00800           0
     36253 TIP3     3979     TIP3     OH2      OT      -0.834000       15.9994           0
     36254 TIP3     3979     TIP3     H1       HT       0.417000       1.00800           0
     36255 TIP3     3979     TIP3     H2       HT       0.417000       1.00800           0
     36256 TIP3     3980     TIP3     OH2      OT      -0.834000       15.9994           0
     36257 TIP3     3980     TIP3     H1       HT       0.417000       1.00800           0
     36258 TIP3     3980     TIP3     H2       HT       0.417000       1.00800           0
     36259 TIP3     3981     TIP3     OH2      OT      -0.834000       15.9994           0
     36260 TIP3     3981     TIP3     H1       HT       0.417000       1.00800           0
     36261 TIP3     3981     TIP3     H2       HT       0.417000       1.00800           0
     36262 TIP3     3982     TIP3     OH2      OT      -0.834000       15.9994           0
     36263 TIP3     3982     TIP3     H1       HT       0.417000       1.00800           0
     36264 TIP3     3982     TIP3     H2       HT       0.417000       1.00800           0
     36265 TIP3     3983     TIP3     OH2      OT      -0.834000       15.9994           0
     36266 TIP3     3983     TIP3     H1       HT       0.417000       1.00800           0
     36267 TIP3     3983     TIP3     H2       HT       0.417000       1.00800           0
     36268 TIP3     3984     TIP3     OH2      OT      -0.834000       15.9994           0
     36269 TIP3     3984     TIP3     H1       HT       0.417000       1.00800           0
     36270 TIP3     3984     TIP3     H2       HT       0.417000       1.00800           0
     36271 TIP3     3985     TIP3     OH2      OT      -0.834000       15.9994           0
     36272 TIP3     3985     TIP3     H1       HT       0.417000       1.00800           0
     36273 TIP3     3985     TIP3     H2       HT       0.417000       1.00800           0
     36274 TIP3     3986     TIP3     OH2      OT      -0.834000       15.9994           0
     36275 TIP3     3986     TIP3     H1       HT       0.417000       1.00800           0
     36276 TIP3     3986     TIP3     H2       HT       0.417000       1.00800           0
     36277 TIP3     3987     TIP3     OH2      OT      -0.834000       15.9994           0
     36278 TIP3     3987     TIP3     H1       HT       0.417000       1.00800           0
     36279 TIP3     3987     TIP3     H2       HT       0.417000       1.00800           0
     36280 TIP3     3988     TIP3     OH2      OT      -0.834000       15.9994           0
     36281 TIP3     3988     TIP3     H1       HT       0.417000       1.00800           0
     36282 TIP3     3988     TIP3     H2       HT       0.417000       1.00800           0
     36283 TIP3     3989     TIP3     OH2      OT      -0.834000       15.9994           0
     36284 TIP3     3989     TIP3     H1       HT       0.417000       1.00800           0
     36285 TIP3     3989     TIP3     H2       HT       0.417000       1.00800           0
     36286 TIP3     3990     TIP3     OH2      OT      -0.834000       15.9994           0
     36287 TIP3     3990     TIP3     H1       HT       0.417000       1.00800           0
     36288 TIP3     3990     TIP3     H2       HT       0.417000       1.00800           0
     36289 TIP3     3991     TIP3     OH2      OT      -0.834000       15.9994           0
     36290 TIP3     3991     TIP3     H1       HT       0.417000       1.00800           0
     36291 TIP3     3991     TIP3     H2       HT       0.417000       1.00800           0
     36292 TIP3     3992     TIP3     OH2      OT      -0.834000       15.9994           0
     36293 TIP3     3992     TIP3     H1       HT       0.417000       1.00800           0
     36294 TIP3     3992     TIP3     H2       HT       0.417000       1.00800           0
     36295 TIP3     3993     TIP3     OH2      OT      -0.834000       15.9994           0
     36296 TIP3     3993     TIP3     H1       HT       0.417000       1.00800           0
     36297 TIP3     3993     TIP3     H2       HT       0.417000       1.00800           0
     36298 TIP3     3994     TIP3     OH2      OT      -0.834000       15.9994           0
     36299 TIP3     3994     TIP3     H1       HT       0.417000       1.00800           0
     36300 TIP3     3994     TIP3     H2       HT       0.417000       1.00800           0
     36301 TIP3     3995     TIP3     OH2      OT      -0.834000       15.9994           0
     36302 TIP3     3995     TIP3     H1       HT       0.417000       1.00800           0
     36303 TIP3     3995     TIP3     H2       HT       0.417000       1.00800           0
     36304 TIP3     3996     TIP3     OH2      OT      -0.834000       15.9994           0
     36305 TIP3     3996     TIP3     H1       HT       0.417000       1.00800           0
     36306 TIP3     3996     TIP3     H2       HT       0.417000       1.00800           0
     36307 TIP3     3997     TIP3     OH2      OT      -0.834000       15.9994           0
     36308 TIP3     3997     TIP3     H1       HT       0.417000       1.00800           0
     36309 TIP3     3997     TIP3     H2       HT       0.417000       1.00800           0
     36310 TIP3     3998     TIP3     OH2      OT      -0.834000       15.9994           0
     36311 TIP3     3998     TIP3     H1       HT       0.417000       1.00800           0
     36312 TIP3     3998     TIP3     H2       HT       0.417000       1.00800           0
     36313 TIP3     3999     TIP3     OH2      OT      -0.834000       15.9994           0
     36314 TIP3     3999     TIP3     H1       HT       0.417000       1.00800           0
     36315 TIP3     3999     TIP3     H2       HT       0.417000       1.00800           0
     36316 TIP3     4000     TIP3     OH2      OT      -0.834000       15.9994           0
     36317 TIP3     4000     TIP3     H1       HT       0.417000       1.00800           0
     36318 TIP3     4000     TIP3     H2       HT       0.417000       1.00800           0
     36319 TIP3     4001     TIP3     OH2      OT      -0.834000       15.9994           0
     36320 TIP3     4001     TIP3     H1       HT       0.417000       1.00800           0
     36321 TIP3     4001     TIP3     H2       HT       0.417000       1.00800           0
     36322 TIP3     4002     TIP3     OH2      OT      -0.834000       15.9994           0
     36323 TIP3     4002     TIP3     H1       HT       0.417000       1.00800           0
     36324 TIP3     4002     TIP3     H2       HT       0.417000       1.00800           0
     36325 TIP3     4003     TIP3     OH2      OT      -0.834000       15.9994           0
     36326 TIP3     4003     TIP3     H1       HT       0.417000       1.00800           0
     36327 TIP3     4003     TIP3     H2       HT       0.417000       1.00800           0
     36328 TIP3     4004     TIP3     OH2      OT      -0.834000       15.9994           0
     36329 TIP3     4004     TIP3     H1       HT       0.417000       1.00800           0
     36330 TIP3     4004     TIP3     H2       HT       0.417000       1.00800           0
     36331 TIP3     4005     TIP3     OH2      OT      -0.834000       15.9994           0
     36332 TIP3     4005     TIP3     H1       HT       0.417000       1.00800           0
     36333 TIP3     4005     TIP3     H2       HT       0.417000       1.00800           0
     36334 TIP3     4006     TIP3     OH2      OT      -0.834000       15.9994           0
     36335 TIP3     4006     TIP3     H1       HT       0.417000       1.00800           0
     36336 TIP3     4006     TIP3     H2       HT       0.417000       1.00800           0
     36337 TIP3     4007     TIP3     OH2      OT      -0.834000       15.9994           0
     36338 TIP3     4007     TIP3     H1       HT       0.417000       1.00800           0
     36339 TIP3     4007     TIP3     H2       HT       0.417000       1.00800           0
     36340 TIP3     4008     TIP3     OH2      OT      -0.834000       15.9994           0
     36341 TIP3     4008     TIP3     H1       HT       0.417000       1.00800           0
     36342 TIP3     4008     TIP3     H2       HT       0.417000       1.00800           0
     36343 TIP3     4009     TIP3     OH2      OT      -0.834000       15.9994           0
     36344 TIP3     4009     TIP3     H1       HT       0.417000       1.00800           0
     36345 TIP3     4009     TIP3     H2       HT       0.417000       1.00800           0
     36346 TIP3     4010     TIP3     OH2      OT      -0.834000       15.9994           0
     36347 TIP3     4010     TIP3     H1       HT       0.417000       1.00800           0
     36348 TIP3     4010     TIP3     H2       HT       0.417000       1.00800           0
     36349 TIP3     4011     TIP3     OH2      OT      -0.834000       15.9994           0
     36350 TIP3     4011     TIP3     H1       HT       0.417000       1.00800           0
     36351 TIP3     4011     TIP3     H2       HT       0.417000       1.00800           0
     36352 TIP3     4012     TIP3     OH2      OT      -0.834000       15.9994           0
     36353 TIP3     4012     TIP3     H1       HT       0.417000       1.00800           0
     36354 TIP3     4012     TIP3     H2       HT       0.417000       1.00800           0
     36355 TIP3     4013     TIP3     OH2      OT      -0.834000       15.9994           0
     36356 TIP3     4013     TIP3     H1       HT       0.417000       1.00800           0
     36357 TIP3     4013     TIP3     H2       HT       0.417000       1.00800           0
     36358 TIP3     4014     TIP3     OH2      OT      -0.834000       15.9994           0
     36359 TIP3     4014     TIP3     H1       HT       0.417000       1.00800           0
     36360 TIP3     4014     TIP3     H2       HT       0.417000       1.00800           0
     36361 TIP3     4015     TIP3     OH2      OT      -0.834000       15.9994           0
     36362 TIP3     4015     TIP3     H1       HT       0.417000       1.00800           0
     36363 TIP3     4015     TIP3     H2       HT       0.417000       1.00800           0
     36364 TIP3     4016     TIP3     OH2      OT      -0.834000       15.9994           0
     36365 TIP3     4016     TIP3     H1       HT       0.417000       1.00800           0
     36366 TIP3     4016     TIP3     H2       HT       0.417000       1.00800           0
     36367 TIP3     4017     TIP3     OH2      OT      -0.834000       15.9994           0
     36368 TIP3     4017     TIP3     H1       HT       0.417000       1.00800           0
     36369 TIP3     4017     TIP3     H2       HT       0.417000       1.00800           0
     36370 TIP3     4018     TIP3     OH2      OT      -0.834000       15.9994           0
     36371 TIP3     4018     TIP3     H1       HT       0.417000       1.00800           0
     36372 TIP3     4018     TIP3     H2       HT       0.417000       1.00800           0
     36373 TIP3     4019     TIP3     OH2      OT      -0.834000       15.9994           0
     36374 TIP3     4019     TIP3     H1       HT       0.417000       1.00800           0
     36375 TIP3     4019     TIP3     H2       HT       0.417000       1.00800           0
     36376 TIP3     4020     TIP3     OH2      OT      -0.834000       15.9994           0
     36377 TIP3     4020     TIP3     H1       HT       0.417000       1.00800           0
     36378 TIP3     4020     TIP3     H2       HT       0.417000       1.00800           0
     36379 TIP3     4021     TIP3     OH2      OT      -0.834000       15.9994           0
     36380 TIP3     4021     TIP3     H1       HT       0.417000       1.00800           0
     36381 TIP3     4021     TIP3     H2       HT       0.417000       1.00800           0
     36382 TIP3     4022     TIP3     OH2      OT      -0.834000       15.9994           0
     36383 TIP3     4022     TIP3     H1       HT       0.417000       1.00800           0
     36384 TIP3     4022     TIP3     H2       HT       0.417000       1.00800           0
     36385 TIP3     4023     TIP3     OH2      OT      -0.834000       15.9994           0
     36386 TIP3     4023     TIP3     H1       HT       0.417000       1.00800           0
     36387 TIP3     4023     TIP3     H2       HT       0.417000       1.00800           0
     36388 TIP3     4024     TIP3     OH2      OT      -0.834000       15.9994           0
     36389 TIP3     4024     TIP3     H1       HT       0.417000       1.00800           0
     36390 TIP3     4024     TIP3     H2       HT       0.417000       1.00800           0
     36391 TIP3     4025     TIP3     OH2      OT      -0.834000       15.9994           0
     36392 TIP3     4025     TIP3     H1       HT       0.417000       1.00800           0
     36393 TIP3     4025     TIP3     H2       HT       0.417000       1.00800           0
     36394 TIP3     4026     TIP3     OH2      OT      -0.834000       15.9994           0
     36395 TIP3     4026     TIP3     H1       HT       0.417000       1.00800           0
     36396 TIP3     4026     TIP3     H2       HT       0.417000       1.00800           0
     36397 TIP3     4027     TIP3     OH2      OT      -0.834000       15.9994           0
     36398 TIP3     4027     TIP3     H1       HT       0.417000       1.00800           0
     36399 TIP3     4027     TIP3     H2       HT       0.417000       1.00800           0
     36400 TIP3     4028     TIP3     OH2      OT      -0.834000       15.9994           0
     36401 TIP3     4028     TIP3     H1       HT       0.417000       1.00800           0
     36402 TIP3     4028     TIP3     H2       HT       0.417000       1.00800           0
     36403 TIP3     4029     TIP3     OH2      OT      -0.834000       15.9994           0
     36404 TIP3     4029     TIP3     H1       HT       0.417000       1.00800           0
     36405 TIP3     4029     TIP3     H2       HT       0.417000       1.00800           0
     36406 TIP3     4030     TIP3     OH2      OT      -0.834000       15.9994           0
     36407 TIP3     4030     TIP3     H1       HT       0.417000       1.00800           0
     36408 TIP3     4030     TIP3     H2       HT       0.417000       1.00800           0
     36409 TIP3     4031     TIP3     OH2      OT      -0.834000       15.9994           0
     36410 TIP3     4031     TIP3     H1       HT       0.417000       1.00800           0
     36411 TIP3     4031     TIP3     H2       HT       0.417000       1.00800           0
     36412 TIP3     4032     TIP3     OH2      OT      -0.834000       15.9994           0
     36413 TIP3     4032     TIP3     H1       HT       0.417000       1.00800           0
     36414 TIP3     4032     TIP3     H2       HT       0.417000       1.00800           0
     36415 TIP3     4033     TIP3     OH2      OT      -0.834000       15.9994           0
     36416 TIP3     4033     TIP3     H1       HT       0.417000       1.00800           0
     36417 TIP3     4033     TIP3     H2       HT       0.417000       1.00800           0
     36418 TIP3     4034     TIP3     OH2      OT      -0.834000       15.9994           0
     36419 TIP3     4034     TIP3     H1       HT       0.417000       1.00800           0
     36420 TIP3     4034     TIP3     H2       HT       0.417000       1.00800           0
     36421 TIP3     4035     TIP3     OH2      OT      -0.834000       15.9994           0
     36422 TIP3     4035     TIP3     H1       HT       0.417000       1.00800           0
     36423 TIP3     4035     TIP3     H2       HT       0.417000       1.00800           0
     36424 TIP3     4036     TIP3     OH2      OT      -0.834000       15.9994           0
     36425 TIP3     4036     TIP3     H1       HT       0.417000       1.00800           0
     36426 TIP3     4036     TIP3     H2       HT       0.417000       1.00800           0
     36427 TIP3     4037     TIP3     OH2      OT      -0.834000       15.9994           0
     36428 TIP3     4037     TIP3     H1       HT       0.417000       1.00800           0
     36429 TIP3     4037     TIP3     H2       HT       0.417000       1.00800           0
     36430 TIP3     4038     TIP3     OH2      OT      -0.834000       15.9994           0
     36431 TIP3     4038     TIP3     H1       HT       0.417000       1.00800           0
     36432 TIP3     4038     TIP3     H2       HT       0.417000       1.00800           0
     36433 TIP3     4039     TIP3     OH2      OT      -0.834000       15.9994           0
     36434 TIP3     4039     TIP3     H1       HT       0.417000       1.00800           0
     36435 TIP3     4039     TIP3     H2       HT       0.417000       1.00800           0
     36436 TIP3     4040     TIP3     OH2      OT      -0.834000       15.9994           0
     36437 TIP3     4040     TIP3     H1       HT       0.417000       1.00800           0
     36438 TIP3     4040     TIP3     H2       HT       0.417000       1.00800           0
     36439 TIP3     4041     TIP3     OH2      OT      -0.834000       15.9994           0
     36440 TIP3     4041     TIP3     H1       HT       0.417000       1.00800           0
     36441 TIP3     4041     TIP3     H2       HT       0.417000       1.00800           0
     36442 TIP3     4042     TIP3     OH2      OT      -0.834000       15.9994           0
     36443 TIP3     4042     TIP3     H1       HT       0.417000       1.00800           0
     36444 TIP3     4042     TIP3     H2       HT       0.417000       1.00800           0
     36445 TIP3     4043     TIP3     OH2      OT      -0.834000       15.9994           0
     36446 TIP3     4043     TIP3     H1       HT       0.417000       1.00800           0
     36447 TIP3     4043     TIP3     H2       HT       0.417000       1.00800           0
     36448 TIP3     4044     TIP3     OH2      OT      -0.834000       15.9994           0
     36449 TIP3     4044     TIP3     H1       HT       0.417000       1.00800           0
     36450 TIP3     4044     TIP3     H2       HT       0.417000       1.00800           0
     36451 TIP3     4045     TIP3     OH2      OT      -0.834000       15.9994           0
     36452 TIP3     4045     TIP3     H1       HT       0.417000       1.00800           0
     36453 TIP3     4045     TIP3     H2       HT       0.417000       1.00800           0
     36454 TIP3     4046     TIP3     OH2      OT      -0.834000       15.9994           0
     36455 TIP3     4046     TIP3     H1       HT       0.417000       1.00800           0
     36456 TIP3     4046     TIP3     H2       HT       0.417000       1.00800           0
     36457 TIP3     4047     TIP3     OH2      OT      -0.834000       15.9994           0
     36458 TIP3     4047     TIP3     H1       HT       0.417000       1.00800           0
     36459 TIP3     4047     TIP3     H2       HT       0.417000       1.00800           0
     36460 TIP3     4048     TIP3     OH2      OT      -0.834000       15.9994           0
     36461 TIP3     4048     TIP3     H1       HT       0.417000       1.00800           0
     36462 TIP3     4048     TIP3     H2       HT       0.417000       1.00800           0
     36463 TIP3     4049     TIP3     OH2      OT      -0.834000       15.9994           0
     36464 TIP3     4049     TIP3     H1       HT       0.417000       1.00800           0
     36465 TIP3     4049     TIP3     H2       HT       0.417000       1.00800           0
     36466 TIP3     4050     TIP3     OH2      OT      -0.834000       15.9994           0
     36467 TIP3     4050     TIP3     H1       HT       0.417000       1.00800           0
     36468 TIP3     4050     TIP3     H2       HT       0.417000       1.00800           0
     36469 TIP3     4051     TIP3     OH2      OT      -0.834000       15.9994           0
     36470 TIP3     4051     TIP3     H1       HT       0.417000       1.00800           0
     36471 TIP3     4051     TIP3     H2       HT       0.417000       1.00800           0
     36472 TIP3     4052     TIP3     OH2      OT      -0.834000       15.9994           0
     36473 TIP3     4052     TIP3     H1       HT       0.417000       1.00800           0
     36474 TIP3     4052     TIP3     H2       HT       0.417000       1.00800           0
     36475 TIP3     4053     TIP3     OH2      OT      -0.834000       15.9994           0
     36476 TIP3     4053     TIP3     H1       HT       0.417000       1.00800           0
     36477 TIP3     4053     TIP3     H2       HT       0.417000       1.00800           0
     36478 TIP3     4054     TIP3     OH2      OT      -0.834000       15.9994           0
     36479 TIP3     4054     TIP3     H1       HT       0.417000       1.00800           0
     36480 TIP3     4054     TIP3     H2       HT       0.417000       1.00800           0
     36481 TIP3     4055     TIP3     OH2      OT      -0.834000       15.9994           0
     36482 TIP3     4055     TIP3     H1       HT       0.417000       1.00800           0
     36483 TIP3     4055     TIP3     H2       HT       0.417000       1.00800           0
     36484 TIP3     4056     TIP3     OH2      OT      -0.834000       15.9994           0
     36485 TIP3     4056     TIP3     H1       HT       0.417000       1.00800           0
     36486 TIP3     4056     TIP3     H2       HT       0.417000       1.00800           0
     36487 TIP3     4057     TIP3     OH2      OT      -0.834000       15.9994           0
     36488 TIP3     4057     TIP3     H1       HT       0.417000       1.00800           0
     36489 TIP3     4057     TIP3     H2       HT       0.417000       1.00800           0
     36490 TIP3     4058     TIP3     OH2      OT      -0.834000       15.9994           0
     36491 TIP3     4058     TIP3     H1       HT       0.417000       1.00800           0
     36492 TIP3     4058     TIP3     H2       HT       0.417000       1.00800           0
     36493 TIP3     4059     TIP3     OH2      OT      -0.834000       15.9994           0
     36494 TIP3     4059     TIP3     H1       HT       0.417000       1.00800           0
     36495 TIP3     4059     TIP3     H2       HT       0.417000       1.00800           0
     36496 TIP3     4060     TIP3     OH2      OT      -0.834000       15.9994           0
     36497 TIP3     4060     TIP3     H1       HT       0.417000       1.00800           0
     36498 TIP3     4060     TIP3     H2       HT       0.417000       1.00800           0
     36499 TIP3     4061     TIP3     OH2      OT      -0.834000       15.9994           0
     36500 TIP3     4061     TIP3     H1       HT       0.417000       1.00800           0
     36501 TIP3     4061     TIP3     H2       HT       0.417000       1.00800           0
     36502 TIP3     4062     TIP3     OH2      OT      -0.834000       15.9994           0
     36503 TIP3     4062     TIP3     H1       HT       0.417000       1.00800           0
     36504 TIP3     4062     TIP3     H2       HT       0.417000       1.00800           0
     36505 TIP3     4063     TIP3     OH2      OT      -0.834000       15.9994           0
     36506 TIP3     4063     TIP3     H1       HT       0.417000       1.00800           0
     36507 TIP3     4063     TIP3     H2       HT       0.417000       1.00800           0
     36508 TIP3     4064     TIP3     OH2      OT      -0.834000       15.9994           0
     36509 TIP3     4064     TIP3     H1       HT       0.417000       1.00800           0
     36510 TIP3     4064     TIP3     H2       HT       0.417000       1.00800           0
     36511 TIP3     4065     TIP3     OH2      OT      -0.834000       15.9994           0
     36512 TIP3     4065     TIP3     H1       HT       0.417000       1.00800           0
     36513 TIP3     4065     TIP3     H2       HT       0.417000       1.00800           0
     36514 TIP3     4066     TIP3     OH2      OT      -0.834000       15.9994           0
     36515 TIP3     4066     TIP3     H1       HT       0.417000       1.00800           0
     36516 TIP3     4066     TIP3     H2       HT       0.417000       1.00800           0
     36517 TIP3     4067     TIP3     OH2      OT      -0.834000       15.9994           0
     36518 TIP3     4067     TIP3     H1       HT       0.417000       1.00800           0
     36519 TIP3     4067     TIP3     H2       HT       0.417000       1.00800           0
     36520 TIP3     4068     TIP3     OH2      OT      -0.834000       15.9994           0
     36521 TIP3     4068     TIP3     H1       HT       0.417000       1.00800           0
     36522 TIP3     4068     TIP3     H2       HT       0.417000       1.00800           0
     36523 TIP3     4069     TIP3     OH2      OT      -0.834000       15.9994           0
     36524 TIP3     4069     TIP3     H1       HT       0.417000       1.00800           0
     36525 TIP3     4069     TIP3     H2       HT       0.417000       1.00800           0
     36526 TIP3     4070     TIP3     OH2      OT      -0.834000       15.9994           0
     36527 TIP3     4070     TIP3     H1       HT       0.417000       1.00800           0
     36528 TIP3     4070     TIP3     H2       HT       0.417000       1.00800           0
     36529 TIP3     4071     TIP3     OH2      OT      -0.834000       15.9994           0
     36530 TIP3     4071     TIP3     H1       HT       0.417000       1.00800           0
     36531 TIP3     4071     TIP3     H2       HT       0.417000       1.00800           0
     36532 TIP3     4072     TIP3     OH2      OT      -0.834000       15.9994           0
     36533 TIP3     4072     TIP3     H1       HT       0.417000       1.00800           0
     36534 TIP3     4072     TIP3     H2       HT       0.417000       1.00800           0
     36535 TIP3     4073     TIP3     OH2      OT      -0.834000       15.9994           0
     36536 TIP3     4073     TIP3     H1       HT       0.417000       1.00800           0
     36537 TIP3     4073     TIP3     H2       HT       0.417000       1.00800           0
     36538 TIP3     4074     TIP3     OH2      OT      -0.834000       15.9994           0
     36539 TIP3     4074     TIP3     H1       HT       0.417000       1.00800           0
     36540 TIP3     4074     TIP3     H2       HT       0.417000       1.00800           0
     36541 TIP3     4075     TIP3     OH2      OT      -0.834000       15.9994           0
     36542 TIP3     4075     TIP3     H1       HT       0.417000       1.00800           0
     36543 TIP3     4075     TIP3     H2       HT       0.417000       1.00800           0
     36544 TIP3     4076     TIP3     OH2      OT      -0.834000       15.9994           0
     36545 TIP3     4076     TIP3     H1       HT       0.417000       1.00800           0
     36546 TIP3     4076     TIP3     H2       HT       0.417000       1.00800           0
     36547 TIP3     4077     TIP3     OH2      OT      -0.834000       15.9994           0
     36548 TIP3     4077     TIP3     H1       HT       0.417000       1.00800           0
     36549 TIP3     4077     TIP3     H2       HT       0.417000       1.00800           0
     36550 TIP3     4078     TIP3     OH2      OT      -0.834000       15.9994           0
     36551 TIP3     4078     TIP3     H1       HT       0.417000       1.00800           0
     36552 TIP3     4078     TIP3     H2       HT       0.417000       1.00800           0
     36553 TIP3     4079     TIP3     OH2      OT      -0.834000       15.9994           0
     36554 TIP3     4079     TIP3     H1       HT       0.417000       1.00800           0
     36555 TIP3     4079     TIP3     H2       HT       0.417000       1.00800           0
     36556 TIP3     4080     TIP3     OH2      OT      -0.834000       15.9994           0
     36557 TIP3     4080     TIP3     H1       HT       0.417000       1.00800           0
     36558 TIP3     4080     TIP3     H2       HT       0.417000       1.00800           0
     36559 TIP3     4081     TIP3     OH2      OT      -0.834000       15.9994           0
     36560 TIP3     4081     TIP3     H1       HT       0.417000       1.00800           0
     36561 TIP3     4081     TIP3     H2       HT       0.417000       1.00800           0
     36562 TIP3     4082     TIP3     OH2      OT      -0.834000       15.9994           0
     36563 TIP3     4082     TIP3     H1       HT       0.417000       1.00800           0
     36564 TIP3     4082     TIP3     H2       HT       0.417000       1.00800           0
     36565 TIP3     4083     TIP3     OH2      OT      -0.834000       15.9994           0
     36566 TIP3     4083     TIP3     H1       HT       0.417000       1.00800           0
     36567 TIP3     4083     TIP3     H2       HT       0.417000       1.00800           0
     36568 TIP3     4084     TIP3     OH2      OT      -0.834000       15.9994           0
     36569 TIP3     4084     TIP3     H1       HT       0.417000       1.00800           0
     36570 TIP3     4084     TIP3     H2       HT       0.417000       1.00800           0
     36571 TIP3     4085     TIP3     OH2      OT      -0.834000       15.9994           0
     36572 TIP3     4085     TIP3     H1       HT       0.417000       1.00800           0
     36573 TIP3     4085     TIP3     H2       HT       0.417000       1.00800           0
     36574 TIP3     4086     TIP3     OH2      OT      -0.834000       15.9994           0
     36575 TIP3     4086     TIP3     H1       HT       0.417000       1.00800           0
     36576 TIP3     4086     TIP3     H2       HT       0.417000       1.00800           0
     36577 TIP3     4087     TIP3     OH2      OT      -0.834000       15.9994           0
     36578 TIP3     4087     TIP3     H1       HT       0.417000       1.00800           0
     36579 TIP3     4087     TIP3     H2       HT       0.417000       1.00800           0
     36580 TIP3     4088     TIP3     OH2      OT      -0.834000       15.9994           0
     36581 TIP3     4088     TIP3     H1       HT       0.417000       1.00800           0
     36582 TIP3     4088     TIP3     H2       HT       0.417000       1.00800           0
     36583 TIP3     4089     TIP3     OH2      OT      -0.834000       15.9994           0
     36584 TIP3     4089     TIP3     H1       HT       0.417000       1.00800           0
     36585 TIP3     4089     TIP3     H2       HT       0.417000       1.00800           0
     36586 TIP3     4090     TIP3     OH2      OT      -0.834000       15.9994           0
     36587 TIP3     4090     TIP3     H1       HT       0.417000       1.00800           0
     36588 TIP3     4090     TIP3     H2       HT       0.417000       1.00800           0
     36589 TIP3     4091     TIP3     OH2      OT      -0.834000       15.9994           0
     36590 TIP3     4091     TIP3     H1       HT       0.417000       1.00800           0
     36591 TIP3     4091     TIP3     H2       HT       0.417000       1.00800           0
     36592 TIP3     4092     TIP3     OH2      OT      -0.834000       15.9994           0
     36593 TIP3     4092     TIP3     H1       HT       0.417000       1.00800           0
     36594 TIP3     4092     TIP3     H2       HT       0.417000       1.00800           0
     36595 TIP3     4093     TIP3     OH2      OT      -0.834000       15.9994           0
     36596 TIP3     4093     TIP3     H1       HT       0.417000       1.00800           0
     36597 TIP3     4093     TIP3     H2       HT       0.417000       1.00800           0
     36598 TIP3     4094     TIP3     OH2      OT      -0.834000       15.9994           0
     36599 TIP3     4094     TIP3     H1       HT       0.417000       1.00800           0
     36600 TIP3     4094     TIP3     H2       HT       0.417000       1.00800           0
     36601 TIP3     4095     TIP3     OH2      OT      -0.834000       15.9994           0
     36602 TIP3     4095     TIP3     H1       HT       0.417000       1.00800           0
     36603 TIP3     4095     TIP3     H2       HT       0.417000       1.00800           0
     36604 TIP3     4096     TIP3     OH2      OT      -0.834000       15.9994           0
     36605 TIP3     4096     TIP3     H1       HT       0.417000       1.00800           0
     36606 TIP3     4096     TIP3     H2       HT       0.417000       1.00800           0
     36607 TIP3     4097     TIP3     OH2      OT      -0.834000       15.9994           0
     36608 TIP3     4097     TIP3     H1       HT       0.417000       1.00800           0
     36609 TIP3     4097     TIP3     H2       HT       0.417000       1.00800           0
     36610 TIP3     4098     TIP3     OH2      OT      -0.834000       15.9994           0
     36611 TIP3     4098     TIP3     H1       HT       0.417000       1.00800           0
     36612 TIP3     4098     TIP3     H2       HT       0.417000       1.00800           0
     36613 TIP3     4099     TIP3     OH2      OT      -0.834000       15.9994           0
     36614 TIP3     4099     TIP3     H1       HT       0.417000       1.00800           0
     36615 TIP3     4099     TIP3     H2       HT       0.417000       1.00800           0
     36616 TIP3     4100     TIP3     OH2      OT      -0.834000       15.9994           0
     36617 TIP3     4100     TIP3     H1       HT       0.417000       1.00800           0
     36618 TIP3     4100     TIP3     H2       HT       0.417000       1.00800           0
     36619 TIP3     4101     TIP3     OH2      OT      -0.834000       15.9994           0
     36620 TIP3     4101     TIP3     H1       HT       0.417000       1.00800           0
     36621 TIP3     4101     TIP3     H2       HT       0.417000       1.00800           0
     36622 TIP3     4102     TIP3     OH2      OT      -0.834000       15.9994           0
     36623 TIP3     4102     TIP3     H1       HT       0.417000       1.00800           0
     36624 TIP3     4102     TIP3     H2       HT       0.417000       1.00800           0
     36625 TIP3     4103     TIP3     OH2      OT      -0.834000       15.9994           0
     36626 TIP3     4103     TIP3     H1       HT       0.417000       1.00800           0
     36627 TIP3     4103     TIP3     H2       HT       0.417000       1.00800           0
     36628 TIP3     4104     TIP3     OH2      OT      -0.834000       15.9994           0
     36629 TIP3     4104     TIP3     H1       HT       0.417000       1.00800           0
     36630 TIP3     4104     TIP3     H2       HT       0.417000       1.00800           0
     36631 TIP3     4105     TIP3     OH2      OT      -0.834000       15.9994           0
     36632 TIP3     4105     TIP3     H1       HT       0.417000       1.00800           0
     36633 TIP3     4105     TIP3     H2       HT       0.417000       1.00800           0
     36634 TIP3     4106     TIP3     OH2      OT      -0.834000       15.9994           0
     36635 TIP3     4106     TIP3     H1       HT       0.417000       1.00800           0
     36636 TIP3     4106     TIP3     H2       HT       0.417000       1.00800           0
     36637 TIP3     4107     TIP3     OH2      OT      -0.834000       15.9994           0
     36638 TIP3     4107     TIP3     H1       HT       0.417000       1.00800           0
     36639 TIP3     4107     TIP3     H2       HT       0.417000       1.00800           0
     36640 TIP3     4108     TIP3     OH2      OT      -0.834000       15.9994           0
     36641 TIP3     4108     TIP3     H1       HT       0.417000       1.00800           0
     36642 TIP3     4108     TIP3     H2       HT       0.417000       1.00800           0
     36643 TIP3     4109     TIP3     OH2      OT      -0.834000       15.9994           0
     36644 TIP3     4109     TIP3     H1       HT       0.417000       1.00800           0
     36645 TIP3     4109     TIP3     H2       HT       0.417000       1.00800           0
     36646 TIP3     4110     TIP3     OH2      OT      -0.834000       15.9994           0
     36647 TIP3     4110     TIP3     H1       HT       0.417000       1.00800           0
     36648 TIP3     4110     TIP3     H2       HT       0.417000       1.00800           0
     36649 TIP3     4111     TIP3     OH2      OT      -0.834000       15.9994           0
     36650 TIP3     4111     TIP3     H1       HT       0.417000       1.00800           0
     36651 TIP3     4111     TIP3     H2       HT       0.417000       1.00800           0
     36652 TIP3     4112     TIP3     OH2      OT      -0.834000       15.9994           0
     36653 TIP3     4112     TIP3     H1       HT       0.417000       1.00800           0
     36654 TIP3     4112     TIP3     H2       HT       0.417000       1.00800           0
     36655 TIP3     4113     TIP3     OH2      OT      -0.834000       15.9994           0
     36656 TIP3     4113     TIP3     H1       HT       0.417000       1.00800           0
     36657 TIP3     4113     TIP3     H2       HT       0.417000       1.00800           0
     36658 TIP3     4114     TIP3     OH2      OT      -0.834000       15.9994           0
     36659 TIP3     4114     TIP3     H1       HT       0.417000       1.00800           0
     36660 TIP3     4114     TIP3     H2       HT       0.417000       1.00800           0
     36661 TIP3     4115     TIP3     OH2      OT      -0.834000       15.9994           0
     36662 TIP3     4115     TIP3     H1       HT       0.417000       1.00800           0
     36663 TIP3     4115     TIP3     H2       HT       0.417000       1.00800           0
     36664 TIP3     4116     TIP3     OH2      OT      -0.834000       15.9994           0
     36665 TIP3     4116     TIP3     H1       HT       0.417000       1.00800           0
     36666 TIP3     4116     TIP3     H2       HT       0.417000       1.00800           0
     36667 TIP3     4117     TIP3     OH2      OT      -0.834000       15.9994           0
     36668 TIP3     4117     TIP3     H1       HT       0.417000       1.00800           0
     36669 TIP3     4117     TIP3     H2       HT       0.417000       1.00800           0
     36670 TIP3     4118     TIP3     OH2      OT      -0.834000       15.9994           0
     36671 TIP3     4118     TIP3     H1       HT       0.417000       1.00800           0
     36672 TIP3     4118     TIP3     H2       HT       0.417000       1.00800           0
     36673 TIP3     4119     TIP3     OH2      OT      -0.834000       15.9994           0
     36674 TIP3     4119     TIP3     H1       HT       0.417000       1.00800           0
     36675 TIP3     4119     TIP3     H2       HT       0.417000       1.00800           0
     36676 TIP3     4120     TIP3     OH2      OT      -0.834000       15.9994           0
     36677 TIP3     4120     TIP3     H1       HT       0.417000       1.00800           0
     36678 TIP3     4120     TIP3     H2       HT       0.417000       1.00800           0
     36679 TIP3     4121     TIP3     OH2      OT      -0.834000       15.9994           0
     36680 TIP3     4121     TIP3     H1       HT       0.417000       1.00800           0
     36681 TIP3     4121     TIP3     H2       HT       0.417000       1.00800           0
     36682 TIP3     4122     TIP3     OH2      OT      -0.834000       15.9994           0
     36683 TIP3     4122     TIP3     H1       HT       0.417000       1.00800           0
     36684 TIP3     4122     TIP3     H2       HT       0.417000       1.00800           0
     36685 TIP3     4123     TIP3     OH2      OT      -0.834000       15.9994           0
     36686 TIP3     4123     TIP3     H1       HT       0.417000       1.00800           0
     36687 TIP3     4123     TIP3     H2       HT       0.417000       1.00800           0
     36688 TIP3     4124     TIP3     OH2      OT      -0.834000       15.9994           0
     36689 TIP3     4124     TIP3     H1       HT       0.417000       1.00800           0
     36690 TIP3     4124     TIP3     H2       HT       0.417000       1.00800           0
     36691 TIP3     4125     TIP3     OH2      OT      -0.834000       15.9994           0
     36692 TIP3     4125     TIP3     H1       HT       0.417000       1.00800           0
     36693 TIP3     4125     TIP3     H2       HT       0.417000       1.00800           0
     36694 TIP3     4126     TIP3     OH2      OT      -0.834000       15.9994           0
     36695 TIP3     4126     TIP3     H1       HT       0.417000       1.00800           0
     36696 TIP3     4126     TIP3     H2       HT       0.417000       1.00800           0
     36697 TIP3     4127     TIP3     OH2      OT      -0.834000       15.9994           0
     36698 TIP3     4127     TIP3     H1       HT       0.417000       1.00800           0
     36699 TIP3     4127     TIP3     H2       HT       0.417000       1.00800           0
     36700 TIP3     4128     TIP3     OH2      OT      -0.834000       15.9994           0
     36701 TIP3     4128     TIP3     H1       HT       0.417000       1.00800           0
     36702 TIP3     4128     TIP3     H2       HT       0.417000       1.00800           0
     36703 TIP3     4129     TIP3     OH2      OT      -0.834000       15.9994           0
     36704 TIP3     4129     TIP3     H1       HT       0.417000       1.00800           0
     36705 TIP3     4129     TIP3     H2       HT       0.417000       1.00800           0
     36706 TIP3     4130     TIP3     OH2      OT      -0.834000       15.9994           0
     36707 TIP3     4130     TIP3     H1       HT       0.417000       1.00800           0
     36708 TIP3     4130     TIP3     H2       HT       0.417000       1.00800           0
     36709 TIP3     4131     TIP3     OH2      OT      -0.834000       15.9994           0
     36710 TIP3     4131     TIP3     H1       HT       0.417000       1.00800           0
     36711 TIP3     4131     TIP3     H2       HT       0.417000       1.00800           0
     36712 TIP3     4132     TIP3     OH2      OT      -0.834000       15.9994           0
     36713 TIP3     4132     TIP3     H1       HT       0.417000       1.00800           0
     36714 TIP3     4132     TIP3     H2       HT       0.417000       1.00800           0
     36715 TIP3     4133     TIP3     OH2      OT      -0.834000       15.9994           0
     36716 TIP3     4133     TIP3     H1       HT       0.417000       1.00800           0
     36717 TIP3     4133     TIP3     H2       HT       0.417000       1.00800           0
     36718 TIP3     4134     TIP3     OH2      OT      -0.834000       15.9994           0
     36719 TIP3     4134     TIP3     H1       HT       0.417000       1.00800           0
     36720 TIP3     4134     TIP3     H2       HT       0.417000       1.00800           0
     36721 TIP3     4135     TIP3     OH2      OT      -0.834000       15.9994           0
     36722 TIP3     4135     TIP3     H1       HT       0.417000       1.00800           0
     36723 TIP3     4135     TIP3     H2       HT       0.417000       1.00800           0
     36724 TIP3     4136     TIP3     OH2      OT      -0.834000       15.9994           0
     36725 TIP3     4136     TIP3     H1       HT       0.417000       1.00800           0
     36726 TIP3     4136     TIP3     H2       HT       0.417000       1.00800           0
     36727 TIP3     4137     TIP3     OH2      OT      -0.834000       15.9994           0
     36728 TIP3     4137     TIP3     H1       HT       0.417000       1.00800           0
     36729 TIP3     4137     TIP3     H2       HT       0.417000       1.00800           0
     36730 TIP3     4138     TIP3     OH2      OT      -0.834000       15.9994           0
     36731 TIP3     4138     TIP3     H1       HT       0.417000       1.00800           0
     36732 TIP3     4138     TIP3     H2       HT       0.417000       1.00800           0
     36733 TIP3     4139     TIP3     OH2      OT      -0.834000       15.9994           0
     36734 TIP3     4139     TIP3     H1       HT       0.417000       1.00800           0
     36735 TIP3     4139     TIP3     H2       HT       0.417000       1.00800           0
     36736 TIP3     4140     TIP3     OH2      OT      -0.834000       15.9994           0
     36737 TIP3     4140     TIP3     H1       HT       0.417000       1.00800           0
     36738 TIP3     4140     TIP3     H2       HT       0.417000       1.00800           0
     36739 TIP3     4141     TIP3     OH2      OT      -0.834000       15.9994           0
     36740 TIP3     4141     TIP3     H1       HT       0.417000       1.00800           0
     36741 TIP3     4141     TIP3     H2       HT       0.417000       1.00800           0
     36742 TIP3     4142     TIP3     OH2      OT      -0.834000       15.9994           0
     36743 TIP3     4142     TIP3     H1       HT       0.417000       1.00800           0
     36744 TIP3     4142     TIP3     H2       HT       0.417000       1.00800           0
     36745 TIP3     4143     TIP3     OH2      OT      -0.834000       15.9994           0
     36746 TIP3     4143     TIP3     H1       HT       0.417000       1.00800           0
     36747 TIP3     4143     TIP3     H2       HT       0.417000       1.00800           0
     36748 TIP3     4144     TIP3     OH2      OT      -0.834000       15.9994           0
     36749 TIP3     4144     TIP3     H1       HT       0.417000       1.00800           0
     36750 TIP3     4144     TIP3     H2       HT       0.417000       1.00800           0
     36751 TIP3     4145     TIP3     OH2      OT      -0.834000       15.9994           0
     36752 TIP3     4145     TIP3     H1       HT       0.417000       1.00800           0
     36753 TIP3     4145     TIP3     H2       HT       0.417000       1.00800           0
     36754 TIP3     4146     TIP3     OH2      OT      -0.834000       15.9994           0
     36755 TIP3     4146     TIP3     H1       HT       0.417000       1.00800           0
     36756 TIP3     4146     TIP3     H2       HT       0.417000       1.00800           0
     36757 TIP3     4147     TIP3     OH2      OT      -0.834000       15.9994           0
     36758 TIP3     4147     TIP3     H1       HT       0.417000       1.00800           0
     36759 TIP3     4147     TIP3     H2       HT       0.417000       1.00800           0
     36760 TIP3     4148     TIP3     OH2      OT      -0.834000       15.9994           0
     36761 TIP3     4148     TIP3     H1       HT       0.417000       1.00800           0
     36762 TIP3     4148     TIP3     H2       HT       0.417000       1.00800           0
     36763 TIP3     4149     TIP3     OH2      OT      -0.834000       15.9994           0
     36764 TIP3     4149     TIP3     H1       HT       0.417000       1.00800           0
     36765 TIP3     4149     TIP3     H2       HT       0.417000       1.00800           0
     36766 TIP3     4150     TIP3     OH2      OT      -0.834000       15.9994           0
     36767 TIP3     4150     TIP3     H1       HT       0.417000       1.00800           0
     36768 TIP3     4150     TIP3     H2       HT       0.417000       1.00800           0
     36769 TIP3     4151     TIP3     OH2      OT      -0.834000       15.9994           0
     36770 TIP3     4151     TIP3     H1       HT       0.417000       1.00800           0
     36771 TIP3     4151     TIP3     H2       HT       0.417000       1.00800           0
     36772 TIP3     4152     TIP3     OH2      OT      -0.834000       15.9994           0
     36773 TIP3     4152     TIP3     H1       HT       0.417000       1.00800           0
     36774 TIP3     4152     TIP3     H2       HT       0.417000       1.00800           0
     36775 TIP3     4153     TIP3     OH2      OT      -0.834000       15.9994           0
     36776 TIP3     4153     TIP3     H1       HT       0.417000       1.00800           0
     36777 TIP3     4153     TIP3     H2       HT       0.417000       1.00800           0
     36778 TIP3     4154     TIP3     OH2      OT      -0.834000       15.9994           0
     36779 TIP3     4154     TIP3     H1       HT       0.417000       1.00800           0
     36780 TIP3     4154     TIP3     H2       HT       0.417000       1.00800           0
     36781 TIP3     4155     TIP3     OH2      OT      -0.834000       15.9994           0
     36782 TIP3     4155     TIP3     H1       HT       0.417000       1.00800           0
     36783 TIP3     4155     TIP3     H2       HT       0.417000       1.00800           0
     36784 TIP3     4156     TIP3     OH2      OT      -0.834000       15.9994           0
     36785 TIP3     4156     TIP3     H1       HT       0.417000       1.00800           0
     36786 TIP3     4156     TIP3     H2       HT       0.417000       1.00800           0
     36787 TIP3     4157     TIP3     OH2      OT      -0.834000       15.9994           0
     36788 TIP3     4157     TIP3     H1       HT       0.417000       1.00800           0
     36789 TIP3     4157     TIP3     H2       HT       0.417000       1.00800           0
     36790 TIP3     4158     TIP3     OH2      OT      -0.834000       15.9994           0
     36791 TIP3     4158     TIP3     H1       HT       0.417000       1.00800           0
     36792 TIP3     4158     TIP3     H2       HT       0.417000       1.00800           0
     36793 TIP3     4159     TIP3     OH2      OT      -0.834000       15.9994           0
     36794 TIP3     4159     TIP3     H1       HT       0.417000       1.00800           0
     36795 TIP3     4159     TIP3     H2       HT       0.417000       1.00800           0
     36796 TIP3     4160     TIP3     OH2      OT      -0.834000       15.9994           0
     36797 TIP3     4160     TIP3     H1       HT       0.417000       1.00800           0
     36798 TIP3     4160     TIP3     H2       HT       0.417000       1.00800           0
     36799 TIP3     4161     TIP3     OH2      OT      -0.834000       15.9994           0
     36800 TIP3     4161     TIP3     H1       HT       0.417000       1.00800           0
     36801 TIP3     4161     TIP3     H2       HT       0.417000       1.00800           0
     36802 TIP3     4162     TIP3     OH2      OT      -0.834000       15.9994           0
     36803 TIP3     4162     TIP3     H1       HT       0.417000       1.00800           0
     36804 TIP3     4162     TIP3     H2       HT       0.417000       1.00800           0
     36805 TIP3     4163     TIP3     OH2      OT      -0.834000       15.9994           0
     36806 TIP3     4163     TIP3     H1       HT       0.417000       1.00800           0
     36807 TIP3     4163     TIP3     H2       HT       0.417000       1.00800           0
     36808 TIP3     4164     TIP3     OH2      OT      -0.834000       15.9994           0
     36809 TIP3     4164     TIP3     H1       HT       0.417000       1.00800           0
     36810 TIP3     4164     TIP3     H2       HT       0.417000       1.00800           0
     36811 TIP3     4165     TIP3     OH2      OT      -0.834000       15.9994           0
     36812 TIP3     4165     TIP3     H1       HT       0.417000       1.00800           0
     36813 TIP3     4165     TIP3     H2       HT       0.417000       1.00800           0
     36814 TIP3     4166     TIP3     OH2      OT      -0.834000       15.9994           0
     36815 TIP3     4166     TIP3     H1       HT       0.417000       1.00800           0
     36816 TIP3     4166     TIP3     H2       HT       0.417000       1.00800           0
     36817 TIP3     4167     TIP3     OH2      OT      -0.834000       15.9994           0
     36818 TIP3     4167     TIP3     H1       HT       0.417000       1.00800           0
     36819 TIP3     4167     TIP3     H2       HT       0.417000       1.00800           0
     36820 TIP3     4168     TIP3     OH2      OT      -0.834000       15.9994           0
     36821 TIP3     4168     TIP3     H1       HT       0.417000       1.00800           0
     36822 TIP3     4168     TIP3     H2       HT       0.417000       1.00800           0
     36823 TIP3     4169     TIP3     OH2      OT      -0.834000       15.9994           0
     36824 TIP3     4169     TIP3     H1       HT       0.417000       1.00800           0
     36825 TIP3     4169     TIP3     H2       HT       0.417000       1.00800           0
     36826 TIP3     4170     TIP3     OH2      OT      -0.834000       15.9994           0
     36827 TIP3     4170     TIP3     H1       HT       0.417000       1.00800           0
     36828 TIP3     4170     TIP3     H2       HT       0.417000       1.00800           0
     36829 TIP3     4171     TIP3     OH2      OT      -0.834000       15.9994           0
     36830 TIP3     4171     TIP3     H1       HT       0.417000       1.00800           0
     36831 TIP3     4171     TIP3     H2       HT       0.417000       1.00800           0
     36832 TIP3     4172     TIP3     OH2      OT      -0.834000       15.9994           0
     36833 TIP3     4172     TIP3     H1       HT       0.417000       1.00800           0
     36834 TIP3     4172     TIP3     H2       HT       0.417000       1.00800           0
     36835 TIP3     4173     TIP3     OH2      OT      -0.834000       15.9994           0
     36836 TIP3     4173     TIP3     H1       HT       0.417000       1.00800           0
     36837 TIP3     4173     TIP3     H2       HT       0.417000       1.00800           0
     36838 TIP3     4174     TIP3     OH2      OT      -0.834000       15.9994           0
     36839 TIP3     4174     TIP3     H1       HT       0.417000       1.00800           0
     36840 TIP3     4174     TIP3     H2       HT       0.417000       1.00800           0
     36841 TIP3     4175     TIP3     OH2      OT      -0.834000       15.9994           0
     36842 TIP3     4175     TIP3     H1       HT       0.417000       1.00800           0
     36843 TIP3     4175     TIP3     H2       HT       0.417000       1.00800           0
     36844 TIP3     4176     TIP3     OH2      OT      -0.834000       15.9994           0
     36845 TIP3     4176     TIP3     H1       HT       0.417000       1.00800           0
     36846 TIP3     4176     TIP3     H2       HT       0.417000       1.00800           0
     36847 TIP3     4177     TIP3     OH2      OT      -0.834000       15.9994           0
     36848 TIP3     4177     TIP3     H1       HT       0.417000       1.00800           0
     36849 TIP3     4177     TIP3     H2       HT       0.417000       1.00800           0
     36850 TIP3     4178     TIP3     OH2      OT      -0.834000       15.9994           0
     36851 TIP3     4178     TIP3     H1       HT       0.417000       1.00800           0
     36852 TIP3     4178     TIP3     H2       HT       0.417000       1.00800           0
     36853 TIP3     4179     TIP3     OH2      OT      -0.834000       15.9994           0
     36854 TIP3     4179     TIP3     H1       HT       0.417000       1.00800           0
     36855 TIP3     4179     TIP3     H2       HT       0.417000       1.00800           0
     36856 TIP3     4180     TIP3     OH2      OT      -0.834000       15.9994           0
     36857 TIP3     4180     TIP3     H1       HT       0.417000       1.00800           0
     36858 TIP3     4180     TIP3     H2       HT       0.417000       1.00800           0
     36859 TIP3     4181     TIP3     OH2      OT      -0.834000       15.9994           0
     36860 TIP3     4181     TIP3     H1       HT       0.417000       1.00800           0
     36861 TIP3     4181     TIP3     H2       HT       0.417000       1.00800           0
     36862 TIP3     4182     TIP3     OH2      OT      -0.834000       15.9994           0
     36863 TIP3     4182     TIP3     H1       HT       0.417000       1.00800           0
     36864 TIP3     4182     TIP3     H2       HT       0.417000       1.00800           0
     36865 TIP3     4183     TIP3     OH2      OT      -0.834000       15.9994           0
     36866 TIP3     4183     TIP3     H1       HT       0.417000       1.00800           0
     36867 TIP3     4183     TIP3     H2       HT       0.417000       1.00800           0
     36868 TIP3     4184     TIP3     OH2      OT      -0.834000       15.9994           0
     36869 TIP3     4184     TIP3     H1       HT       0.417000       1.00800           0
     36870 TIP3     4184     TIP3     H2       HT       0.417000       1.00800           0
     36871 TIP3     4185     TIP3     OH2      OT      -0.834000       15.9994           0
     36872 TIP3     4185     TIP3     H1       HT       0.417000       1.00800           0
     36873 TIP3     4185     TIP3     H2       HT       0.417000       1.00800           0
     36874 TIP3     4186     TIP3     OH2      OT      -0.834000       15.9994           0
     36875 TIP3     4186     TIP3     H1       HT       0.417000       1.00800           0
     36876 TIP3     4186     TIP3     H2       HT       0.417000       1.00800           0
     36877 TIP3     4187     TIP3     OH2      OT      -0.834000       15.9994           0
     36878 TIP3     4187     TIP3     H1       HT       0.417000       1.00800           0
     36879 TIP3     4187     TIP3     H2       HT       0.417000       1.00800           0
     36880 TIP3     4188     TIP3     OH2      OT      -0.834000       15.9994           0
     36881 TIP3     4188     TIP3     H1       HT       0.417000       1.00800           0
     36882 TIP3     4188     TIP3     H2       HT       0.417000       1.00800           0
     36883 TIP3     4189     TIP3     OH2      OT      -0.834000       15.9994           0
     36884 TIP3     4189     TIP3     H1       HT       0.417000       1.00800           0
     36885 TIP3     4189     TIP3     H2       HT       0.417000       1.00800           0
     36886 TIP3     4190     TIP3     OH2      OT      -0.834000       15.9994           0
     36887 TIP3     4190     TIP3     H1       HT       0.417000       1.00800           0
     36888 TIP3     4190     TIP3     H2       HT       0.417000       1.00800           0
     36889 TIP3     4191     TIP3     OH2      OT      -0.834000       15.9994           0
     36890 TIP3     4191     TIP3     H1       HT       0.417000       1.00800           0
     36891 TIP3     4191     TIP3     H2       HT       0.417000       1.00800           0
     36892 TIP3     4192     TIP3     OH2      OT      -0.834000       15.9994           0
     36893 TIP3     4192     TIP3     H1       HT       0.417000       1.00800           0
     36894 TIP3     4192     TIP3     H2       HT       0.417000       1.00800           0
     36895 TIP3     4193     TIP3     OH2      OT      -0.834000       15.9994           0
     36896 TIP3     4193     TIP3     H1       HT       0.417000       1.00800           0
     36897 TIP3     4193     TIP3     H2       HT       0.417000       1.00800           0
     36898 TIP3     4194     TIP3     OH2      OT      -0.834000       15.9994           0
     36899 TIP3     4194     TIP3     H1       HT       0.417000       1.00800           0
     36900 TIP3     4194     TIP3     H2       HT       0.417000       1.00800           0
     36901 TIP3     4195     TIP3     OH2      OT      -0.834000       15.9994           0
     36902 TIP3     4195     TIP3     H1       HT       0.417000       1.00800           0
     36903 TIP3     4195     TIP3     H2       HT       0.417000       1.00800           0
     36904 TIP3     4196     TIP3     OH2      OT      -0.834000       15.9994           0
     36905 TIP3     4196     TIP3     H1       HT       0.417000       1.00800           0
     36906 TIP3     4196     TIP3     H2       HT       0.417000       1.00800           0
     36907 TIP3     4197     TIP3     OH2      OT      -0.834000       15.9994           0
     36908 TIP3     4197     TIP3     H1       HT       0.417000       1.00800           0
     36909 TIP3     4197     TIP3     H2       HT       0.417000       1.00800           0
     36910 TIP3     4198     TIP3     OH2      OT      -0.834000       15.9994           0
     36911 TIP3     4198     TIP3     H1       HT       0.417000       1.00800           0
     36912 TIP3     4198     TIP3     H2       HT       0.417000       1.00800           0
     36913 TIP3     4199     TIP3     OH2      OT      -0.834000       15.9994           0
     36914 TIP3     4199     TIP3     H1       HT       0.417000       1.00800           0
     36915 TIP3     4199     TIP3     H2       HT       0.417000       1.00800           0
     36916 TIP3     4200     TIP3     OH2      OT      -0.834000       15.9994           0
     36917 TIP3     4200     TIP3     H1       HT       0.417000       1.00800           0
     36918 TIP3     4200     TIP3     H2       HT       0.417000       1.00800           0
     36919 TIP3     4201     TIP3     OH2      OT      -0.834000       15.9994           0
     36920 TIP3     4201     TIP3     H1       HT       0.417000       1.00800           0
     36921 TIP3     4201     TIP3     H2       HT       0.417000       1.00800           0
     36922 TIP3     4202     TIP3     OH2      OT      -0.834000       15.9994           0
     36923 TIP3     4202     TIP3     H1       HT       0.417000       1.00800           0
     36924 TIP3     4202     TIP3     H2       HT       0.417000       1.00800           0
     36925 TIP3     4203     TIP3     OH2      OT      -0.834000       15.9994           0
     36926 TIP3     4203     TIP3     H1       HT       0.417000       1.00800           0
     36927 TIP3     4203     TIP3     H2       HT       0.417000       1.00800           0
     36928 TIP3     4204     TIP3     OH2      OT      -0.834000       15.9994           0
     36929 TIP3     4204     TIP3     H1       HT       0.417000       1.00800           0
     36930 TIP3     4204     TIP3     H2       HT       0.417000       1.00800           0
     36931 TIP3     4205     TIP3     OH2      OT      -0.834000       15.9994           0
     36932 TIP3     4205     TIP3     H1       HT       0.417000       1.00800           0
     36933 TIP3     4205     TIP3     H2       HT       0.417000       1.00800           0
     36934 TIP3     4206     TIP3     OH2      OT      -0.834000       15.9994           0
     36935 TIP3     4206     TIP3     H1       HT       0.417000       1.00800           0
     36936 TIP3     4206     TIP3     H2       HT       0.417000       1.00800           0
     36937 TIP3     4207     TIP3     OH2      OT      -0.834000       15.9994           0
     36938 TIP3     4207     TIP3     H1       HT       0.417000       1.00800           0
     36939 TIP3     4207     TIP3     H2       HT       0.417000       1.00800           0
     36940 TIP3     4208     TIP3     OH2      OT      -0.834000       15.9994           0
     36941 TIP3     4208     TIP3     H1       HT       0.417000       1.00800           0
     36942 TIP3     4208     TIP3     H2       HT       0.417000       1.00800           0
     36943 TIP3     4209     TIP3     OH2      OT      -0.834000       15.9994           0
     36944 TIP3     4209     TIP3     H1       HT       0.417000       1.00800           0
     36945 TIP3     4209     TIP3     H2       HT       0.417000       1.00800           0
     36946 TIP3     4210     TIP3     OH2      OT      -0.834000       15.9994           0
     36947 TIP3     4210     TIP3     H1       HT       0.417000       1.00800           0
     36948 TIP3     4210     TIP3     H2       HT       0.417000       1.00800           0
     36949 TIP3     4211     TIP3     OH2      OT      -0.834000       15.9994           0
     36950 TIP3     4211     TIP3     H1       HT       0.417000       1.00800           0
     36951 TIP3     4211     TIP3     H2       HT       0.417000       1.00800           0
     36952 TIP3     4212     TIP3     OH2      OT      -0.834000       15.9994           0
     36953 TIP3     4212     TIP3     H1       HT       0.417000       1.00800           0
     36954 TIP3     4212     TIP3     H2       HT       0.417000       1.00800           0
     36955 TIP3     4213     TIP3     OH2      OT      -0.834000       15.9994           0
     36956 TIP3     4213     TIP3     H1       HT       0.417000       1.00800           0
     36957 TIP3     4213     TIP3     H2       HT       0.417000       1.00800           0
     36958 TIP3     4214     TIP3     OH2      OT      -0.834000       15.9994           0
     36959 TIP3     4214     TIP3     H1       HT       0.417000       1.00800           0
     36960 TIP3     4214     TIP3     H2       HT       0.417000       1.00800           0
     36961 TIP3     4215     TIP3     OH2      OT      -0.834000       15.9994           0
     36962 TIP3     4215     TIP3     H1       HT       0.417000       1.00800           0
     36963 TIP3     4215     TIP3     H2       HT       0.417000       1.00800           0
     36964 TIP3     4216     TIP3     OH2      OT      -0.834000       15.9994           0
     36965 TIP3     4216     TIP3     H1       HT       0.417000       1.00800           0
     36966 TIP3     4216     TIP3     H2       HT       0.417000       1.00800           0
     36967 TIP3     4217     TIP3     OH2      OT      -0.834000       15.9994           0
     36968 TIP3     4217     TIP3     H1       HT       0.417000       1.00800           0
     36969 TIP3     4217     TIP3     H2       HT       0.417000       1.00800           0
     36970 TIP3     4218     TIP3     OH2      OT      -0.834000       15.9994           0
     36971 TIP3     4218     TIP3     H1       HT       0.417000       1.00800           0
     36972 TIP3     4218     TIP3     H2       HT       0.417000       1.00800           0
     36973 TIP3     4219     TIP3     OH2      OT      -0.834000       15.9994           0
     36974 TIP3     4219     TIP3     H1       HT       0.417000       1.00800           0
     36975 TIP3     4219     TIP3     H2       HT       0.417000       1.00800           0
     36976 TIP3     4220     TIP3     OH2      OT      -0.834000       15.9994           0
     36977 TIP3     4220     TIP3     H1       HT       0.417000       1.00800           0
     36978 TIP3     4220     TIP3     H2       HT       0.417000       1.00800           0
     36979 TIP3     4221     TIP3     OH2      OT      -0.834000       15.9994           0
     36980 TIP3     4221     TIP3     H1       HT       0.417000       1.00800           0
     36981 TIP3     4221     TIP3     H2       HT       0.417000       1.00800           0
     36982 TIP3     4222     TIP3     OH2      OT      -0.834000       15.9994           0
     36983 TIP3     4222     TIP3     H1       HT       0.417000       1.00800           0
     36984 TIP3     4222     TIP3     H2       HT       0.417000       1.00800           0
     36985 TIP3     4223     TIP3     OH2      OT      -0.834000       15.9994           0
     36986 TIP3     4223     TIP3     H1       HT       0.417000       1.00800           0
     36987 TIP3     4223     TIP3     H2       HT       0.417000       1.00800           0
     36988 TIP3     4224     TIP3     OH2      OT      -0.834000       15.9994           0
     36989 TIP3     4224     TIP3     H1       HT       0.417000       1.00800           0
     36990 TIP3     4224     TIP3     H2       HT       0.417000       1.00800           0
     36991 TIP3     4225     TIP3     OH2      OT      -0.834000       15.9994           0
     36992 TIP3     4225     TIP3     H1       HT       0.417000       1.00800           0
     36993 TIP3     4225     TIP3     H2       HT       0.417000       1.00800           0
     36994 TIP3     4226     TIP3     OH2      OT      -0.834000       15.9994           0
     36995 TIP3     4226     TIP3     H1       HT       0.417000       1.00800           0
     36996 TIP3     4226     TIP3     H2       HT       0.417000       1.00800           0
     36997 TIP3     4227     TIP3     OH2      OT      -0.834000       15.9994           0
     36998 TIP3     4227     TIP3     H1       HT       0.417000       1.00800           0
     36999 TIP3     4227     TIP3     H2       HT       0.417000       1.00800           0
     37000 TIP3     4228     TIP3     OH2      OT      -0.834000       15.9994           0
     37001 TIP3     4228     TIP3     H1       HT       0.417000       1.00800           0
     37002 TIP3     4228     TIP3     H2       HT       0.417000       1.00800           0
     37003 TIP3     4229     TIP3     OH2      OT      -0.834000       15.9994           0
     37004 TIP3     4229     TIP3     H1       HT       0.417000       1.00800           0
     37005 TIP3     4229     TIP3     H2       HT       0.417000       1.00800           0
     37006 TIP3     4230     TIP3     OH2      OT      -0.834000       15.9994           0
     37007 TIP3     4230     TIP3     H1       HT       0.417000       1.00800           0
     37008 TIP3     4230     TIP3     H2       HT       0.417000       1.00800           0
     37009 TIP3     4231     TIP3     OH2      OT      -0.834000       15.9994           0
     37010 TIP3     4231     TIP3     H1       HT       0.417000       1.00800           0
     37011 TIP3     4231     TIP3     H2       HT       0.417000       1.00800           0
     37012 TIP3     4232     TIP3     OH2      OT      -0.834000       15.9994           0
     37013 TIP3     4232     TIP3     H1       HT       0.417000       1.00800           0
     37014 TIP3     4232     TIP3     H2       HT       0.417000       1.00800           0
     37015 TIP3     4233     TIP3     OH2      OT      -0.834000       15.9994           0
     37016 TIP3     4233     TIP3     H1       HT       0.417000       1.00800           0
     37017 TIP3     4233     TIP3     H2       HT       0.417000       1.00800           0
     37018 TIP3     4234     TIP3     OH2      OT      -0.834000       15.9994           0
     37019 TIP3     4234     TIP3     H1       HT       0.417000       1.00800           0
     37020 TIP3     4234     TIP3     H2       HT       0.417000       1.00800           0
     37021 TIP3     4235     TIP3     OH2      OT      -0.834000       15.9994           0
     37022 TIP3     4235     TIP3     H1       HT       0.417000       1.00800           0
     37023 TIP3     4235     TIP3     H2       HT       0.417000       1.00800           0
     37024 TIP3     4236     TIP3     OH2      OT      -0.834000       15.9994           0
     37025 TIP3     4236     TIP3     H1       HT       0.417000       1.00800           0
     37026 TIP3     4236     TIP3     H2       HT       0.417000       1.00800           0
     37027 TIP3     4237     TIP3     OH2      OT      -0.834000       15.9994           0
     37028 TIP3     4237     TIP3     H1       HT       0.417000       1.00800           0
     37029 TIP3     4237     TIP3     H2       HT       0.417000       1.00800           0
     37030 TIP3     4238     TIP3     OH2      OT      -0.834000       15.9994           0
     37031 TIP3     4238     TIP3     H1       HT       0.417000       1.00800           0
     37032 TIP3     4238     TIP3     H2       HT       0.417000       1.00800           0
     37033 TIP3     4239     TIP3     OH2      OT      -0.834000       15.9994           0
     37034 TIP3     4239     TIP3     H1       HT       0.417000       1.00800           0
     37035 TIP3     4239     TIP3     H2       HT       0.417000       1.00800           0
     37036 TIP3     4240     TIP3     OH2      OT      -0.834000       15.9994           0
     37037 TIP3     4240     TIP3     H1       HT       0.417000       1.00800           0
     37038 TIP3     4240     TIP3     H2       HT       0.417000       1.00800           0
     37039 TIP3     4241     TIP3     OH2      OT      -0.834000       15.9994           0
     37040 TIP3     4241     TIP3     H1       HT       0.417000       1.00800           0
     37041 TIP3     4241     TIP3     H2       HT       0.417000       1.00800           0
     37042 TIP3     4242     TIP3     OH2      OT      -0.834000       15.9994           0
     37043 TIP3     4242     TIP3     H1       HT       0.417000       1.00800           0
     37044 TIP3     4242     TIP3     H2       HT       0.417000       1.00800           0
     37045 TIP3     4243     TIP3     OH2      OT      -0.834000       15.9994           0
     37046 TIP3     4243     TIP3     H1       HT       0.417000       1.00800           0
     37047 TIP3     4243     TIP3     H2       HT       0.417000       1.00800           0
     37048 TIP3     4244     TIP3     OH2      OT      -0.834000       15.9994           0
     37049 TIP3     4244     TIP3     H1       HT       0.417000       1.00800           0
     37050 TIP3     4244     TIP3     H2       HT       0.417000       1.00800           0
     37051 TIP3     4245     TIP3     OH2      OT      -0.834000       15.9994           0
     37052 TIP3     4245     TIP3     H1       HT       0.417000       1.00800           0
     37053 TIP3     4245     TIP3     H2       HT       0.417000       1.00800           0
     37054 TIP3     4246     TIP3     OH2      OT      -0.834000       15.9994           0
     37055 TIP3     4246     TIP3     H1       HT       0.417000       1.00800           0
     37056 TIP3     4246     TIP3     H2       HT       0.417000       1.00800           0
     37057 TIP3     4247     TIP3     OH2      OT      -0.834000       15.9994           0
     37058 TIP3     4247     TIP3     H1       HT       0.417000       1.00800           0
     37059 TIP3     4247     TIP3     H2       HT       0.417000       1.00800           0
     37060 TIP3     4248     TIP3     OH2      OT      -0.834000       15.9994           0
     37061 TIP3     4248     TIP3     H1       HT       0.417000       1.00800           0
     37062 TIP3     4248     TIP3     H2       HT       0.417000       1.00800           0
     37063 TIP3     4249     TIP3     OH2      OT      -0.834000       15.9994           0
     37064 TIP3     4249     TIP3     H1       HT       0.417000       1.00800           0
     37065 TIP3     4249     TIP3     H2       HT       0.417000       1.00800           0
     37066 TIP3     4250     TIP3     OH2      OT      -0.834000       15.9994           0
     37067 TIP3     4250     TIP3     H1       HT       0.417000       1.00800           0
     37068 TIP3     4250     TIP3     H2       HT       0.417000       1.00800           0
     37069 TIP3     4251     TIP3     OH2      OT      -0.834000       15.9994           0
     37070 TIP3     4251     TIP3     H1       HT       0.417000       1.00800           0
     37071 TIP3     4251     TIP3     H2       HT       0.417000       1.00800           0
     37072 TIP3     4252     TIP3     OH2      OT      -0.834000       15.9994           0
     37073 TIP3     4252     TIP3     H1       HT       0.417000       1.00800           0
     37074 TIP3     4252     TIP3     H2       HT       0.417000       1.00800           0
     37075 TIP3     4253     TIP3     OH2      OT      -0.834000       15.9994           0
     37076 TIP3     4253     TIP3     H1       HT       0.417000       1.00800           0
     37077 TIP3     4253     TIP3     H2       HT       0.417000       1.00800           0
     37078 TIP3     4254     TIP3     OH2      OT      -0.834000       15.9994           0
     37079 TIP3     4254     TIP3     H1       HT       0.417000       1.00800           0
     37080 TIP3     4254     TIP3     H2       HT       0.417000       1.00800           0
     37081 TIP3     4255     TIP3     OH2      OT      -0.834000       15.9994           0
     37082 TIP3     4255     TIP3     H1       HT       0.417000       1.00800           0
     37083 TIP3     4255     TIP3     H2       HT       0.417000       1.00800           0
     37084 TIP3     4256     TIP3     OH2      OT      -0.834000       15.9994           0
     37085 TIP3     4256     TIP3     H1       HT       0.417000       1.00800           0
     37086 TIP3     4256     TIP3     H2       HT       0.417000       1.00800           0
     37087 TIP3     4257     TIP3     OH2      OT      -0.834000       15.9994           0
     37088 TIP3     4257     TIP3     H1       HT       0.417000       1.00800           0
     37089 TIP3     4257     TIP3     H2       HT       0.417000       1.00800           0
     37090 TIP3     4258     TIP3     OH2      OT      -0.834000       15.9994           0
     37091 TIP3     4258     TIP3     H1       HT       0.417000       1.00800           0
     37092 TIP3     4258     TIP3     H2       HT       0.417000       1.00800           0
     37093 TIP3     4259     TIP3     OH2      OT      -0.834000       15.9994           0
     37094 TIP3     4259     TIP3     H1       HT       0.417000       1.00800           0
     37095 TIP3     4259     TIP3     H2       HT       0.417000       1.00800           0
     37096 TIP3     4260     TIP3     OH2      OT      -0.834000       15.9994           0
     37097 TIP3     4260     TIP3     H1       HT       0.417000       1.00800           0
     37098 TIP3     4260     TIP3     H2       HT       0.417000       1.00800           0
     37099 TIP3     4261     TIP3     OH2      OT      -0.834000       15.9994           0
     37100 TIP3     4261     TIP3     H1       HT       0.417000       1.00800           0
     37101 TIP3     4261     TIP3     H2       HT       0.417000       1.00800           0
     37102 TIP3     4262     TIP3     OH2      OT      -0.834000       15.9994           0
     37103 TIP3     4262     TIP3     H1       HT       0.417000       1.00800           0
     37104 TIP3     4262     TIP3     H2       HT       0.417000       1.00800           0
     37105 TIP3     4263     TIP3     OH2      OT      -0.834000       15.9994           0
     37106 TIP3     4263     TIP3     H1       HT       0.417000       1.00800           0
     37107 TIP3     4263     TIP3     H2       HT       0.417000       1.00800           0
     37108 TIP3     4264     TIP3     OH2      OT      -0.834000       15.9994           0
     37109 TIP3     4264     TIP3     H1       HT       0.417000       1.00800           0
     37110 TIP3     4264     TIP3     H2       HT       0.417000       1.00800           0
     37111 TIP3     4265     TIP3     OH2      OT      -0.834000       15.9994           0
     37112 TIP3     4265     TIP3     H1       HT       0.417000       1.00800           0
     37113 TIP3     4265     TIP3     H2       HT       0.417000       1.00800           0
     37114 TIP3     4266     TIP3     OH2      OT      -0.834000       15.9994           0
     37115 TIP3     4266     TIP3     H1       HT       0.417000       1.00800           0
     37116 TIP3     4266     TIP3     H2       HT       0.417000       1.00800           0
     37117 TIP3     4267     TIP3     OH2      OT      -0.834000       15.9994           0
     37118 TIP3     4267     TIP3     H1       HT       0.417000       1.00800           0
     37119 TIP3     4267     TIP3     H2       HT       0.417000       1.00800           0
     37120 TIP3     4268     TIP3     OH2      OT      -0.834000       15.9994           0
     37121 TIP3     4268     TIP3     H1       HT       0.417000       1.00800           0
     37122 TIP3     4268     TIP3     H2       HT       0.417000       1.00800           0
     37123 TIP3     4269     TIP3     OH2      OT      -0.834000       15.9994           0
     37124 TIP3     4269     TIP3     H1       HT       0.417000       1.00800           0
     37125 TIP3     4269     TIP3     H2       HT       0.417000       1.00800           0
     37126 TIP3     4270     TIP3     OH2      OT      -0.834000       15.9994           0
     37127 TIP3     4270     TIP3     H1       HT       0.417000       1.00800           0
     37128 TIP3     4270     TIP3     H2       HT       0.417000       1.00800           0
     37129 TIP3     4271     TIP3     OH2      OT      -0.834000       15.9994           0
     37130 TIP3     4271     TIP3     H1       HT       0.417000       1.00800           0
     37131 TIP3     4271     TIP3     H2       HT       0.417000       1.00800           0
     37132 TIP3     4272     TIP3     OH2      OT      -0.834000       15.9994           0
     37133 TIP3     4272     TIP3     H1       HT       0.417000       1.00800           0
     37134 TIP3     4272     TIP3     H2       HT       0.417000       1.00800           0
     37135 TIP3     4273     TIP3     OH2      OT      -0.834000       15.9994           0
     37136 TIP3     4273     TIP3     H1       HT       0.417000       1.00800           0
     37137 TIP3     4273     TIP3     H2       HT       0.417000       1.00800           0
     37138 TIP3     4274     TIP3     OH2      OT      -0.834000       15.9994           0
     37139 TIP3     4274     TIP3     H1       HT       0.417000       1.00800           0
     37140 TIP3     4274     TIP3     H2       HT       0.417000       1.00800           0
     37141 TIP3     4275     TIP3     OH2      OT      -0.834000       15.9994           0
     37142 TIP3     4275     TIP3     H1       HT       0.417000       1.00800           0
     37143 TIP3     4275     TIP3     H2       HT       0.417000       1.00800           0
     37144 TIP3     4276     TIP3     OH2      OT      -0.834000       15.9994           0
     37145 TIP3     4276     TIP3     H1       HT       0.417000       1.00800           0
     37146 TIP3     4276     TIP3     H2       HT       0.417000       1.00800           0
     37147 TIP3     4277     TIP3     OH2      OT      -0.834000       15.9994           0
     37148 TIP3     4277     TIP3     H1       HT       0.417000       1.00800           0
     37149 TIP3     4277     TIP3     H2       HT       0.417000       1.00800           0
     37150 TIP3     4278     TIP3     OH2      OT      -0.834000       15.9994           0
     37151 TIP3     4278     TIP3     H1       HT       0.417000       1.00800           0
     37152 TIP3     4278     TIP3     H2       HT       0.417000       1.00800           0
     37153 TIP3     4279     TIP3     OH2      OT      -0.834000       15.9994           0
     37154 TIP3     4279     TIP3     H1       HT       0.417000       1.00800           0
     37155 TIP3     4279     TIP3     H2       HT       0.417000       1.00800           0
     37156 TIP3     4280     TIP3     OH2      OT      -0.834000       15.9994           0
     37157 TIP3     4280     TIP3     H1       HT       0.417000       1.00800           0
     37158 TIP3     4280     TIP3     H2       HT       0.417000       1.00800           0
     37159 TIP3     4281     TIP3     OH2      OT      -0.834000       15.9994           0
     37160 TIP3     4281     TIP3     H1       HT       0.417000       1.00800           0
     37161 TIP3     4281     TIP3     H2       HT       0.417000       1.00800           0
     37162 TIP3     4282     TIP3     OH2      OT      -0.834000       15.9994           0
     37163 TIP3     4282     TIP3     H1       HT       0.417000       1.00800           0
     37164 TIP3     4282     TIP3     H2       HT       0.417000       1.00800           0
     37165 TIP3     4283     TIP3     OH2      OT      -0.834000       15.9994           0
     37166 TIP3     4283     TIP3     H1       HT       0.417000       1.00800           0
     37167 TIP3     4283     TIP3     H2       HT       0.417000       1.00800           0
     37168 TIP3     4284     TIP3     OH2      OT      -0.834000       15.9994           0
     37169 TIP3     4284     TIP3     H1       HT       0.417000       1.00800           0
     37170 TIP3     4284     TIP3     H2       HT       0.417000       1.00800           0
     37171 TIP3     4285     TIP3     OH2      OT      -0.834000       15.9994           0
     37172 TIP3     4285     TIP3     H1       HT       0.417000       1.00800           0
     37173 TIP3     4285     TIP3     H2       HT       0.417000       1.00800           0
     37174 TIP3     4286     TIP3     OH2      OT      -0.834000       15.9994           0
     37175 TIP3     4286     TIP3     H1       HT       0.417000       1.00800           0
     37176 TIP3     4286     TIP3     H2       HT       0.417000       1.00800           0
     37177 TIP3     4287     TIP3     OH2      OT      -0.834000       15.9994           0
     37178 TIP3     4287     TIP3     H1       HT       0.417000       1.00800           0
     37179 TIP3     4287     TIP3     H2       HT       0.417000       1.00800           0
     37180 TIP3     4288     TIP3     OH2      OT      -0.834000       15.9994           0
     37181 TIP3     4288     TIP3     H1       HT       0.417000       1.00800           0
     37182 TIP3     4288     TIP3     H2       HT       0.417000       1.00800           0
     37183 TIP3     4289     TIP3     OH2      OT      -0.834000       15.9994           0
     37184 TIP3     4289     TIP3     H1       HT       0.417000       1.00800           0
     37185 TIP3     4289     TIP3     H2       HT       0.417000       1.00800           0
     37186 TIP3     4290     TIP3     OH2      OT      -0.834000       15.9994           0
     37187 TIP3     4290     TIP3     H1       HT       0.417000       1.00800           0
     37188 TIP3     4290     TIP3     H2       HT       0.417000       1.00800           0
     37189 TIP3     4291     TIP3     OH2      OT      -0.834000       15.9994           0
     37190 TIP3     4291     TIP3     H1       HT       0.417000       1.00800           0
     37191 TIP3     4291     TIP3     H2       HT       0.417000       1.00800           0
     37192 TIP3     4292     TIP3     OH2      OT      -0.834000       15.9994           0
     37193 TIP3     4292     TIP3     H1       HT       0.417000       1.00800           0
     37194 TIP3     4292     TIP3     H2       HT       0.417000       1.00800           0
     37195 TIP3     4293     TIP3     OH2      OT      -0.834000       15.9994           0
     37196 TIP3     4293     TIP3     H1       HT       0.417000       1.00800           0
     37197 TIP3     4293     TIP3     H2       HT       0.417000       1.00800           0
     37198 TIP3     4294     TIP3     OH2      OT      -0.834000       15.9994           0
     37199 TIP3     4294     TIP3     H1       HT       0.417000       1.00800           0
     37200 TIP3     4294     TIP3     H2       HT       0.417000       1.00800           0
     37201 TIP3     4295     TIP3     OH2      OT      -0.834000       15.9994           0
     37202 TIP3     4295     TIP3     H1       HT       0.417000       1.00800           0
     37203 TIP3     4295     TIP3     H2       HT       0.417000       1.00800           0
     37204 TIP3     4296     TIP3     OH2      OT      -0.834000       15.9994           0
     37205 TIP3     4296     TIP3     H1       HT       0.417000       1.00800           0
     37206 TIP3     4296     TIP3     H2       HT       0.417000       1.00800           0
     37207 TIP3     4297     TIP3     OH2      OT      -0.834000       15.9994           0
     37208 TIP3     4297     TIP3     H1       HT       0.417000       1.00800           0
     37209 TIP3     4297     TIP3     H2       HT       0.417000       1.00800           0
     37210 TIP3     4298     TIP3     OH2      OT      -0.834000       15.9994           0
     37211 TIP3     4298     TIP3     H1       HT       0.417000       1.00800           0
     37212 TIP3     4298     TIP3     H2       HT       0.417000       1.00800           0
     37213 TIP3     4299     TIP3     OH2      OT      -0.834000       15.9994           0
     37214 TIP3     4299     TIP3     H1       HT       0.417000       1.00800           0
     37215 TIP3     4299     TIP3     H2       HT       0.417000       1.00800           0
     37216 TIP3     4300     TIP3     OH2      OT      -0.834000       15.9994           0
     37217 TIP3     4300     TIP3     H1       HT       0.417000       1.00800           0
     37218 TIP3     4300     TIP3     H2       HT       0.417000       1.00800           0
     37219 TIP3     4301     TIP3     OH2      OT      -0.834000       15.9994           0
     37220 TIP3     4301     TIP3     H1       HT       0.417000       1.00800           0
     37221 TIP3     4301     TIP3     H2       HT       0.417000       1.00800           0
     37222 TIP3     4302     TIP3     OH2      OT      -0.834000       15.9994           0
     37223 TIP3     4302     TIP3     H1       HT       0.417000       1.00800           0
     37224 TIP3     4302     TIP3     H2       HT       0.417000       1.00800           0
     37225 TIP3     4303     TIP3     OH2      OT      -0.834000       15.9994           0
     37226 TIP3     4303     TIP3     H1       HT       0.417000       1.00800           0
     37227 TIP3     4303     TIP3     H2       HT       0.417000       1.00800           0
     37228 TIP3     4304     TIP3     OH2      OT      -0.834000       15.9994           0
     37229 TIP3     4304     TIP3     H1       HT       0.417000       1.00800           0
     37230 TIP3     4304     TIP3     H2       HT       0.417000       1.00800           0
     37231 TIP3     4305     TIP3     OH2      OT      -0.834000       15.9994           0
     37232 TIP3     4305     TIP3     H1       HT       0.417000       1.00800           0
     37233 TIP3     4305     TIP3     H2       HT       0.417000       1.00800           0
     37234 TIP3     4306     TIP3     OH2      OT      -0.834000       15.9994           0
     37235 TIP3     4306     TIP3     H1       HT       0.417000       1.00800           0
     37236 TIP3     4306     TIP3     H2       HT       0.417000       1.00800           0
     37237 TIP3     4307     TIP3     OH2      OT      -0.834000       15.9994           0
     37238 TIP3     4307     TIP3     H1       HT       0.417000       1.00800           0
     37239 TIP3     4307     TIP3     H2       HT       0.417000       1.00800           0
     37240 TIP3     4308     TIP3     OH2      OT      -0.834000       15.9994           0
     37241 TIP3     4308     TIP3     H1       HT       0.417000       1.00800           0
     37242 TIP3     4308     TIP3     H2       HT       0.417000       1.00800           0
     37243 TIP3     4309     TIP3     OH2      OT      -0.834000       15.9994           0
     37244 TIP3     4309     TIP3     H1       HT       0.417000       1.00800           0
     37245 TIP3     4309     TIP3     H2       HT       0.417000       1.00800           0
     37246 TIP3     4310     TIP3     OH2      OT      -0.834000       15.9994           0
     37247 TIP3     4310     TIP3     H1       HT       0.417000       1.00800           0
     37248 TIP3     4310     TIP3     H2       HT       0.417000       1.00800           0
     37249 TIP3     4311     TIP3     OH2      OT      -0.834000       15.9994           0
     37250 TIP3     4311     TIP3     H1       HT       0.417000       1.00800           0
     37251 TIP3     4311     TIP3     H2       HT       0.417000       1.00800           0
     37252 TIP3     4312     TIP3     OH2      OT      -0.834000       15.9994           0
     37253 TIP3     4312     TIP3     H1       HT       0.417000       1.00800           0
     37254 TIP3     4312     TIP3     H2       HT       0.417000       1.00800           0
     37255 TIP3     4313     TIP3     OH2      OT      -0.834000       15.9994           0
     37256 TIP3     4313     TIP3     H1       HT       0.417000       1.00800           0
     37257 TIP3     4313     TIP3     H2       HT       0.417000       1.00800           0
     37258 TIP3     4314     TIP3     OH2      OT      -0.834000       15.9994           0
     37259 TIP3     4314     TIP3     H1       HT       0.417000       1.00800           0
     37260 TIP3     4314     TIP3     H2       HT       0.417000       1.00800           0
     37261 TIP3     4315     TIP3     OH2      OT      -0.834000       15.9994           0
     37262 TIP3     4315     TIP3     H1       HT       0.417000       1.00800           0
     37263 TIP3     4315     TIP3     H2       HT       0.417000       1.00800           0
     37264 TIP3     4316     TIP3     OH2      OT      -0.834000       15.9994           0
     37265 TIP3     4316     TIP3     H1       HT       0.417000       1.00800           0
     37266 TIP3     4316     TIP3     H2       HT       0.417000       1.00800           0
     37267 TIP3     4317     TIP3     OH2      OT      -0.834000       15.9994           0
     37268 TIP3     4317     TIP3     H1       HT       0.417000       1.00800           0
     37269 TIP3     4317     TIP3     H2       HT       0.417000       1.00800           0
     37270 TIP3     4318     TIP3     OH2      OT      -0.834000       15.9994           0
     37271 TIP3     4318     TIP3     H1       HT       0.417000       1.00800           0
     37272 TIP3     4318     TIP3     H2       HT       0.417000       1.00800           0
     37273 TIP3     4319     TIP3     OH2      OT      -0.834000       15.9994           0
     37274 TIP3     4319     TIP3     H1       HT       0.417000       1.00800           0
     37275 TIP3     4319     TIP3     H2       HT       0.417000       1.00800           0
     37276 TIP3     4320     TIP3     OH2      OT      -0.834000       15.9994           0
     37277 TIP3     4320     TIP3     H1       HT       0.417000       1.00800           0
     37278 TIP3     4320     TIP3     H2       HT       0.417000       1.00800           0
     37279 TIP3     4321     TIP3     OH2      OT      -0.834000       15.9994           0
     37280 TIP3     4321     TIP3     H1       HT       0.417000       1.00800           0
     37281 TIP3     4321     TIP3     H2       HT       0.417000       1.00800           0
     37282 TIP3     4322     TIP3     OH2      OT      -0.834000       15.9994           0
     37283 TIP3     4322     TIP3     H1       HT       0.417000       1.00800           0
     37284 TIP3     4322     TIP3     H2       HT       0.417000       1.00800           0
     37285 TIP3     4323     TIP3     OH2      OT      -0.834000       15.9994           0
     37286 TIP3     4323     TIP3     H1       HT       0.417000       1.00800           0
     37287 TIP3     4323     TIP3     H2       HT       0.417000       1.00800           0
     37288 TIP3     4324     TIP3     OH2      OT      -0.834000       15.9994           0
     37289 TIP3     4324     TIP3     H1       HT       0.417000       1.00800           0
     37290 TIP3     4324     TIP3     H2       HT       0.417000       1.00800           0
     37291 TIP3     4325     TIP3     OH2      OT      -0.834000       15.9994           0
     37292 TIP3     4325     TIP3     H1       HT       0.417000       1.00800           0
     37293 TIP3     4325     TIP3     H2       HT       0.417000       1.00800           0
     37294 TIP3     4326     TIP3     OH2      OT      -0.834000       15.9994           0
     37295 TIP3     4326     TIP3     H1       HT       0.417000       1.00800           0
     37296 TIP3     4326     TIP3     H2       HT       0.417000       1.00800           0
     37297 TIP3     4327     TIP3     OH2      OT      -0.834000       15.9994           0
     37298 TIP3     4327     TIP3     H1       HT       0.417000       1.00800           0
     37299 TIP3     4327     TIP3     H2       HT       0.417000       1.00800           0
     37300 TIP3     4328     TIP3     OH2      OT      -0.834000       15.9994           0
     37301 TIP3     4328     TIP3     H1       HT       0.417000       1.00800           0
     37302 TIP3     4328     TIP3     H2       HT       0.417000       1.00800           0
     37303 TIP3     4329     TIP3     OH2      OT      -0.834000       15.9994           0
     37304 TIP3     4329     TIP3     H1       HT       0.417000       1.00800           0
     37305 TIP3     4329     TIP3     H2       HT       0.417000       1.00800           0
     37306 TIP3     4330     TIP3     OH2      OT      -0.834000       15.9994           0
     37307 TIP3     4330     TIP3     H1       HT       0.417000       1.00800           0
     37308 TIP3     4330     TIP3     H2       HT       0.417000       1.00800           0
     37309 TIP3     4331     TIP3     OH2      OT      -0.834000       15.9994           0
     37310 TIP3     4331     TIP3     H1       HT       0.417000       1.00800           0
     37311 TIP3     4331     TIP3     H2       HT       0.417000       1.00800           0
     37312 TIP3     4332     TIP3     OH2      OT      -0.834000       15.9994           0
     37313 TIP3     4332     TIP3     H1       HT       0.417000       1.00800           0
     37314 TIP3     4332     TIP3     H2       HT       0.417000       1.00800           0
     37315 TIP3     4333     TIP3     OH2      OT      -0.834000       15.9994           0
     37316 TIP3     4333     TIP3     H1       HT       0.417000       1.00800           0
     37317 TIP3     4333     TIP3     H2       HT       0.417000       1.00800           0
     37318 TIP3     4334     TIP3     OH2      OT      -0.834000       15.9994           0
     37319 TIP3     4334     TIP3     H1       HT       0.417000       1.00800           0
     37320 TIP3     4334     TIP3     H2       HT       0.417000       1.00800           0
     37321 TIP3     4335     TIP3     OH2      OT      -0.834000       15.9994           0
     37322 TIP3     4335     TIP3     H1       HT       0.417000       1.00800           0
     37323 TIP3     4335     TIP3     H2       HT       0.417000       1.00800           0
     37324 TIP3     4336     TIP3     OH2      OT      -0.834000       15.9994           0
     37325 TIP3     4336     TIP3     H1       HT       0.417000       1.00800           0
     37326 TIP3     4336     TIP3     H2       HT       0.417000       1.00800           0
     37327 TIP3     4337     TIP3     OH2      OT      -0.834000       15.9994           0
     37328 TIP3     4337     TIP3     H1       HT       0.417000       1.00800           0
     37329 TIP3     4337     TIP3     H2       HT       0.417000       1.00800           0
     37330 TIP3     4338     TIP3     OH2      OT      -0.834000       15.9994           0
     37331 TIP3     4338     TIP3     H1       HT       0.417000       1.00800           0
     37332 TIP3     4338     TIP3     H2       HT       0.417000       1.00800           0
     37333 TIP3     4339     TIP3     OH2      OT      -0.834000       15.9994           0
     37334 TIP3     4339     TIP3     H1       HT       0.417000       1.00800           0
     37335 TIP3     4339     TIP3     H2       HT       0.417000       1.00800           0
     37336 TIP3     4340     TIP3     OH2      OT      -0.834000       15.9994           0
     37337 TIP3     4340     TIP3     H1       HT       0.417000       1.00800           0
     37338 TIP3     4340     TIP3     H2       HT       0.417000       1.00800           0
     37339 TIP3     4341     TIP3     OH2      OT      -0.834000       15.9994           0
     37340 TIP3     4341     TIP3     H1       HT       0.417000       1.00800           0
     37341 TIP3     4341     TIP3     H2       HT       0.417000       1.00800           0
     37342 TIP3     4342     TIP3     OH2      OT      -0.834000       15.9994           0
     37343 TIP3     4342     TIP3     H1       HT       0.417000       1.00800           0
     37344 TIP3     4342     TIP3     H2       HT       0.417000       1.00800           0
     37345 TIP3     4343     TIP3     OH2      OT      -0.834000       15.9994           0
     37346 TIP3     4343     TIP3     H1       HT       0.417000       1.00800           0
     37347 TIP3     4343     TIP3     H2       HT       0.417000       1.00800           0
     37348 TIP3     4344     TIP3     OH2      OT      -0.834000       15.9994           0
     37349 TIP3     4344     TIP3     H1       HT       0.417000       1.00800           0
     37350 TIP3     4344     TIP3     H2       HT       0.417000       1.00800           0
     37351 TIP3     4345     TIP3     OH2      OT      -0.834000       15.9994           0
     37352 TIP3     4345     TIP3     H1       HT       0.417000       1.00800           0
     37353 TIP3     4345     TIP3     H2       HT       0.417000       1.00800           0
     37354 TIP3     4346     TIP3     OH2      OT      -0.834000       15.9994           0
     37355 TIP3     4346     TIP3     H1       HT       0.417000       1.00800           0
     37356 TIP3     4346     TIP3     H2       HT       0.417000       1.00800           0
     37357 TIP3     4347     TIP3     OH2      OT      -0.834000       15.9994           0
     37358 TIP3     4347     TIP3     H1       HT       0.417000       1.00800           0
     37359 TIP3     4347     TIP3     H2       HT       0.417000       1.00800           0
     37360 TIP3     4348     TIP3     OH2      OT      -0.834000       15.9994           0
     37361 TIP3     4348     TIP3     H1       HT       0.417000       1.00800           0
     37362 TIP3     4348     TIP3     H2       HT       0.417000       1.00800           0
     37363 TIP3     4349     TIP3     OH2      OT      -0.834000       15.9994           0
     37364 TIP3     4349     TIP3     H1       HT       0.417000       1.00800           0
     37365 TIP3     4349     TIP3     H2       HT       0.417000       1.00800           0
     37366 TIP3     4350     TIP3     OH2      OT      -0.834000       15.9994           0
     37367 TIP3     4350     TIP3     H1       HT       0.417000       1.00800           0
     37368 TIP3     4350     TIP3     H2       HT       0.417000       1.00800           0
     37369 TIP3     4351     TIP3     OH2      OT      -0.834000       15.9994           0
     37370 TIP3     4351     TIP3     H1       HT       0.417000       1.00800           0
     37371 TIP3     4351     TIP3     H2       HT       0.417000       1.00800           0
     37372 TIP3     4352     TIP3     OH2      OT      -0.834000       15.9994           0
     37373 TIP3     4352     TIP3     H1       HT       0.417000       1.00800           0
     37374 TIP3     4352     TIP3     H2       HT       0.417000       1.00800           0
     37375 TIP3     4353     TIP3     OH2      OT      -0.834000       15.9994           0
     37376 TIP3     4353     TIP3     H1       HT       0.417000       1.00800           0
     37377 TIP3     4353     TIP3     H2       HT       0.417000       1.00800           0
     37378 TIP3     4354     TIP3     OH2      OT      -0.834000       15.9994           0
     37379 TIP3     4354     TIP3     H1       HT       0.417000       1.00800           0
     37380 TIP3     4354     TIP3     H2       HT       0.417000       1.00800           0
     37381 TIP3     4355     TIP3     OH2      OT      -0.834000       15.9994           0
     37382 TIP3     4355     TIP3     H1       HT       0.417000       1.00800           0
     37383 TIP3     4355     TIP3     H2       HT       0.417000       1.00800           0
     37384 TIP3     4356     TIP3     OH2      OT      -0.834000       15.9994           0
     37385 TIP3     4356     TIP3     H1       HT       0.417000       1.00800           0
     37386 TIP3     4356     TIP3     H2       HT       0.417000       1.00800           0
     37387 TIP3     4357     TIP3     OH2      OT      -0.834000       15.9994           0
     37388 TIP3     4357     TIP3     H1       HT       0.417000       1.00800           0
     37389 TIP3     4357     TIP3     H2       HT       0.417000       1.00800           0
     37390 TIP3     4358     TIP3     OH2      OT      -0.834000       15.9994           0
     37391 TIP3     4358     TIP3     H1       HT       0.417000       1.00800           0
     37392 TIP3     4358     TIP3     H2       HT       0.417000       1.00800           0
     37393 TIP3     4359     TIP3     OH2      OT      -0.834000       15.9994           0
     37394 TIP3     4359     TIP3     H1       HT       0.417000       1.00800           0
     37395 TIP3     4359     TIP3     H2       HT       0.417000       1.00800           0
     37396 TIP3     4360     TIP3     OH2      OT      -0.834000       15.9994           0
     37397 TIP3     4360     TIP3     H1       HT       0.417000       1.00800           0
     37398 TIP3     4360     TIP3     H2       HT       0.417000       1.00800           0
     37399 TIP3     4361     TIP3     OH2      OT      -0.834000       15.9994           0
     37400 TIP3     4361     TIP3     H1       HT       0.417000       1.00800           0
     37401 TIP3     4361     TIP3     H2       HT       0.417000       1.00800           0
     37402 TIP3     4362     TIP3     OH2      OT      -0.834000       15.9994           0
     37403 TIP3     4362     TIP3     H1       HT       0.417000       1.00800           0
     37404 TIP3     4362     TIP3     H2       HT       0.417000       1.00800           0
     37405 TIP3     4363     TIP3     OH2      OT      -0.834000       15.9994           0
     37406 TIP3     4363     TIP3     H1       HT       0.417000       1.00800           0
     37407 TIP3     4363     TIP3     H2       HT       0.417000       1.00800           0
     37408 TIP3     4364     TIP3     OH2      OT      -0.834000       15.9994           0
     37409 TIP3     4364     TIP3     H1       HT       0.417000       1.00800           0
     37410 TIP3     4364     TIP3     H2       HT       0.417000       1.00800           0
     37411 TIP3     4365     TIP3     OH2      OT      -0.834000       15.9994           0
     37412 TIP3     4365     TIP3     H1       HT       0.417000       1.00800           0
     37413 TIP3     4365     TIP3     H2       HT       0.417000       1.00800           0
     37414 TIP3     4366     TIP3     OH2      OT      -0.834000       15.9994           0
     37415 TIP3     4366     TIP3     H1       HT       0.417000       1.00800           0
     37416 TIP3     4366     TIP3     H2       HT       0.417000       1.00800           0
     37417 TIP3     4367     TIP3     OH2      OT      -0.834000       15.9994           0
     37418 TIP3     4367     TIP3     H1       HT       0.417000       1.00800           0
     37419 TIP3     4367     TIP3     H2       HT       0.417000       1.00800           0
     37420 TIP3     4368     TIP3     OH2      OT      -0.834000       15.9994           0
     37421 TIP3     4368     TIP3     H1       HT       0.417000       1.00800           0
     37422 TIP3     4368     TIP3     H2       HT       0.417000       1.00800           0
     37423 TIP3     4369     TIP3     OH2      OT      -0.834000       15.9994           0
     37424 TIP3     4369     TIP3     H1       HT       0.417000       1.00800           0
     37425 TIP3     4369     TIP3     H2       HT       0.417000       1.00800           0
     37426 TIP3     4370     TIP3     OH2      OT      -0.834000       15.9994           0
     37427 TIP3     4370     TIP3     H1       HT       0.417000       1.00800           0
     37428 TIP3     4370     TIP3     H2       HT       0.417000       1.00800           0
     37429 TIP3     4371     TIP3     OH2      OT      -0.834000       15.9994           0
     37430 TIP3     4371     TIP3     H1       HT       0.417000       1.00800           0
     37431 TIP3     4371     TIP3     H2       HT       0.417000       1.00800           0
     37432 TIP3     4372     TIP3     OH2      OT      -0.834000       15.9994           0
     37433 TIP3     4372     TIP3     H1       HT       0.417000       1.00800           0
     37434 TIP3     4372     TIP3     H2       HT       0.417000       1.00800           0
     37435 TIP3     4373     TIP3     OH2      OT      -0.834000       15.9994           0
     37436 TIP3     4373     TIP3     H1       HT       0.417000       1.00800           0
     37437 TIP3     4373     TIP3     H2       HT       0.417000       1.00800           0
     37438 TIP3     4374     TIP3     OH2      OT      -0.834000       15.9994           0
     37439 TIP3     4374     TIP3     H1       HT       0.417000       1.00800           0
     37440 TIP3     4374     TIP3     H2       HT       0.417000       1.00800           0
     37441 TIP3     4375     TIP3     OH2      OT      -0.834000       15.9994           0
     37442 TIP3     4375     TIP3     H1       HT       0.417000       1.00800           0
     37443 TIP3     4375     TIP3     H2       HT       0.417000       1.00800           0
     37444 TIP3     4376     TIP3     OH2      OT      -0.834000       15.9994           0
     37445 TIP3     4376     TIP3     H1       HT       0.417000       1.00800           0
     37446 TIP3     4376     TIP3     H2       HT       0.417000       1.00800           0
     37447 TIP3     4377     TIP3     OH2      OT      -0.834000       15.9994           0
     37448 TIP3     4377     TIP3     H1       HT       0.417000       1.00800           0
     37449 TIP3     4377     TIP3     H2       HT       0.417000       1.00800           0
     37450 TIP3     4378     TIP3     OH2      OT      -0.834000       15.9994           0
     37451 TIP3     4378     TIP3     H1       HT       0.417000       1.00800           0
     37452 TIP3     4378     TIP3     H2       HT       0.417000       1.00800           0
     37453 TIP3     4379     TIP3     OH2      OT      -0.834000       15.9994           0
     37454 TIP3     4379     TIP3     H1       HT       0.417000       1.00800           0
     37455 TIP3     4379     TIP3     H2       HT       0.417000       1.00800           0
     37456 TIP3     4380     TIP3     OH2      OT      -0.834000       15.9994           0
     37457 TIP3     4380     TIP3     H1       HT       0.417000       1.00800           0
     37458 TIP3     4380     TIP3     H2       HT       0.417000       1.00800           0
     37459 TIP3     4381     TIP3     OH2      OT      -0.834000       15.9994           0
     37460 TIP3     4381     TIP3     H1       HT       0.417000       1.00800           0
     37461 TIP3     4381     TIP3     H2       HT       0.417000       1.00800           0
     37462 TIP3     4382     TIP3     OH2      OT      -0.834000       15.9994           0
     37463 TIP3     4382     TIP3     H1       HT       0.417000       1.00800           0
     37464 TIP3     4382     TIP3     H2       HT       0.417000       1.00800           0
     37465 TIP3     4383     TIP3     OH2      OT      -0.834000       15.9994           0
     37466 TIP3     4383     TIP3     H1       HT       0.417000       1.00800           0
     37467 TIP3     4383     TIP3     H2       HT       0.417000       1.00800           0
     37468 TIP3     4384     TIP3     OH2      OT      -0.834000       15.9994           0
     37469 TIP3     4384     TIP3     H1       HT       0.417000       1.00800           0
     37470 TIP3     4384     TIP3     H2       HT       0.417000       1.00800           0
     37471 TIP3     4385     TIP3     OH2      OT      -0.834000       15.9994           0
     37472 TIP3     4385     TIP3     H1       HT       0.417000       1.00800           0
     37473 TIP3     4385     TIP3     H2       HT       0.417000       1.00800           0
     37474 TIP3     4386     TIP3     OH2      OT      -0.834000       15.9994           0
     37475 TIP3     4386     TIP3     H1       HT       0.417000       1.00800           0
     37476 TIP3     4386     TIP3     H2       HT       0.417000       1.00800           0
     37477 TIP3     4387     TIP3     OH2      OT      -0.834000       15.9994           0
     37478 TIP3     4387     TIP3     H1       HT       0.417000       1.00800           0
     37479 TIP3     4387     TIP3     H2       HT       0.417000       1.00800           0
     37480 TIP3     4388     TIP3     OH2      OT      -0.834000       15.9994           0
     37481 TIP3     4388     TIP3     H1       HT       0.417000       1.00800           0
     37482 TIP3     4388     TIP3     H2       HT       0.417000       1.00800           0
     37483 TIP3     4389     TIP3     OH2      OT      -0.834000       15.9994           0
     37484 TIP3     4389     TIP3     H1       HT       0.417000       1.00800           0
     37485 TIP3     4389     TIP3     H2       HT       0.417000       1.00800           0
     37486 TIP3     4390     TIP3     OH2      OT      -0.834000       15.9994           0
     37487 TIP3     4390     TIP3     H1       HT       0.417000       1.00800           0
     37488 TIP3     4390     TIP3     H2       HT       0.417000       1.00800           0
     37489 TIP3     4391     TIP3     OH2      OT      -0.834000       15.9994           0
     37490 TIP3     4391     TIP3     H1       HT       0.417000       1.00800           0
     37491 TIP3     4391     TIP3     H2       HT       0.417000       1.00800           0
     37492 TIP3     4392     TIP3     OH2      OT      -0.834000       15.9994           0
     37493 TIP3     4392     TIP3     H1       HT       0.417000       1.00800           0
     37494 TIP3     4392     TIP3     H2       HT       0.417000       1.00800           0
     37495 TIP3     4393     TIP3     OH2      OT      -0.834000       15.9994           0
     37496 TIP3     4393     TIP3     H1       HT       0.417000       1.00800           0
     37497 TIP3     4393     TIP3     H2       HT       0.417000       1.00800           0
     37498 TIP3     4394     TIP3     OH2      OT      -0.834000       15.9994           0
     37499 TIP3     4394     TIP3     H1       HT       0.417000       1.00800           0
     37500 TIP3     4394     TIP3     H2       HT       0.417000       1.00800           0
     37501 TIP3     4395     TIP3     OH2      OT      -0.834000       15.9994           0
     37502 TIP3     4395     TIP3     H1       HT       0.417000       1.00800           0
     37503 TIP3     4395     TIP3     H2       HT       0.417000       1.00800           0
     37504 TIP3     4396     TIP3     OH2      OT      -0.834000       15.9994           0
     37505 TIP3     4396     TIP3     H1       HT       0.417000       1.00800           0
     37506 TIP3     4396     TIP3     H2       HT       0.417000       1.00800           0
     37507 TIP3     4397     TIP3     OH2      OT      -0.834000       15.9994           0
     37508 TIP3     4397     TIP3     H1       HT       0.417000       1.00800           0
     37509 TIP3     4397     TIP3     H2       HT       0.417000       1.00800           0
     37510 TIP3     4398     TIP3     OH2      OT      -0.834000       15.9994           0
     37511 TIP3     4398     TIP3     H1       HT       0.417000       1.00800           0
     37512 TIP3     4398     TIP3     H2       HT       0.417000       1.00800           0
     37513 TIP3     4399     TIP3     OH2      OT      -0.834000       15.9994           0
     37514 TIP3     4399     TIP3     H1       HT       0.417000       1.00800           0
     37515 TIP3     4399     TIP3     H2       HT       0.417000       1.00800           0
     37516 TIP3     4400     TIP3     OH2      OT      -0.834000       15.9994           0
     37517 TIP3     4400     TIP3     H1       HT       0.417000       1.00800           0
     37518 TIP3     4400     TIP3     H2       HT       0.417000       1.00800           0
     37519 TIP3     4401     TIP3     OH2      OT      -0.834000       15.9994           0
     37520 TIP3     4401     TIP3     H1       HT       0.417000       1.00800           0
     37521 TIP3     4401     TIP3     H2       HT       0.417000       1.00800           0
     37522 TIP3     4402     TIP3     OH2      OT      -0.834000       15.9994           0
     37523 TIP3     4402     TIP3     H1       HT       0.417000       1.00800           0
     37524 TIP3     4402     TIP3     H2       HT       0.417000       1.00800           0
     37525 TIP3     4403     TIP3     OH2      OT      -0.834000       15.9994           0
     37526 TIP3     4403     TIP3     H1       HT       0.417000       1.00800           0
     37527 TIP3     4403     TIP3     H2       HT       0.417000       1.00800           0
     37528 TIP3     4404     TIP3     OH2      OT      -0.834000       15.9994           0
     37529 TIP3     4404     TIP3     H1       HT       0.417000       1.00800           0
     37530 TIP3     4404     TIP3     H2       HT       0.417000       1.00800           0
     37531 TIP3     4405     TIP3     OH2      OT      -0.834000       15.9994           0
     37532 TIP3     4405     TIP3     H1       HT       0.417000       1.00800           0
     37533 TIP3     4405     TIP3     H2       HT       0.417000       1.00800           0
     37534 TIP3     4406     TIP3     OH2      OT      -0.834000       15.9994           0
     37535 TIP3     4406     TIP3     H1       HT       0.417000       1.00800           0
     37536 TIP3     4406     TIP3     H2       HT       0.417000       1.00800           0
     37537 TIP3     4407     TIP3     OH2      OT      -0.834000       15.9994           0
     37538 TIP3     4407     TIP3     H1       HT       0.417000       1.00800           0
     37539 TIP3     4407     TIP3     H2       HT       0.417000       1.00800           0
     37540 TIP3     4408     TIP3     OH2      OT      -0.834000       15.9994           0
     37541 TIP3     4408     TIP3     H1       HT       0.417000       1.00800           0
     37542 TIP3     4408     TIP3     H2       HT       0.417000       1.00800           0
     37543 TIP3     4409     TIP3     OH2      OT      -0.834000       15.9994           0
     37544 TIP3     4409     TIP3     H1       HT       0.417000       1.00800           0
     37545 TIP3     4409     TIP3     H2       HT       0.417000       1.00800           0
     37546 TIP3     4410     TIP3     OH2      OT      -0.834000       15.9994           0
     37547 TIP3     4410     TIP3     H1       HT       0.417000       1.00800           0
     37548 TIP3     4410     TIP3     H2       HT       0.417000       1.00800           0
     37549 TIP3     4411     TIP3     OH2      OT      -0.834000       15.9994           0
     37550 TIP3     4411     TIP3     H1       HT       0.417000       1.00800           0
     37551 TIP3     4411     TIP3     H2       HT       0.417000       1.00800           0
     37552 TIP3     4412     TIP3     OH2      OT      -0.834000       15.9994           0
     37553 TIP3     4412     TIP3     H1       HT       0.417000       1.00800           0
     37554 TIP3     4412     TIP3     H2       HT       0.417000       1.00800           0
     37555 TIP3     4413     TIP3     OH2      OT      -0.834000       15.9994           0
     37556 TIP3     4413     TIP3     H1       HT       0.417000       1.00800           0
     37557 TIP3     4413     TIP3     H2       HT       0.417000       1.00800           0
     37558 TIP3     4414     TIP3     OH2      OT      -0.834000       15.9994           0
     37559 TIP3     4414     TIP3     H1       HT       0.417000       1.00800           0
     37560 TIP3     4414     TIP3     H2       HT       0.417000       1.00800           0
     37561 TIP3     4415     TIP3     OH2      OT      -0.834000       15.9994           0
     37562 TIP3     4415     TIP3     H1       HT       0.417000       1.00800           0
     37563 TIP3     4415     TIP3     H2       HT       0.417000       1.00800           0
     37564 TIP3     4416     TIP3     OH2      OT      -0.834000       15.9994           0
     37565 TIP3     4416     TIP3     H1       HT       0.417000       1.00800           0
     37566 TIP3     4416     TIP3     H2       HT       0.417000       1.00800           0
     37567 TIP3     4417     TIP3     OH2      OT      -0.834000       15.9994           0
     37568 TIP3     4417     TIP3     H1       HT       0.417000       1.00800           0
     37569 TIP3     4417     TIP3     H2       HT       0.417000       1.00800           0
     37570 TIP3     4418     TIP3     OH2      OT      -0.834000       15.9994           0
     37571 TIP3     4418     TIP3     H1       HT       0.417000       1.00800           0
     37572 TIP3     4418     TIP3     H2       HT       0.417000       1.00800           0
     37573 TIP3     4419     TIP3     OH2      OT      -0.834000       15.9994           0
     37574 TIP3     4419     TIP3     H1       HT       0.417000       1.00800           0
     37575 TIP3     4419     TIP3     H2       HT       0.417000       1.00800           0
     37576 TIP3     4420     TIP3     OH2      OT      -0.834000       15.9994           0
     37577 TIP3     4420     TIP3     H1       HT       0.417000       1.00800           0
     37578 TIP3     4420     TIP3     H2       HT       0.417000       1.00800           0
     37579 TIP3     4421     TIP3     OH2      OT      -0.834000       15.9994           0
     37580 TIP3     4421     TIP3     H1       HT       0.417000       1.00800           0
     37581 TIP3     4421     TIP3     H2       HT       0.417000       1.00800           0
     37582 TIP3     4422     TIP3     OH2      OT      -0.834000       15.9994           0
     37583 TIP3     4422     TIP3     H1       HT       0.417000       1.00800           0
     37584 TIP3     4422     TIP3     H2       HT       0.417000       1.00800           0
     37585 TIP3     4423     TIP3     OH2      OT      -0.834000       15.9994           0
     37586 TIP3     4423     TIP3     H1       HT       0.417000       1.00800           0
     37587 TIP3     4423     TIP3     H2       HT       0.417000       1.00800           0
     37588 TIP3     4424     TIP3     OH2      OT      -0.834000       15.9994           0
     37589 TIP3     4424     TIP3     H1       HT       0.417000       1.00800           0
     37590 TIP3     4424     TIP3     H2       HT       0.417000       1.00800           0
     37591 TIP3     4425     TIP3     OH2      OT      -0.834000       15.9994           0
     37592 TIP3     4425     TIP3     H1       HT       0.417000       1.00800           0
     37593 TIP3     4425     TIP3     H2       HT       0.417000       1.00800           0
     37594 TIP3     4426     TIP3     OH2      OT      -0.834000       15.9994           0
     37595 TIP3     4426     TIP3     H1       HT       0.417000       1.00800           0
     37596 TIP3     4426     TIP3     H2       HT       0.417000       1.00800           0
     37597 TIP3     4427     TIP3     OH2      OT      -0.834000       15.9994           0
     37598 TIP3     4427     TIP3     H1       HT       0.417000       1.00800           0
     37599 TIP3     4427     TIP3     H2       HT       0.417000       1.00800           0
     37600 TIP3     4428     TIP3     OH2      OT      -0.834000       15.9994           0
     37601 TIP3     4428     TIP3     H1       HT       0.417000       1.00800           0
     37602 TIP3     4428     TIP3     H2       HT       0.417000       1.00800           0
     37603 TIP3     4429     TIP3     OH2      OT      -0.834000       15.9994           0
     37604 TIP3     4429     TIP3     H1       HT       0.417000       1.00800           0
     37605 TIP3     4429     TIP3     H2       HT       0.417000       1.00800           0
     37606 TIP3     4430     TIP3     OH2      OT      -0.834000       15.9994           0
     37607 TIP3     4430     TIP3     H1       HT       0.417000       1.00800           0
     37608 TIP3     4430     TIP3     H2       HT       0.417000       1.00800           0
     37609 TIP3     4431     TIP3     OH2      OT      -0.834000       15.9994           0
     37610 TIP3     4431     TIP3     H1       HT       0.417000       1.00800           0
     37611 TIP3     4431     TIP3     H2       HT       0.417000       1.00800           0
     37612 TIP3     4432     TIP3     OH2      OT      -0.834000       15.9994           0
     37613 TIP3     4432     TIP3     H1       HT       0.417000       1.00800           0
     37614 TIP3     4432     TIP3     H2       HT       0.417000       1.00800           0
     37615 TIP3     4433     TIP3     OH2      OT      -0.834000       15.9994           0
     37616 TIP3     4433     TIP3     H1       HT       0.417000       1.00800           0
     37617 TIP3     4433     TIP3     H2       HT       0.417000       1.00800           0
     37618 TIP3     4434     TIP3     OH2      OT      -0.834000       15.9994           0
     37619 TIP3     4434     TIP3     H1       HT       0.417000       1.00800           0
     37620 TIP3     4434     TIP3     H2       HT       0.417000       1.00800           0
     37621 TIP3     4435     TIP3     OH2      OT      -0.834000       15.9994           0
     37622 TIP3     4435     TIP3     H1       HT       0.417000       1.00800           0
     37623 TIP3     4435     TIP3     H2       HT       0.417000       1.00800           0
     37624 TIP3     4436     TIP3     OH2      OT      -0.834000       15.9994           0
     37625 TIP3     4436     TIP3     H1       HT       0.417000       1.00800           0
     37626 TIP3     4436     TIP3     H2       HT       0.417000       1.00800           0
     37627 TIP3     4437     TIP3     OH2      OT      -0.834000       15.9994           0
     37628 TIP3     4437     TIP3     H1       HT       0.417000       1.00800           0
     37629 TIP3     4437     TIP3     H2       HT       0.417000       1.00800           0
     37630 TIP3     4438     TIP3     OH2      OT      -0.834000       15.9994           0
     37631 TIP3     4438     TIP3     H1       HT       0.417000       1.00800           0
     37632 TIP3     4438     TIP3     H2       HT       0.417000       1.00800           0
     37633 TIP3     4439     TIP3     OH2      OT      -0.834000       15.9994           0
     37634 TIP3     4439     TIP3     H1       HT       0.417000       1.00800           0
     37635 TIP3     4439     TIP3     H2       HT       0.417000       1.00800           0
     37636 TIP3     4440     TIP3     OH2      OT      -0.834000       15.9994           0
     37637 TIP3     4440     TIP3     H1       HT       0.417000       1.00800           0
     37638 TIP3     4440     TIP3     H2       HT       0.417000       1.00800           0
     37639 TIP3     4441     TIP3     OH2      OT      -0.834000       15.9994           0
     37640 TIP3     4441     TIP3     H1       HT       0.417000       1.00800           0
     37641 TIP3     4441     TIP3     H2       HT       0.417000       1.00800           0
     37642 TIP3     4442     TIP3     OH2      OT      -0.834000       15.9994           0
     37643 TIP3     4442     TIP3     H1       HT       0.417000       1.00800           0
     37644 TIP3     4442     TIP3     H2       HT       0.417000       1.00800           0
     37645 TIP3     4443     TIP3     OH2      OT      -0.834000       15.9994           0
     37646 TIP3     4443     TIP3     H1       HT       0.417000       1.00800           0
     37647 TIP3     4443     TIP3     H2       HT       0.417000       1.00800           0
     37648 TIP3     4444     TIP3     OH2      OT      -0.834000       15.9994           0
     37649 TIP3     4444     TIP3     H1       HT       0.417000       1.00800           0
     37650 TIP3     4444     TIP3     H2       HT       0.417000       1.00800           0
     37651 TIP3     4445     TIP3     OH2      OT      -0.834000       15.9994           0
     37652 TIP3     4445     TIP3     H1       HT       0.417000       1.00800           0
     37653 TIP3     4445     TIP3     H2       HT       0.417000       1.00800           0
     37654 TIP3     4446     TIP3     OH2      OT      -0.834000       15.9994           0
     37655 TIP3     4446     TIP3     H1       HT       0.417000       1.00800           0
     37656 TIP3     4446     TIP3     H2       HT       0.417000       1.00800           0
     37657 TIP3     4447     TIP3     OH2      OT      -0.834000       15.9994           0
     37658 TIP3     4447     TIP3     H1       HT       0.417000       1.00800           0
     37659 TIP3     4447     TIP3     H2       HT       0.417000       1.00800           0
     37660 TIP3     4448     TIP3     OH2      OT      -0.834000       15.9994           0
     37661 TIP3     4448     TIP3     H1       HT       0.417000       1.00800           0
     37662 TIP3     4448     TIP3     H2       HT       0.417000       1.00800           0
     37663 TIP3     4449     TIP3     OH2      OT      -0.834000       15.9994           0
     37664 TIP3     4449     TIP3     H1       HT       0.417000       1.00800           0
     37665 TIP3     4449     TIP3     H2       HT       0.417000       1.00800           0
     37666 TIP3     4450     TIP3     OH2      OT      -0.834000       15.9994           0
     37667 TIP3     4450     TIP3     H1       HT       0.417000       1.00800           0
     37668 TIP3     4450     TIP3     H2       HT       0.417000       1.00800           0
     37669 TIP3     4451     TIP3     OH2      OT      -0.834000       15.9994           0
     37670 TIP3     4451     TIP3     H1       HT       0.417000       1.00800           0
     37671 TIP3     4451     TIP3     H2       HT       0.417000       1.00800           0
     37672 TIP3     4452     TIP3     OH2      OT      -0.834000       15.9994           0
     37673 TIP3     4452     TIP3     H1       HT       0.417000       1.00800           0
     37674 TIP3     4452     TIP3     H2       HT       0.417000       1.00800           0
     37675 TIP3     4453     TIP3     OH2      OT      -0.834000       15.9994           0
     37676 TIP3     4453     TIP3     H1       HT       0.417000       1.00800           0
     37677 TIP3     4453     TIP3     H2       HT       0.417000       1.00800           0
     37678 TIP3     4454     TIP3     OH2      OT      -0.834000       15.9994           0
     37679 TIP3     4454     TIP3     H1       HT       0.417000       1.00800           0
     37680 TIP3     4454     TIP3     H2       HT       0.417000       1.00800           0
     37681 TIP3     4455     TIP3     OH2      OT      -0.834000       15.9994           0
     37682 TIP3     4455     TIP3     H1       HT       0.417000       1.00800           0
     37683 TIP3     4455     TIP3     H2       HT       0.417000       1.00800           0
     37684 TIP3     4456     TIP3     OH2      OT      -0.834000       15.9994           0
     37685 TIP3     4456     TIP3     H1       HT       0.417000       1.00800           0
     37686 TIP3     4456     TIP3     H2       HT       0.417000       1.00800           0
     37687 TIP3     4457     TIP3     OH2      OT      -0.834000       15.9994           0
     37688 TIP3     4457     TIP3     H1       HT       0.417000       1.00800           0
     37689 TIP3     4457     TIP3     H2       HT       0.417000       1.00800           0
     37690 TIP3     4458     TIP3     OH2      OT      -0.834000       15.9994           0
     37691 TIP3     4458     TIP3     H1       HT       0.417000       1.00800           0
     37692 TIP3     4458     TIP3     H2       HT       0.417000       1.00800           0
     37693 TIP3     4459     TIP3     OH2      OT      -0.834000       15.9994           0
     37694 TIP3     4459     TIP3     H1       HT       0.417000       1.00800           0
     37695 TIP3     4459     TIP3     H2       HT       0.417000       1.00800           0
     37696 TIP3     4460     TIP3     OH2      OT      -0.834000       15.9994           0
     37697 TIP3     4460     TIP3     H1       HT       0.417000       1.00800           0
     37698 TIP3     4460     TIP3     H2       HT       0.417000       1.00800           0
     37699 TIP3     4461     TIP3     OH2      OT      -0.834000       15.9994           0
     37700 TIP3     4461     TIP3     H1       HT       0.417000       1.00800           0
     37701 TIP3     4461     TIP3     H2       HT       0.417000       1.00800           0
     37702 TIP3     4462     TIP3     OH2      OT      -0.834000       15.9994           0
     37703 TIP3     4462     TIP3     H1       HT       0.417000       1.00800           0
     37704 TIP3     4462     TIP3     H2       HT       0.417000       1.00800           0
     37705 TIP3     4463     TIP3     OH2      OT      -0.834000       15.9994           0
     37706 TIP3     4463     TIP3     H1       HT       0.417000       1.00800           0
     37707 TIP3     4463     TIP3     H2       HT       0.417000       1.00800           0
     37708 TIP3     4464     TIP3     OH2      OT      -0.834000       15.9994           0
     37709 TIP3     4464     TIP3     H1       HT       0.417000       1.00800           0
     37710 TIP3     4464     TIP3     H2       HT       0.417000       1.00800           0
     37711 TIP3     4465     TIP3     OH2      OT      -0.834000       15.9994           0
     37712 TIP3     4465     TIP3     H1       HT       0.417000       1.00800           0
     37713 TIP3     4465     TIP3     H2       HT       0.417000       1.00800           0
     37714 TIP3     4466     TIP3     OH2      OT      -0.834000       15.9994           0
     37715 TIP3     4466     TIP3     H1       HT       0.417000       1.00800           0
     37716 TIP3     4466     TIP3     H2       HT       0.417000       1.00800           0
     37717 TIP3     4467     TIP3     OH2      OT      -0.834000       15.9994           0
     37718 TIP3     4467     TIP3     H1       HT       0.417000       1.00800           0
     37719 TIP3     4467     TIP3     H2       HT       0.417000       1.00800           0
     37720 TIP3     4468     TIP3     OH2      OT      -0.834000       15.9994           0
     37721 TIP3     4468     TIP3     H1       HT       0.417000       1.00800           0
     37722 TIP3     4468     TIP3     H2       HT       0.417000       1.00800           0
     37723 TIP3     4469     TIP3     OH2      OT      -0.834000       15.9994           0
     37724 TIP3     4469     TIP3     H1       HT       0.417000       1.00800           0
     37725 TIP3     4469     TIP3     H2       HT       0.417000       1.00800           0
     37726 TIP3     4470     TIP3     OH2      OT      -0.834000       15.9994           0
     37727 TIP3     4470     TIP3     H1       HT       0.417000       1.00800           0
     37728 TIP3     4470     TIP3     H2       HT       0.417000       1.00800           0
     37729 TIP3     4471     TIP3     OH2      OT      -0.834000       15.9994           0
     37730 TIP3     4471     TIP3     H1       HT       0.417000       1.00800           0
     37731 TIP3     4471     TIP3     H2       HT       0.417000       1.00800           0
     37732 TIP3     4472     TIP3     OH2      OT      -0.834000       15.9994           0
     37733 TIP3     4472     TIP3     H1       HT       0.417000       1.00800           0
     37734 TIP3     4472     TIP3     H2       HT       0.417000       1.00800           0
     37735 TIP3     4473     TIP3     OH2      OT      -0.834000       15.9994           0
     37736 TIP3     4473     TIP3     H1       HT       0.417000       1.00800           0
     37737 TIP3     4473     TIP3     H2       HT       0.417000       1.00800           0
     37738 TIP3     4474     TIP3     OH2      OT      -0.834000       15.9994           0
     37739 TIP3     4474     TIP3     H1       HT       0.417000       1.00800           0
     37740 TIP3     4474     TIP3     H2       HT       0.417000       1.00800           0
     37741 TIP3     4475     TIP3     OH2      OT      -0.834000       15.9994           0
     37742 TIP3     4475     TIP3     H1       HT       0.417000       1.00800           0
     37743 TIP3     4475     TIP3     H2       HT       0.417000       1.00800           0
     37744 TIP3     4476     TIP3     OH2      OT      -0.834000       15.9994           0
     37745 TIP3     4476     TIP3     H1       HT       0.417000       1.00800           0
     37746 TIP3     4476     TIP3     H2       HT       0.417000       1.00800           0
     37747 TIP3     4477     TIP3     OH2      OT      -0.834000       15.9994           0
     37748 TIP3     4477     TIP3     H1       HT       0.417000       1.00800           0
     37749 TIP3     4477     TIP3     H2       HT       0.417000       1.00800           0
     37750 TIP3     4478     TIP3     OH2      OT      -0.834000       15.9994           0
     37751 TIP3     4478     TIP3     H1       HT       0.417000       1.00800           0
     37752 TIP3     4478     TIP3     H2       HT       0.417000       1.00800           0
     37753 TIP3     4479     TIP3     OH2      OT      -0.834000       15.9994           0
     37754 TIP3     4479     TIP3     H1       HT       0.417000       1.00800           0
     37755 TIP3     4479     TIP3     H2       HT       0.417000       1.00800           0
     37756 TIP3     4480     TIP3     OH2      OT      -0.834000       15.9994           0
     37757 TIP3     4480     TIP3     H1       HT       0.417000       1.00800           0
     37758 TIP3     4480     TIP3     H2       HT       0.417000       1.00800           0
     37759 TIP3     4481     TIP3     OH2      OT      -0.834000       15.9994           0
     37760 TIP3     4481     TIP3     H1       HT       0.417000       1.00800           0
     37761 TIP3     4481     TIP3     H2       HT       0.417000       1.00800           0
     37762 TIP3     4482     TIP3     OH2      OT      -0.834000       15.9994           0
     37763 TIP3     4482     TIP3     H1       HT       0.417000       1.00800           0
     37764 TIP3     4482     TIP3     H2       HT       0.417000       1.00800           0
     37765 TIP3     4483     TIP3     OH2      OT      -0.834000       15.9994           0
     37766 TIP3     4483     TIP3     H1       HT       0.417000       1.00800           0
     37767 TIP3     4483     TIP3     H2       HT       0.417000       1.00800           0
     37768 TIP3     4484     TIP3     OH2      OT      -0.834000       15.9994           0
     37769 TIP3     4484     TIP3     H1       HT       0.417000       1.00800           0
     37770 TIP3     4484     TIP3     H2       HT       0.417000       1.00800           0
     37771 TIP3     4485     TIP3     OH2      OT      -0.834000       15.9994           0
     37772 TIP3     4485     TIP3     H1       HT       0.417000       1.00800           0
     37773 TIP3     4485     TIP3     H2       HT       0.417000       1.00800           0
     37774 TIP3     4486     TIP3     OH2      OT      -0.834000       15.9994           0
     37775 TIP3     4486     TIP3     H1       HT       0.417000       1.00800           0
     37776 TIP3     4486     TIP3     H2       HT       0.417000       1.00800           0
     37777 TIP3     4487     TIP3     OH2      OT      -0.834000       15.9994           0
     37778 TIP3     4487     TIP3     H1       HT       0.417000       1.00800           0
     37779 TIP3     4487     TIP3     H2       HT       0.417000       1.00800           0
     37780 TIP3     4488     TIP3     OH2      OT      -0.834000       15.9994           0
     37781 TIP3     4488     TIP3     H1       HT       0.417000       1.00800           0
     37782 TIP3     4488     TIP3     H2       HT       0.417000       1.00800           0
     37783 TIP3     4489     TIP3     OH2      OT      -0.834000       15.9994           0
     37784 TIP3     4489     TIP3     H1       HT       0.417000       1.00800           0
     37785 TIP3     4489     TIP3     H2       HT       0.417000       1.00800           0
     37786 TIP3     4490     TIP3     OH2      OT      -0.834000       15.9994           0
     37787 TIP3     4490     TIP3     H1       HT       0.417000       1.00800           0
     37788 TIP3     4490     TIP3     H2       HT       0.417000       1.00800           0
     37789 TIP3     4491     TIP3     OH2      OT      -0.834000       15.9994           0
     37790 TIP3     4491     TIP3     H1       HT       0.417000       1.00800           0
     37791 TIP3     4491     TIP3     H2       HT       0.417000       1.00800           0
     37792 TIP3     4492     TIP3     OH2      OT      -0.834000       15.9994           0
     37793 TIP3     4492     TIP3     H1       HT       0.417000       1.00800           0
     37794 TIP3     4492     TIP3     H2       HT       0.417000       1.00800           0
     37795 TIP3     4493     TIP3     OH2      OT      -0.834000       15.9994           0
     37796 TIP3     4493     TIP3     H1       HT       0.417000       1.00800           0
     37797 TIP3     4493     TIP3     H2       HT       0.417000       1.00800           0
     37798 TIP3     4494     TIP3     OH2      OT      -0.834000       15.9994           0
     37799 TIP3     4494     TIP3     H1       HT       0.417000       1.00800           0
     37800 TIP3     4494     TIP3     H2       HT       0.417000       1.00800           0
     37801 TIP3     4495     TIP3     OH2      OT      -0.834000       15.9994           0
     37802 TIP3     4495     TIP3     H1       HT       0.417000       1.00800           0
     37803 TIP3     4495     TIP3     H2       HT       0.417000       1.00800           0
     37804 TIP3     4496     TIP3     OH2      OT      -0.834000       15.9994           0
     37805 TIP3     4496     TIP3     H1       HT       0.417000       1.00800           0
     37806 TIP3     4496     TIP3     H2       HT       0.417000       1.00800           0
     37807 TIP3     4497     TIP3     OH2      OT      -0.834000       15.9994           0
     37808 TIP3     4497     TIP3     H1       HT       0.417000       1.00800           0
     37809 TIP3     4497     TIP3     H2       HT       0.417000       1.00800           0
     37810 TIP3     4498     TIP3     OH2      OT      -0.834000       15.9994           0
     37811 TIP3     4498     TIP3     H1       HT       0.417000       1.00800           0
     37812 TIP3     4498     TIP3     H2       HT       0.417000       1.00800           0
     37813 TIP3     4499     TIP3     OH2      OT      -0.834000       15.9994           0
     37814 TIP3     4499     TIP3     H1       HT       0.417000       1.00800           0
     37815 TIP3     4499     TIP3     H2       HT       0.417000       1.00800           0
     37816 TIP3     4500     TIP3     OH2      OT      -0.834000       15.9994           0
     37817 TIP3     4500     TIP3     H1       HT       0.417000       1.00800           0
     37818 TIP3     4500     TIP3     H2       HT       0.417000       1.00800           0
     37819 TIP3     4501     TIP3     OH2      OT      -0.834000       15.9994           0
     37820 TIP3     4501     TIP3     H1       HT       0.417000       1.00800           0
     37821 TIP3     4501     TIP3     H2       HT       0.417000       1.00800           0
     37822 TIP3     4502     TIP3     OH2      OT      -0.834000       15.9994           0
     37823 TIP3     4502     TIP3     H1       HT       0.417000       1.00800           0
     37824 TIP3     4502     TIP3     H2       HT       0.417000       1.00800           0
     37825 TIP3     4503     TIP3     OH2      OT      -0.834000       15.9994           0
     37826 TIP3     4503     TIP3     H1       HT       0.417000       1.00800           0
     37827 TIP3     4503     TIP3     H2       HT       0.417000       1.00800           0
     37828 TIP3     4504     TIP3     OH2      OT      -0.834000       15.9994           0
     37829 TIP3     4504     TIP3     H1       HT       0.417000       1.00800           0
     37830 TIP3     4504     TIP3     H2       HT       0.417000       1.00800           0
     37831 TIP3     4505     TIP3     OH2      OT      -0.834000       15.9994           0
     37832 TIP3     4505     TIP3     H1       HT       0.417000       1.00800           0
     37833 TIP3     4505     TIP3     H2       HT       0.417000       1.00800           0
     37834 TIP3     4506     TIP3     OH2      OT      -0.834000       15.9994           0
     37835 TIP3     4506     TIP3     H1       HT       0.417000       1.00800           0
     37836 TIP3     4506     TIP3     H2       HT       0.417000       1.00800           0
     37837 TIP3     4507     TIP3     OH2      OT      -0.834000       15.9994           0
     37838 TIP3     4507     TIP3     H1       HT       0.417000       1.00800           0
     37839 TIP3     4507     TIP3     H2       HT       0.417000       1.00800           0
     37840 TIP3     4508     TIP3     OH2      OT      -0.834000       15.9994           0
     37841 TIP3     4508     TIP3     H1       HT       0.417000       1.00800           0
     37842 TIP3     4508     TIP3     H2       HT       0.417000       1.00800           0
     37843 TIP3     4509     TIP3     OH2      OT      -0.834000       15.9994           0
     37844 TIP3     4509     TIP3     H1       HT       0.417000       1.00800           0
     37845 TIP3     4509     TIP3     H2       HT       0.417000       1.00800           0
     37846 TIP3     4510     TIP3     OH2      OT      -0.834000       15.9994           0
     37847 TIP3     4510     TIP3     H1       HT       0.417000       1.00800           0
     37848 TIP3     4510     TIP3     H2       HT       0.417000       1.00800           0
     37849 TIP3     4511     TIP3     OH2      OT      -0.834000       15.9994           0
     37850 TIP3     4511     TIP3     H1       HT       0.417000       1.00800           0
     37851 TIP3     4511     TIP3     H2       HT       0.417000       1.00800           0
     37852 TIP3     4512     TIP3     OH2      OT      -0.834000       15.9994           0
     37853 TIP3     4512     TIP3     H1       HT       0.417000       1.00800           0
     37854 TIP3     4512     TIP3     H2       HT       0.417000       1.00800           0
     37855 TIP3     4513     TIP3     OH2      OT      -0.834000       15.9994           0
     37856 TIP3     4513     TIP3     H1       HT       0.417000       1.00800           0
     37857 TIP3     4513     TIP3     H2       HT       0.417000       1.00800           0
     37858 TIP3     4514     TIP3     OH2      OT      -0.834000       15.9994           0
     37859 TIP3     4514     TIP3     H1       HT       0.417000       1.00800           0
     37860 TIP3     4514     TIP3     H2       HT       0.417000       1.00800           0
     37861 TIP3     4515     TIP3     OH2      OT      -0.834000       15.9994           0
     37862 TIP3     4515     TIP3     H1       HT       0.417000       1.00800           0
     37863 TIP3     4515     TIP3     H2       HT       0.417000       1.00800           0
     37864 TIP3     4516     TIP3     OH2      OT      -0.834000       15.9994           0
     37865 TIP3     4516     TIP3     H1       HT       0.417000       1.00800           0
     37866 TIP3     4516     TIP3     H2       HT       0.417000       1.00800           0
     37867 TIP3     4517     TIP3     OH2      OT      -0.834000       15.9994           0
     37868 TIP3     4517     TIP3     H1       HT       0.417000       1.00800           0
     37869 TIP3     4517     TIP3     H2       HT       0.417000       1.00800           0
     37870 TIP3     4518     TIP3     OH2      OT      -0.834000       15.9994           0
     37871 TIP3     4518     TIP3     H1       HT       0.417000       1.00800           0
     37872 TIP3     4518     TIP3     H2       HT       0.417000       1.00800           0
     37873 TIP3     4519     TIP3     OH2      OT      -0.834000       15.9994           0
     37874 TIP3     4519     TIP3     H1       HT       0.417000       1.00800           0
     37875 TIP3     4519     TIP3     H2       HT       0.417000       1.00800           0
     37876 TIP3     4520     TIP3     OH2      OT      -0.834000       15.9994           0
     37877 TIP3     4520     TIP3     H1       HT       0.417000       1.00800           0
     37878 TIP3     4520     TIP3     H2       HT       0.417000       1.00800           0
     37879 TIP3     4521     TIP3     OH2      OT      -0.834000       15.9994           0
     37880 TIP3     4521     TIP3     H1       HT       0.417000       1.00800           0
     37881 TIP3     4521     TIP3     H2       HT       0.417000       1.00800           0
     37882 TIP3     4522     TIP3     OH2      OT      -0.834000       15.9994           0
     37883 TIP3     4522     TIP3     H1       HT       0.417000       1.00800           0
     37884 TIP3     4522     TIP3     H2       HT       0.417000       1.00800           0
     37885 TIP3     4523     TIP3     OH2      OT      -0.834000       15.9994           0
     37886 TIP3     4523     TIP3     H1       HT       0.417000       1.00800           0
     37887 TIP3     4523     TIP3     H2       HT       0.417000       1.00800           0
     37888 TIP3     4524     TIP3     OH2      OT      -0.834000       15.9994           0
     37889 TIP3     4524     TIP3     H1       HT       0.417000       1.00800           0
     37890 TIP3     4524     TIP3     H2       HT       0.417000       1.00800           0
     37891 TIP3     4525     TIP3     OH2      OT      -0.834000       15.9994           0
     37892 TIP3     4525     TIP3     H1       HT       0.417000       1.00800           0
     37893 TIP3     4525     TIP3     H2       HT       0.417000       1.00800           0
     37894 TIP3     4526     TIP3     OH2      OT      -0.834000       15.9994           0
     37895 TIP3     4526     TIP3     H1       HT       0.417000       1.00800           0
     37896 TIP3     4526     TIP3     H2       HT       0.417000       1.00800           0
     37897 TIP3     4527     TIP3     OH2      OT      -0.834000       15.9994           0
     37898 TIP3     4527     TIP3     H1       HT       0.417000       1.00800           0
     37899 TIP3     4527     TIP3     H2       HT       0.417000       1.00800           0
     37900 TIP3     4528     TIP3     OH2      OT      -0.834000       15.9994           0
     37901 TIP3     4528     TIP3     H1       HT       0.417000       1.00800           0
     37902 TIP3     4528     TIP3     H2       HT       0.417000       1.00800           0
     37903 TIP3     4529     TIP3     OH2      OT      -0.834000       15.9994           0
     37904 TIP3     4529     TIP3     H1       HT       0.417000       1.00800           0
     37905 TIP3     4529     TIP3     H2       HT       0.417000       1.00800           0
     37906 TIP3     4530     TIP3     OH2      OT      -0.834000       15.9994           0
     37907 TIP3     4530     TIP3     H1       HT       0.417000       1.00800           0
     37908 TIP3     4530     TIP3     H2       HT       0.417000       1.00800           0
     37909 TIP3     4531     TIP3     OH2      OT      -0.834000       15.9994           0
     37910 TIP3     4531     TIP3     H1       HT       0.417000       1.00800           0
     37911 TIP3     4531     TIP3     H2       HT       0.417000       1.00800           0
     37912 TIP3     4532     TIP3     OH2      OT      -0.834000       15.9994           0
     37913 TIP3     4532     TIP3     H1       HT       0.417000       1.00800           0
     37914 TIP3     4532     TIP3     H2       HT       0.417000       1.00800           0
     37915 TIP3     4533     TIP3     OH2      OT      -0.834000       15.9994           0
     37916 TIP3     4533     TIP3     H1       HT       0.417000       1.00800           0
     37917 TIP3     4533     TIP3     H2       HT       0.417000       1.00800           0
     37918 TIP3     4534     TIP3     OH2      OT      -0.834000       15.9994           0
     37919 TIP3     4534     TIP3     H1       HT       0.417000       1.00800           0
     37920 TIP3     4534     TIP3     H2       HT       0.417000       1.00800           0
     37921 TIP3     4535     TIP3     OH2      OT      -0.834000       15.9994           0
     37922 TIP3     4535     TIP3     H1       HT       0.417000       1.00800           0
     37923 TIP3     4535     TIP3     H2       HT       0.417000       1.00800           0
     37924 TIP3     4536     TIP3     OH2      OT      -0.834000       15.9994           0
     37925 TIP3     4536     TIP3     H1       HT       0.417000       1.00800           0
     37926 TIP3     4536     TIP3     H2       HT       0.417000       1.00800           0
     37927 TIP3     4537     TIP3     OH2      OT      -0.834000       15.9994           0
     37928 TIP3     4537     TIP3     H1       HT       0.417000       1.00800           0
     37929 TIP3     4537     TIP3     H2       HT       0.417000       1.00800           0
     37930 TIP3     4538     TIP3     OH2      OT      -0.834000       15.9994           0
     37931 TIP3     4538     TIP3     H1       HT       0.417000       1.00800           0
     37932 TIP3     4538     TIP3     H2       HT       0.417000       1.00800           0
     37933 TIP3     4539     TIP3     OH2      OT      -0.834000       15.9994           0
     37934 TIP3     4539     TIP3     H1       HT       0.417000       1.00800           0
     37935 TIP3     4539     TIP3     H2       HT       0.417000       1.00800           0
     37936 TIP3     4540     TIP3     OH2      OT      -0.834000       15.9994           0
     37937 TIP3     4540     TIP3     H1       HT       0.417000       1.00800           0
     37938 TIP3     4540     TIP3     H2       HT       0.417000       1.00800           0
     37939 TIP3     4541     TIP3     OH2      OT      -0.834000       15.9994           0
     37940 TIP3     4541     TIP3     H1       HT       0.417000       1.00800           0
     37941 TIP3     4541     TIP3     H2       HT       0.417000       1.00800           0
     37942 TIP3     4542     TIP3     OH2      OT      -0.834000       15.9994           0
     37943 TIP3     4542     TIP3     H1       HT       0.417000       1.00800           0
     37944 TIP3     4542     TIP3     H2       HT       0.417000       1.00800           0
     37945 TIP3     4543     TIP3     OH2      OT      -0.834000       15.9994           0
     37946 TIP3     4543     TIP3     H1       HT       0.417000       1.00800           0
     37947 TIP3     4543     TIP3     H2       HT       0.417000       1.00800           0
     37948 TIP3     4544     TIP3     OH2      OT      -0.834000       15.9994           0
     37949 TIP3     4544     TIP3     H1       HT       0.417000       1.00800           0
     37950 TIP3     4544     TIP3     H2       HT       0.417000       1.00800           0
     37951 TIP3     4545     TIP3     OH2      OT      -0.834000       15.9994           0
     37952 TIP3     4545     TIP3     H1       HT       0.417000       1.00800           0
     37953 TIP3     4545     TIP3     H2       HT       0.417000       1.00800           0
     37954 TIP3     4546     TIP3     OH2      OT      -0.834000       15.9994           0
     37955 TIP3     4546     TIP3     H1       HT       0.417000       1.00800           0
     37956 TIP3     4546     TIP3     H2       HT       0.417000       1.00800           0
     37957 TIP3     4547     TIP3     OH2      OT      -0.834000       15.9994           0
     37958 TIP3     4547     TIP3     H1       HT       0.417000       1.00800           0
     37959 TIP3     4547     TIP3     H2       HT       0.417000       1.00800           0
     37960 TIP3     4548     TIP3     OH2      OT      -0.834000       15.9994           0
     37961 TIP3     4548     TIP3     H1       HT       0.417000       1.00800           0
     37962 TIP3     4548     TIP3     H2       HT       0.417000       1.00800           0
     37963 TIP3     4549     TIP3     OH2      OT      -0.834000       15.9994           0
     37964 TIP3     4549     TIP3     H1       HT       0.417000       1.00800           0
     37965 TIP3     4549     TIP3     H2       HT       0.417000       1.00800           0
     37966 TIP3     4550     TIP3     OH2      OT      -0.834000       15.9994           0
     37967 TIP3     4550     TIP3     H1       HT       0.417000       1.00800           0
     37968 TIP3     4550     TIP3     H2       HT       0.417000       1.00800           0
     37969 TIP3     4551     TIP3     OH2      OT      -0.834000       15.9994           0
     37970 TIP3     4551     TIP3     H1       HT       0.417000       1.00800           0
     37971 TIP3     4551     TIP3     H2       HT       0.417000       1.00800           0
     37972 TIP3     4552     TIP3     OH2      OT      -0.834000       15.9994           0
     37973 TIP3     4552     TIP3     H1       HT       0.417000       1.00800           0
     37974 TIP3     4552     TIP3     H2       HT       0.417000       1.00800           0
     37975 TIP3     4553     TIP3     OH2      OT      -0.834000       15.9994           0
     37976 TIP3     4553     TIP3     H1       HT       0.417000       1.00800           0
     37977 TIP3     4553     TIP3     H2       HT       0.417000       1.00800           0
     37978 TIP3     4554     TIP3     OH2      OT      -0.834000       15.9994           0
     37979 TIP3     4554     TIP3     H1       HT       0.417000       1.00800           0
     37980 TIP3     4554     TIP3     H2       HT       0.417000       1.00800           0
     37981 TIP3     4555     TIP3     OH2      OT      -0.834000       15.9994           0
     37982 TIP3     4555     TIP3     H1       HT       0.417000       1.00800           0
     37983 TIP3     4555     TIP3     H2       HT       0.417000       1.00800           0
     37984 TIP3     4556     TIP3     OH2      OT      -0.834000       15.9994           0
     37985 TIP3     4556     TIP3     H1       HT       0.417000       1.00800           0
     37986 TIP3     4556     TIP3     H2       HT       0.417000       1.00800           0
     37987 TIP3     4557     TIP3     OH2      OT      -0.834000       15.9994           0
     37988 TIP3     4557     TIP3     H1       HT       0.417000       1.00800           0
     37989 TIP3     4557     TIP3     H2       HT       0.417000       1.00800           0
     37990 TIP3     4558     TIP3     OH2      OT      -0.834000       15.9994           0
     37991 TIP3     4558     TIP3     H1       HT       0.417000       1.00800           0
     37992 TIP3     4558     TIP3     H2       HT       0.417000       1.00800           0
     37993 TIP3     4559     TIP3     OH2      OT      -0.834000       15.9994           0
     37994 TIP3     4559     TIP3     H1       HT       0.417000       1.00800           0
     37995 TIP3     4559     TIP3     H2       HT       0.417000       1.00800           0
     37996 TIP3     4560     TIP3     OH2      OT      -0.834000       15.9994           0
     37997 TIP3     4560     TIP3     H1       HT       0.417000       1.00800           0
     37998 TIP3     4560     TIP3     H2       HT       0.417000       1.00800           0
     37999 TIP3     4561     TIP3     OH2      OT      -0.834000       15.9994           0
     38000 TIP3     4561     TIP3     H1       HT       0.417000       1.00800           0
     38001 TIP3     4561     TIP3     H2       HT       0.417000       1.00800           0
     38002 TIP3     4562     TIP3     OH2      OT      -0.834000       15.9994           0
     38003 TIP3     4562     TIP3     H1       HT       0.417000       1.00800           0
     38004 TIP3     4562     TIP3     H2       HT       0.417000       1.00800           0
     38005 TIP3     4563     TIP3     OH2      OT      -0.834000       15.9994           0
     38006 TIP3     4563     TIP3     H1       HT       0.417000       1.00800           0
     38007 TIP3     4563     TIP3     H2       HT       0.417000       1.00800           0
     38008 TIP3     4564     TIP3     OH2      OT      -0.834000       15.9994           0
     38009 TIP3     4564     TIP3     H1       HT       0.417000       1.00800           0
     38010 TIP3     4564     TIP3     H2       HT       0.417000       1.00800           0
     38011 TIP3     4565     TIP3     OH2      OT      -0.834000       15.9994           0
     38012 TIP3     4565     TIP3     H1       HT       0.417000       1.00800           0
     38013 TIP3     4565     TIP3     H2       HT       0.417000       1.00800           0
     38014 TIP3     4566     TIP3     OH2      OT      -0.834000       15.9994           0
     38015 TIP3     4566     TIP3     H1       HT       0.417000       1.00800           0
     38016 TIP3     4566     TIP3     H2       HT       0.417000       1.00800           0
     38017 TIP3     4567     TIP3     OH2      OT      -0.834000       15.9994           0
     38018 TIP3     4567     TIP3     H1       HT       0.417000       1.00800           0
     38019 TIP3     4567     TIP3     H2       HT       0.417000       1.00800           0
     38020 TIP3     4568     TIP3     OH2      OT      -0.834000       15.9994           0
     38021 TIP3     4568     TIP3     H1       HT       0.417000       1.00800           0
     38022 TIP3     4568     TIP3     H2       HT       0.417000       1.00800           0
     38023 TIP3     4569     TIP3     OH2      OT      -0.834000       15.9994           0
     38024 TIP3     4569     TIP3     H1       HT       0.417000       1.00800           0
     38025 TIP3     4569     TIP3     H2       HT       0.417000       1.00800           0
     38026 TIP3     4570     TIP3     OH2      OT      -0.834000       15.9994           0
     38027 TIP3     4570     TIP3     H1       HT       0.417000       1.00800           0
     38028 TIP3     4570     TIP3     H2       HT       0.417000       1.00800           0
     38029 TIP3     4571     TIP3     OH2      OT      -0.834000       15.9994           0
     38030 TIP3     4571     TIP3     H1       HT       0.417000       1.00800           0
     38031 TIP3     4571     TIP3     H2       HT       0.417000       1.00800           0
     38032 TIP3     4572     TIP3     OH2      OT      -0.834000       15.9994           0
     38033 TIP3     4572     TIP3     H1       HT       0.417000       1.00800           0
     38034 TIP3     4572     TIP3     H2       HT       0.417000       1.00800           0
     38035 TIP3     4573     TIP3     OH2      OT      -0.834000       15.9994           0
     38036 TIP3     4573     TIP3     H1       HT       0.417000       1.00800           0
     38037 TIP3     4573     TIP3     H2       HT       0.417000       1.00800           0
     38038 TIP3     4574     TIP3     OH2      OT      -0.834000       15.9994           0
     38039 TIP3     4574     TIP3     H1       HT       0.417000       1.00800           0
     38040 TIP3     4574     TIP3     H2       HT       0.417000       1.00800           0
     38041 TIP3     4575     TIP3     OH2      OT      -0.834000       15.9994           0
     38042 TIP3     4575     TIP3     H1       HT       0.417000       1.00800           0
     38043 TIP3     4575     TIP3     H2       HT       0.417000       1.00800           0
     38044 TIP3     4576     TIP3     OH2      OT      -0.834000       15.9994           0
     38045 TIP3     4576     TIP3     H1       HT       0.417000       1.00800           0
     38046 TIP3     4576     TIP3     H2       HT       0.417000       1.00800           0
     38047 TIP3     4577     TIP3     OH2      OT      -0.834000       15.9994           0
     38048 TIP3     4577     TIP3     H1       HT       0.417000       1.00800           0
     38049 TIP3     4577     TIP3     H2       HT       0.417000       1.00800           0
     38050 TIP3     4578     TIP3     OH2      OT      -0.834000       15.9994           0
     38051 TIP3     4578     TIP3     H1       HT       0.417000       1.00800           0
     38052 TIP3     4578     TIP3     H2       HT       0.417000       1.00800           0
     38053 TIP3     4579     TIP3     OH2      OT      -0.834000       15.9994           0
     38054 TIP3     4579     TIP3     H1       HT       0.417000       1.00800           0
     38055 TIP3     4579     TIP3     H2       HT       0.417000       1.00800           0
     38056 TIP3     4580     TIP3     OH2      OT      -0.834000       15.9994           0
     38057 TIP3     4580     TIP3     H1       HT       0.417000       1.00800           0
     38058 TIP3     4580     TIP3     H2       HT       0.417000       1.00800           0
     38059 TIP3     4581     TIP3     OH2      OT      -0.834000       15.9994           0
     38060 TIP3     4581     TIP3     H1       HT       0.417000       1.00800           0
     38061 TIP3     4581     TIP3     H2       HT       0.417000       1.00800           0
     38062 TIP3     4582     TIP3     OH2      OT      -0.834000       15.9994           0
     38063 TIP3     4582     TIP3     H1       HT       0.417000       1.00800           0
     38064 TIP3     4582     TIP3     H2       HT       0.417000       1.00800           0
     38065 TIP3     4583     TIP3     OH2      OT      -0.834000       15.9994           0
     38066 TIP3     4583     TIP3     H1       HT       0.417000       1.00800           0
     38067 TIP3     4583     TIP3     H2       HT       0.417000       1.00800           0
     38068 TIP3     4584     TIP3     OH2      OT      -0.834000       15.9994           0
     38069 TIP3     4584     TIP3     H1       HT       0.417000       1.00800           0
     38070 TIP3     4584     TIP3     H2       HT       0.417000       1.00800           0
     38071 TIP3     4585     TIP3     OH2      OT      -0.834000       15.9994           0
     38072 TIP3     4585     TIP3     H1       HT       0.417000       1.00800           0
     38073 TIP3     4585     TIP3     H2       HT       0.417000       1.00800           0
     38074 TIP3     4586     TIP3     OH2      OT      -0.834000       15.9994           0
     38075 TIP3     4586     TIP3     H1       HT       0.417000       1.00800           0
     38076 TIP3     4586     TIP3     H2       HT       0.417000       1.00800           0
     38077 TIP3     4587     TIP3     OH2      OT      -0.834000       15.9994           0
     38078 TIP3     4587     TIP3     H1       HT       0.417000       1.00800           0
     38079 TIP3     4587     TIP3     H2       HT       0.417000       1.00800           0
     38080 TIP3     4588     TIP3     OH2      OT      -0.834000       15.9994           0
     38081 TIP3     4588     TIP3     H1       HT       0.417000       1.00800           0
     38082 TIP3     4588     TIP3     H2       HT       0.417000       1.00800           0
     38083 TIP3     4589     TIP3     OH2      OT      -0.834000       15.9994           0
     38084 TIP3     4589     TIP3     H1       HT       0.417000       1.00800           0
     38085 TIP3     4589     TIP3     H2       HT       0.417000       1.00800           0
     38086 TIP3     4590     TIP3     OH2      OT      -0.834000       15.9994           0
     38087 TIP3     4590     TIP3     H1       HT       0.417000       1.00800           0
     38088 TIP3     4590     TIP3     H2       HT       0.417000       1.00800           0
     38089 TIP3     4591     TIP3     OH2      OT      -0.834000       15.9994           0
     38090 TIP3     4591     TIP3     H1       HT       0.417000       1.00800           0
     38091 TIP3     4591     TIP3     H2       HT       0.417000       1.00800           0
     38092 TIP3     4592     TIP3     OH2      OT      -0.834000       15.9994           0
     38093 TIP3     4592     TIP3     H1       HT       0.417000       1.00800           0
     38094 TIP3     4592     TIP3     H2       HT       0.417000       1.00800           0
     38095 TIP3     4593     TIP3     OH2      OT      -0.834000       15.9994           0
     38096 TIP3     4593     TIP3     H1       HT       0.417000       1.00800           0
     38097 TIP3     4593     TIP3     H2       HT       0.417000       1.00800           0
     38098 TIP3     4594     TIP3     OH2      OT      -0.834000       15.9994           0
     38099 TIP3     4594     TIP3     H1       HT       0.417000       1.00800           0
     38100 TIP3     4594     TIP3     H2       HT       0.417000       1.00800           0
     38101 TIP3     4595     TIP3     OH2      OT      -0.834000       15.9994           0
     38102 TIP3     4595     TIP3     H1       HT       0.417000       1.00800           0
     38103 TIP3     4595     TIP3     H2       HT       0.417000       1.00800           0
     38104 TIP3     4596     TIP3     OH2      OT      -0.834000       15.9994           0
     38105 TIP3     4596     TIP3     H1       HT       0.417000       1.00800           0
     38106 TIP3     4596     TIP3     H2       HT       0.417000       1.00800           0
     38107 TIP3     4597     TIP3     OH2      OT      -0.834000       15.9994           0
     38108 TIP3     4597     TIP3     H1       HT       0.417000       1.00800           0
     38109 TIP3     4597     TIP3     H2       HT       0.417000       1.00800           0
     38110 TIP3     4598     TIP3     OH2      OT      -0.834000       15.9994           0
     38111 TIP3     4598     TIP3     H1       HT       0.417000       1.00800           0
     38112 TIP3     4598     TIP3     H2       HT       0.417000       1.00800           0
     38113 TIP3     4599     TIP3     OH2      OT      -0.834000       15.9994           0
     38114 TIP3     4599     TIP3     H1       HT       0.417000       1.00800           0
     38115 TIP3     4599     TIP3     H2       HT       0.417000       1.00800           0
     38116 TIP3     4600     TIP3     OH2      OT      -0.834000       15.9994           0
     38117 TIP3     4600     TIP3     H1       HT       0.417000       1.00800           0
     38118 TIP3     4600     TIP3     H2       HT       0.417000       1.00800           0
     38119 TIP3     4601     TIP3     OH2      OT      -0.834000       15.9994           0
     38120 TIP3     4601     TIP3     H1       HT       0.417000       1.00800           0
     38121 TIP3     4601     TIP3     H2       HT       0.417000       1.00800           0
     38122 TIP3     4602     TIP3     OH2      OT      -0.834000       15.9994           0
     38123 TIP3     4602     TIP3     H1       HT       0.417000       1.00800           0
     38124 TIP3     4602     TIP3     H2       HT       0.417000       1.00800           0
     38125 TIP3     4603     TIP3     OH2      OT      -0.834000       15.9994           0
     38126 TIP3     4603     TIP3     H1       HT       0.417000       1.00800           0
     38127 TIP3     4603     TIP3     H2       HT       0.417000       1.00800           0
     38128 TIP3     4604     TIP3     OH2      OT      -0.834000       15.9994           0
     38129 TIP3     4604     TIP3     H1       HT       0.417000       1.00800           0
     38130 TIP3     4604     TIP3     H2       HT       0.417000       1.00800           0
     38131 TIP3     4605     TIP3     OH2      OT      -0.834000       15.9994           0
     38132 TIP3     4605     TIP3     H1       HT       0.417000       1.00800           0
     38133 TIP3     4605     TIP3     H2       HT       0.417000       1.00800           0
     38134 TIP3     4606     TIP3     OH2      OT      -0.834000       15.9994           0
     38135 TIP3     4606     TIP3     H1       HT       0.417000       1.00800           0
     38136 TIP3     4606     TIP3     H2       HT       0.417000       1.00800           0
     38137 TIP3     4607     TIP3     OH2      OT      -0.834000       15.9994           0
     38138 TIP3     4607     TIP3     H1       HT       0.417000       1.00800           0
     38139 TIP3     4607     TIP3     H2       HT       0.417000       1.00800           0
     38140 TIP3     4608     TIP3     OH2      OT      -0.834000       15.9994           0
     38141 TIP3     4608     TIP3     H1       HT       0.417000       1.00800           0
     38142 TIP3     4608     TIP3     H2       HT       0.417000       1.00800           0
     38143 TIP3     4609     TIP3     OH2      OT      -0.834000       15.9994           0
     38144 TIP3     4609     TIP3     H1       HT       0.417000       1.00800           0
     38145 TIP3     4609     TIP3     H2       HT       0.417000       1.00800           0
     38146 TIP3     4610     TIP3     OH2      OT      -0.834000       15.9994           0
     38147 TIP3     4610     TIP3     H1       HT       0.417000       1.00800           0
     38148 TIP3     4610     TIP3     H2       HT       0.417000       1.00800           0
     38149 TIP3     4611     TIP3     OH2      OT      -0.834000       15.9994           0
     38150 TIP3     4611     TIP3     H1       HT       0.417000       1.00800           0
     38151 TIP3     4611     TIP3     H2       HT       0.417000       1.00800           0
     38152 TIP3     4612     TIP3     OH2      OT      -0.834000       15.9994           0
     38153 TIP3     4612     TIP3     H1       HT       0.417000       1.00800           0
     38154 TIP3     4612     TIP3     H2       HT       0.417000       1.00800           0
     38155 TIP3     4613     TIP3     OH2      OT      -0.834000       15.9994           0
     38156 TIP3     4613     TIP3     H1       HT       0.417000       1.00800           0
     38157 TIP3     4613     TIP3     H2       HT       0.417000       1.00800           0
     38158 TIP3     4614     TIP3     OH2      OT      -0.834000       15.9994           0
     38159 TIP3     4614     TIP3     H1       HT       0.417000       1.00800           0
     38160 TIP3     4614     TIP3     H2       HT       0.417000       1.00800           0
     38161 TIP3     4615     TIP3     OH2      OT      -0.834000       15.9994           0
     38162 TIP3     4615     TIP3     H1       HT       0.417000       1.00800           0
     38163 TIP3     4615     TIP3     H2       HT       0.417000       1.00800           0
     38164 TIP3     4616     TIP3     OH2      OT      -0.834000       15.9994           0
     38165 TIP3     4616     TIP3     H1       HT       0.417000       1.00800           0
     38166 TIP3     4616     TIP3     H2       HT       0.417000       1.00800           0
     38167 TIP3     4617     TIP3     OH2      OT      -0.834000       15.9994           0
     38168 TIP3     4617     TIP3     H1       HT       0.417000       1.00800           0
     38169 TIP3     4617     TIP3     H2       HT       0.417000       1.00800           0
     38170 TIP3     4618     TIP3     OH2      OT      -0.834000       15.9994           0
     38171 TIP3     4618     TIP3     H1       HT       0.417000       1.00800           0
     38172 TIP3     4618     TIP3     H2       HT       0.417000       1.00800           0
     38173 TIP3     4619     TIP3     OH2      OT      -0.834000       15.9994           0
     38174 TIP3     4619     TIP3     H1       HT       0.417000       1.00800           0
     38175 TIP3     4619     TIP3     H2       HT       0.417000       1.00800           0
     38176 TIP3     4620     TIP3     OH2      OT      -0.834000       15.9994           0
     38177 TIP3     4620     TIP3     H1       HT       0.417000       1.00800           0
     38178 TIP3     4620     TIP3     H2       HT       0.417000       1.00800           0
     38179 TIP3     4621     TIP3     OH2      OT      -0.834000       15.9994           0
     38180 TIP3     4621     TIP3     H1       HT       0.417000       1.00800           0
     38181 TIP3     4621     TIP3     H2       HT       0.417000       1.00800           0
     38182 TIP3     4622     TIP3     OH2      OT      -0.834000       15.9994           0
     38183 TIP3     4622     TIP3     H1       HT       0.417000       1.00800           0
     38184 TIP3     4622     TIP3     H2       HT       0.417000       1.00800           0
     38185 TIP3     4623     TIP3     OH2      OT      -0.834000       15.9994           0
     38186 TIP3     4623     TIP3     H1       HT       0.417000       1.00800           0
     38187 TIP3     4623     TIP3     H2       HT       0.417000       1.00800           0
     38188 TIP3     4624     TIP3     OH2      OT      -0.834000       15.9994           0
     38189 TIP3     4624     TIP3     H1       HT       0.417000       1.00800           0
     38190 TIP3     4624     TIP3     H2       HT       0.417000       1.00800           0
     38191 TIP3     4625     TIP3     OH2      OT      -0.834000       15.9994           0
     38192 TIP3     4625     TIP3     H1       HT       0.417000       1.00800           0
     38193 TIP3     4625     TIP3     H2       HT       0.417000       1.00800           0
     38194 TIP3     4626     TIP3     OH2      OT      -0.834000       15.9994           0
     38195 TIP3     4626     TIP3     H1       HT       0.417000       1.00800           0
     38196 TIP3     4626     TIP3     H2       HT       0.417000       1.00800           0
     38197 TIP3     4627     TIP3     OH2      OT      -0.834000       15.9994           0
     38198 TIP3     4627     TIP3     H1       HT       0.417000       1.00800           0
     38199 TIP3     4627     TIP3     H2       HT       0.417000       1.00800           0
     38200 TIP3     4628     TIP3     OH2      OT      -0.834000       15.9994           0
     38201 TIP3     4628     TIP3     H1       HT       0.417000       1.00800           0
     38202 TIP3     4628     TIP3     H2       HT       0.417000       1.00800           0
     38203 TIP3     4629     TIP3     OH2      OT      -0.834000       15.9994           0
     38204 TIP3     4629     TIP3     H1       HT       0.417000       1.00800           0
     38205 TIP3     4629     TIP3     H2       HT       0.417000       1.00800           0
     38206 TIP3     4630     TIP3     OH2      OT      -0.834000       15.9994           0
     38207 TIP3     4630     TIP3     H1       HT       0.417000       1.00800           0
     38208 TIP3     4630     TIP3     H2       HT       0.417000       1.00800           0
     38209 TIP3     4631     TIP3     OH2      OT      -0.834000       15.9994           0
     38210 TIP3     4631     TIP3     H1       HT       0.417000       1.00800           0
     38211 TIP3     4631     TIP3     H2       HT       0.417000       1.00800           0
     38212 TIP3     4632     TIP3     OH2      OT      -0.834000       15.9994           0
     38213 TIP3     4632     TIP3     H1       HT       0.417000       1.00800           0
     38214 TIP3     4632     TIP3     H2       HT       0.417000       1.00800           0
     38215 TIP3     4633     TIP3     OH2      OT      -0.834000       15.9994           0
     38216 TIP3     4633     TIP3     H1       HT       0.417000       1.00800           0
     38217 TIP3     4633     TIP3     H2       HT       0.417000       1.00800           0
     38218 TIP3     4634     TIP3     OH2      OT      -0.834000       15.9994           0
     38219 TIP3     4634     TIP3     H1       HT       0.417000       1.00800           0
     38220 TIP3     4634     TIP3     H2       HT       0.417000       1.00800           0
     38221 TIP3     4635     TIP3     OH2      OT      -0.834000       15.9994           0
     38222 TIP3     4635     TIP3     H1       HT       0.417000       1.00800           0
     38223 TIP3     4635     TIP3     H2       HT       0.417000       1.00800           0
     38224 TIP3     4636     TIP3     OH2      OT      -0.834000       15.9994           0
     38225 TIP3     4636     TIP3     H1       HT       0.417000       1.00800           0
     38226 TIP3     4636     TIP3     H2       HT       0.417000       1.00800           0
     38227 TIP3     4637     TIP3     OH2      OT      -0.834000       15.9994           0
     38228 TIP3     4637     TIP3     H1       HT       0.417000       1.00800           0
     38229 TIP3     4637     TIP3     H2       HT       0.417000       1.00800           0
     38230 TIP3     4638     TIP3     OH2      OT      -0.834000       15.9994           0
     38231 TIP3     4638     TIP3     H1       HT       0.417000       1.00800           0
     38232 TIP3     4638     TIP3     H2       HT       0.417000       1.00800           0
     38233 TIP3     4639     TIP3     OH2      OT      -0.834000       15.9994           0
     38234 TIP3     4639     TIP3     H1       HT       0.417000       1.00800           0
     38235 TIP3     4639     TIP3     H2       HT       0.417000       1.00800           0
     38236 TIP3     4640     TIP3     OH2      OT      -0.834000       15.9994           0
     38237 TIP3     4640     TIP3     H1       HT       0.417000       1.00800           0
     38238 TIP3     4640     TIP3     H2       HT       0.417000       1.00800           0
     38239 TIP3     4641     TIP3     OH2      OT      -0.834000       15.9994           0
     38240 TIP3     4641     TIP3     H1       HT       0.417000       1.00800           0
     38241 TIP3     4641     TIP3     H2       HT       0.417000       1.00800           0
     38242 TIP3     4642     TIP3     OH2      OT      -0.834000       15.9994           0
     38243 TIP3     4642     TIP3     H1       HT       0.417000       1.00800           0
     38244 TIP3     4642     TIP3     H2       HT       0.417000       1.00800           0
     38245 TIP3     4643     TIP3     OH2      OT      -0.834000       15.9994           0
     38246 TIP3     4643     TIP3     H1       HT       0.417000       1.00800           0
     38247 TIP3     4643     TIP3     H2       HT       0.417000       1.00800           0
     38248 TIP3     4644     TIP3     OH2      OT      -0.834000       15.9994           0
     38249 TIP3     4644     TIP3     H1       HT       0.417000       1.00800           0
     38250 TIP3     4644     TIP3     H2       HT       0.417000       1.00800           0
     38251 TIP3     4645     TIP3     OH2      OT      -0.834000       15.9994           0
     38252 TIP3     4645     TIP3     H1       HT       0.417000       1.00800           0
     38253 TIP3     4645     TIP3     H2       HT       0.417000       1.00800           0
     38254 TIP3     4646     TIP3     OH2      OT      -0.834000       15.9994           0
     38255 TIP3     4646     TIP3     H1       HT       0.417000       1.00800           0
     38256 TIP3     4646     TIP3     H2       HT       0.417000       1.00800           0
     38257 TIP3     4647     TIP3     OH2      OT      -0.834000       15.9994           0
     38258 TIP3     4647     TIP3     H1       HT       0.417000       1.00800           0
     38259 TIP3     4647     TIP3     H2       HT       0.417000       1.00800           0
     38260 TIP3     4648     TIP3     OH2      OT      -0.834000       15.9994           0
     38261 TIP3     4648     TIP3     H1       HT       0.417000       1.00800           0
     38262 TIP3     4648     TIP3     H2       HT       0.417000       1.00800           0
     38263 TIP3     4649     TIP3     OH2      OT      -0.834000       15.9994           0
     38264 TIP3     4649     TIP3     H1       HT       0.417000       1.00800           0
     38265 TIP3     4649     TIP3     H2       HT       0.417000       1.00800           0
     38266 TIP3     4650     TIP3     OH2      OT      -0.834000       15.9994           0
     38267 TIP3     4650     TIP3     H1       HT       0.417000       1.00800           0
     38268 TIP3     4650     TIP3     H2       HT       0.417000       1.00800           0
     38269 TIP3     4651     TIP3     OH2      OT      -0.834000       15.9994           0
     38270 TIP3     4651     TIP3     H1       HT       0.417000       1.00800           0
     38271 TIP3     4651     TIP3     H2       HT       0.417000       1.00800           0
     38272 TIP3     4652     TIP3     OH2      OT      -0.834000       15.9994           0
     38273 TIP3     4652     TIP3     H1       HT       0.417000       1.00800           0
     38274 TIP3     4652     TIP3     H2       HT       0.417000       1.00800           0
     38275 TIP3     4653     TIP3     OH2      OT      -0.834000       15.9994           0
     38276 TIP3     4653     TIP3     H1       HT       0.417000       1.00800           0
     38277 TIP3     4653     TIP3     H2       HT       0.417000       1.00800           0
     38278 TIP3     4654     TIP3     OH2      OT      -0.834000       15.9994           0
     38279 TIP3     4654     TIP3     H1       HT       0.417000       1.00800           0
     38280 TIP3     4654     TIP3     H2       HT       0.417000       1.00800           0
     38281 TIP3     4655     TIP3     OH2      OT      -0.834000       15.9994           0
     38282 TIP3     4655     TIP3     H1       HT       0.417000       1.00800           0
     38283 TIP3     4655     TIP3     H2       HT       0.417000       1.00800           0
     38284 TIP3     4656     TIP3     OH2      OT      -0.834000       15.9994           0
     38285 TIP3     4656     TIP3     H1       HT       0.417000       1.00800           0
     38286 TIP3     4656     TIP3     H2       HT       0.417000       1.00800           0
     38287 TIP3     4657     TIP3     OH2      OT      -0.834000       15.9994           0
     38288 TIP3     4657     TIP3     H1       HT       0.417000       1.00800           0
     38289 TIP3     4657     TIP3     H2       HT       0.417000       1.00800           0
     38290 TIP3     4658     TIP3     OH2      OT      -0.834000       15.9994           0
     38291 TIP3     4658     TIP3     H1       HT       0.417000       1.00800           0
     38292 TIP3     4658     TIP3     H2       HT       0.417000       1.00800           0
     38293 TIP3     4659     TIP3     OH2      OT      -0.834000       15.9994           0
     38294 TIP3     4659     TIP3     H1       HT       0.417000       1.00800           0
     38295 TIP3     4659     TIP3     H2       HT       0.417000       1.00800           0
     38296 TIP3     4660     TIP3     OH2      OT      -0.834000       15.9994           0
     38297 TIP3     4660     TIP3     H1       HT       0.417000       1.00800           0
     38298 TIP3     4660     TIP3     H2       HT       0.417000       1.00800           0
     38299 TIP3     4661     TIP3     OH2      OT      -0.834000       15.9994           0
     38300 TIP3     4661     TIP3     H1       HT       0.417000       1.00800           0
     38301 TIP3     4661     TIP3     H2       HT       0.417000       1.00800           0
     38302 TIP3     4662     TIP3     OH2      OT      -0.834000       15.9994           0
     38303 TIP3     4662     TIP3     H1       HT       0.417000       1.00800           0
     38304 TIP3     4662     TIP3     H2       HT       0.417000       1.00800           0
     38305 TIP3     4663     TIP3     OH2      OT      -0.834000       15.9994           0
     38306 TIP3     4663     TIP3     H1       HT       0.417000       1.00800           0
     38307 TIP3     4663     TIP3     H2       HT       0.417000       1.00800           0
     38308 TIP3     4664     TIP3     OH2      OT      -0.834000       15.9994           0
     38309 TIP3     4664     TIP3     H1       HT       0.417000       1.00800           0
     38310 TIP3     4664     TIP3     H2       HT       0.417000       1.00800           0
     38311 TIP3     4665     TIP3     OH2      OT      -0.834000       15.9994           0
     38312 TIP3     4665     TIP3     H1       HT       0.417000       1.00800           0
     38313 TIP3     4665     TIP3     H2       HT       0.417000       1.00800           0
     38314 TIP3     4666     TIP3     OH2      OT      -0.834000       15.9994           0
     38315 TIP3     4666     TIP3     H1       HT       0.417000       1.00800           0
     38316 TIP3     4666     TIP3     H2       HT       0.417000       1.00800           0
     38317 TIP3     4667     TIP3     OH2      OT      -0.834000       15.9994           0
     38318 TIP3     4667     TIP3     H1       HT       0.417000       1.00800           0
     38319 TIP3     4667     TIP3     H2       HT       0.417000       1.00800           0
     38320 TIP3     4668     TIP3     OH2      OT      -0.834000       15.9994           0
     38321 TIP3     4668     TIP3     H1       HT       0.417000       1.00800           0
     38322 TIP3     4668     TIP3     H2       HT       0.417000       1.00800           0
     38323 TIP3     4669     TIP3     OH2      OT      -0.834000       15.9994           0
     38324 TIP3     4669     TIP3     H1       HT       0.417000       1.00800           0
     38325 TIP3     4669     TIP3     H2       HT       0.417000       1.00800           0
     38326 TIP3     4670     TIP3     OH2      OT      -0.834000       15.9994           0
     38327 TIP3     4670     TIP3     H1       HT       0.417000       1.00800           0
     38328 TIP3     4670     TIP3     H2       HT       0.417000       1.00800           0
     38329 TIP3     4671     TIP3     OH2      OT      -0.834000       15.9994           0
     38330 TIP3     4671     TIP3     H1       HT       0.417000       1.00800           0
     38331 TIP3     4671     TIP3     H2       HT       0.417000       1.00800           0
     38332 TIP3     4672     TIP3     OH2      OT      -0.834000       15.9994           0
     38333 TIP3     4672     TIP3     H1       HT       0.417000       1.00800           0
     38334 TIP3     4672     TIP3     H2       HT       0.417000       1.00800           0
     38335 TIP3     4673     TIP3     OH2      OT      -0.834000       15.9994           0
     38336 TIP3     4673     TIP3     H1       HT       0.417000       1.00800           0
     38337 TIP3     4673     TIP3     H2       HT       0.417000       1.00800           0
     38338 TIP3     4674     TIP3     OH2      OT      -0.834000       15.9994           0
     38339 TIP3     4674     TIP3     H1       HT       0.417000       1.00800           0
     38340 TIP3     4674     TIP3     H2       HT       0.417000       1.00800           0
     38341 TIP3     4675     TIP3     OH2      OT      -0.834000       15.9994           0
     38342 TIP3     4675     TIP3     H1       HT       0.417000       1.00800           0
     38343 TIP3     4675     TIP3     H2       HT       0.417000       1.00800           0
     38344 TIP3     4676     TIP3     OH2      OT      -0.834000       15.9994           0
     38345 TIP3     4676     TIP3     H1       HT       0.417000       1.00800           0
     38346 TIP3     4676     TIP3     H2       HT       0.417000       1.00800           0
     38347 TIP3     4677     TIP3     OH2      OT      -0.834000       15.9994           0
     38348 TIP3     4677     TIP3     H1       HT       0.417000       1.00800           0
     38349 TIP3     4677     TIP3     H2       HT       0.417000       1.00800           0
     38350 TIP3     4678     TIP3     OH2      OT      -0.834000       15.9994           0
     38351 TIP3     4678     TIP3     H1       HT       0.417000       1.00800           0
     38352 TIP3     4678     TIP3     H2       HT       0.417000       1.00800           0
     38353 TIP3     4679     TIP3     OH2      OT      -0.834000       15.9994           0
     38354 TIP3     4679     TIP3     H1       HT       0.417000       1.00800           0
     38355 TIP3     4679     TIP3     H2       HT       0.417000       1.00800           0
     38356 TIP3     4680     TIP3     OH2      OT      -0.834000       15.9994           0
     38357 TIP3     4680     TIP3     H1       HT       0.417000       1.00800           0
     38358 TIP3     4680     TIP3     H2       HT       0.417000       1.00800           0
     38359 TIP3     4681     TIP3     OH2      OT      -0.834000       15.9994           0
     38360 TIP3     4681     TIP3     H1       HT       0.417000       1.00800           0
     38361 TIP3     4681     TIP3     H2       HT       0.417000       1.00800           0
     38362 TIP3     4682     TIP3     OH2      OT      -0.834000       15.9994           0
     38363 TIP3     4682     TIP3     H1       HT       0.417000       1.00800           0
     38364 TIP3     4682     TIP3     H2       HT       0.417000       1.00800           0
     38365 TIP3     4683     TIP3     OH2      OT      -0.834000       15.9994           0
     38366 TIP3     4683     TIP3     H1       HT       0.417000       1.00800           0
     38367 TIP3     4683     TIP3     H2       HT       0.417000       1.00800           0
     38368 TIP3     4684     TIP3     OH2      OT      -0.834000       15.9994           0
     38369 TIP3     4684     TIP3     H1       HT       0.417000       1.00800           0
     38370 TIP3     4684     TIP3     H2       HT       0.417000       1.00800           0
     38371 TIP3     4685     TIP3     OH2      OT      -0.834000       15.9994           0
     38372 TIP3     4685     TIP3     H1       HT       0.417000       1.00800           0
     38373 TIP3     4685     TIP3     H2       HT       0.417000       1.00800           0
     38374 TIP3     4686     TIP3     OH2      OT      -0.834000       15.9994           0
     38375 TIP3     4686     TIP3     H1       HT       0.417000       1.00800           0
     38376 TIP3     4686     TIP3     H2       HT       0.417000       1.00800           0
     38377 TIP3     4687     TIP3     OH2      OT      -0.834000       15.9994           0
     38378 TIP3     4687     TIP3     H1       HT       0.417000       1.00800           0
     38379 TIP3     4687     TIP3     H2       HT       0.417000       1.00800           0
     38380 TIP3     4688     TIP3     OH2      OT      -0.834000       15.9994           0
     38381 TIP3     4688     TIP3     H1       HT       0.417000       1.00800           0
     38382 TIP3     4688     TIP3     H2       HT       0.417000       1.00800           0
     38383 TIP3     4689     TIP3     OH2      OT      -0.834000       15.9994           0
     38384 TIP3     4689     TIP3     H1       HT       0.417000       1.00800           0
     38385 TIP3     4689     TIP3     H2       HT       0.417000       1.00800           0
     38386 TIP3     4690     TIP3     OH2      OT      -0.834000       15.9994           0
     38387 TIP3     4690     TIP3     H1       HT       0.417000       1.00800           0
     38388 TIP3     4690     TIP3     H2       HT       0.417000       1.00800           0
     38389 TIP3     4691     TIP3     OH2      OT      -0.834000       15.9994           0
     38390 TIP3     4691     TIP3     H1       HT       0.417000       1.00800           0
     38391 TIP3     4691     TIP3     H2       HT       0.417000       1.00800           0
     38392 TIP3     4692     TIP3     OH2      OT      -0.834000       15.9994           0
     38393 TIP3     4692     TIP3     H1       HT       0.417000       1.00800           0
     38394 TIP3     4692     TIP3     H2       HT       0.417000       1.00800           0
     38395 TIP3     4693     TIP3     OH2      OT      -0.834000       15.9994           0
     38396 TIP3     4693     TIP3     H1       HT       0.417000       1.00800           0
     38397 TIP3     4693     TIP3     H2       HT       0.417000       1.00800           0
     38398 TIP3     4694     TIP3     OH2      OT      -0.834000       15.9994           0
     38399 TIP3     4694     TIP3     H1       HT       0.417000       1.00800           0
     38400 TIP3     4694     TIP3     H2       HT       0.417000       1.00800           0
     38401 TIP3     4695     TIP3     OH2      OT      -0.834000       15.9994           0
     38402 TIP3     4695     TIP3     H1       HT       0.417000       1.00800           0
     38403 TIP3     4695     TIP3     H2       HT       0.417000       1.00800           0
     38404 TIP3     4696     TIP3     OH2      OT      -0.834000       15.9994           0
     38405 TIP3     4696     TIP3     H1       HT       0.417000       1.00800           0
     38406 TIP3     4696     TIP3     H2       HT       0.417000       1.00800           0
     38407 TIP3     4697     TIP3     OH2      OT      -0.834000       15.9994           0
     38408 TIP3     4697     TIP3     H1       HT       0.417000       1.00800           0
     38409 TIP3     4697     TIP3     H2       HT       0.417000       1.00800           0
     38410 TIP3     4698     TIP3     OH2      OT      -0.834000       15.9994           0
     38411 TIP3     4698     TIP3     H1       HT       0.417000       1.00800           0
     38412 TIP3     4698     TIP3     H2       HT       0.417000       1.00800           0
     38413 TIP3     4699     TIP3     OH2      OT      -0.834000       15.9994           0
     38414 TIP3     4699     TIP3     H1       HT       0.417000       1.00800           0
     38415 TIP3     4699     TIP3     H2       HT       0.417000       1.00800           0
     38416 TIP3     4700     TIP3     OH2      OT      -0.834000       15.9994           0
     38417 TIP3     4700     TIP3     H1       HT       0.417000       1.00800           0
     38418 TIP3     4700     TIP3     H2       HT       0.417000       1.00800           0
     38419 TIP3     4701     TIP3     OH2      OT      -0.834000       15.9994           0
     38420 TIP3     4701     TIP3     H1       HT       0.417000       1.00800           0
     38421 TIP3     4701     TIP3     H2       HT       0.417000       1.00800           0
     38422 TIP3     4702     TIP3     OH2      OT      -0.834000       15.9994           0
     38423 TIP3     4702     TIP3     H1       HT       0.417000       1.00800           0
     38424 TIP3     4702     TIP3     H2       HT       0.417000       1.00800           0
     38425 TIP3     4703     TIP3     OH2      OT      -0.834000       15.9994           0
     38426 TIP3     4703     TIP3     H1       HT       0.417000       1.00800           0
     38427 TIP3     4703     TIP3     H2       HT       0.417000       1.00800           0
     38428 TIP3     4704     TIP3     OH2      OT      -0.834000       15.9994           0
     38429 TIP3     4704     TIP3     H1       HT       0.417000       1.00800           0
     38430 TIP3     4704     TIP3     H2       HT       0.417000       1.00800           0
     38431 TIP3     4705     TIP3     OH2      OT      -0.834000       15.9994           0
     38432 TIP3     4705     TIP3     H1       HT       0.417000       1.00800           0
     38433 TIP3     4705     TIP3     H2       HT       0.417000       1.00800           0
     38434 TIP3     4706     TIP3     OH2      OT      -0.834000       15.9994           0
     38435 TIP3     4706     TIP3     H1       HT       0.417000       1.00800           0
     38436 TIP3     4706     TIP3     H2       HT       0.417000       1.00800           0
     38437 TIP3     4707     TIP3     OH2      OT      -0.834000       15.9994           0
     38438 TIP3     4707     TIP3     H1       HT       0.417000       1.00800           0
     38439 TIP3     4707     TIP3     H2       HT       0.417000       1.00800           0
     38440 TIP3     4708     TIP3     OH2      OT      -0.834000       15.9994           0
     38441 TIP3     4708     TIP3     H1       HT       0.417000       1.00800           0
     38442 TIP3     4708     TIP3     H2       HT       0.417000       1.00800           0
     38443 TIP3     4709     TIP3     OH2      OT      -0.834000       15.9994           0
     38444 TIP3     4709     TIP3     H1       HT       0.417000       1.00800           0
     38445 TIP3     4709     TIP3     H2       HT       0.417000       1.00800           0
     38446 TIP3     4710     TIP3     OH2      OT      -0.834000       15.9994           0
     38447 TIP3     4710     TIP3     H1       HT       0.417000       1.00800           0
     38448 TIP3     4710     TIP3     H2       HT       0.417000       1.00800           0
     38449 TIP3     4711     TIP3     OH2      OT      -0.834000       15.9994           0
     38450 TIP3     4711     TIP3     H1       HT       0.417000       1.00800           0
     38451 TIP3     4711     TIP3     H2       HT       0.417000       1.00800           0
     38452 TIP3     4712     TIP3     OH2      OT      -0.834000       15.9994           0
     38453 TIP3     4712     TIP3     H1       HT       0.417000       1.00800           0
     38454 TIP3     4712     TIP3     H2       HT       0.417000       1.00800           0
     38455 TIP3     4713     TIP3     OH2      OT      -0.834000       15.9994           0
     38456 TIP3     4713     TIP3     H1       HT       0.417000       1.00800           0
     38457 TIP3     4713     TIP3     H2       HT       0.417000       1.00800           0
     38458 TIP3     4714     TIP3     OH2      OT      -0.834000       15.9994           0
     38459 TIP3     4714     TIP3     H1       HT       0.417000       1.00800           0
     38460 TIP3     4714     TIP3     H2       HT       0.417000       1.00800           0
     38461 TIP3     4715     TIP3     OH2      OT      -0.834000       15.9994           0
     38462 TIP3     4715     TIP3     H1       HT       0.417000       1.00800           0
     38463 TIP3     4715     TIP3     H2       HT       0.417000       1.00800           0
     38464 TIP3     4716     TIP3     OH2      OT      -0.834000       15.9994           0
     38465 TIP3     4716     TIP3     H1       HT       0.417000       1.00800           0
     38466 TIP3     4716     TIP3     H2       HT       0.417000       1.00800           0
     38467 TIP3     4717     TIP3     OH2      OT      -0.834000       15.9994           0
     38468 TIP3     4717     TIP3     H1       HT       0.417000       1.00800           0
     38469 TIP3     4717     TIP3     H2       HT       0.417000       1.00800           0
     38470 TIP3     4718     TIP3     OH2      OT      -0.834000       15.9994           0
     38471 TIP3     4718     TIP3     H1       HT       0.417000       1.00800           0
     38472 TIP3     4718     TIP3     H2       HT       0.417000       1.00800           0
     38473 TIP3     4719     TIP3     OH2      OT      -0.834000       15.9994           0
     38474 TIP3     4719     TIP3     H1       HT       0.417000       1.00800           0
     38475 TIP3     4719     TIP3     H2       HT       0.417000       1.00800           0
     38476 TIP3     4720     TIP3     OH2      OT      -0.834000       15.9994           0
     38477 TIP3     4720     TIP3     H1       HT       0.417000       1.00800           0
     38478 TIP3     4720     TIP3     H2       HT       0.417000       1.00800           0
     38479 TIP3     4721     TIP3     OH2      OT      -0.834000       15.9994           0
     38480 TIP3     4721     TIP3     H1       HT       0.417000       1.00800           0
     38481 TIP3     4721     TIP3     H2       HT       0.417000       1.00800           0
     38482 TIP3     4722     TIP3     OH2      OT      -0.834000       15.9994           0
     38483 TIP3     4722     TIP3     H1       HT       0.417000       1.00800           0
     38484 TIP3     4722     TIP3     H2       HT       0.417000       1.00800           0
     38485 TIP3     4723     TIP3     OH2      OT      -0.834000       15.9994           0
     38486 TIP3     4723     TIP3     H1       HT       0.417000       1.00800           0
     38487 TIP3     4723     TIP3     H2       HT       0.417000       1.00800           0
     38488 TIP3     4724     TIP3     OH2      OT      -0.834000       15.9994           0
     38489 TIP3     4724     TIP3     H1       HT       0.417000       1.00800           0
     38490 TIP3     4724     TIP3     H2       HT       0.417000       1.00800           0
     38491 TIP3     4725     TIP3     OH2      OT      -0.834000       15.9994           0
     38492 TIP3     4725     TIP3     H1       HT       0.417000       1.00800           0
     38493 TIP3     4725     TIP3     H2       HT       0.417000       1.00800           0
     38494 TIP3     4726     TIP3     OH2      OT      -0.834000       15.9994           0
     38495 TIP3     4726     TIP3     H1       HT       0.417000       1.00800           0
     38496 TIP3     4726     TIP3     H2       HT       0.417000       1.00800           0
     38497 TIP3     4727     TIP3     OH2      OT      -0.834000       15.9994           0
     38498 TIP3     4727     TIP3     H1       HT       0.417000       1.00800           0
     38499 TIP3     4727     TIP3     H2       HT       0.417000       1.00800           0
     38500 TIP3     4728     TIP3     OH2      OT      -0.834000       15.9994           0
     38501 TIP3     4728     TIP3     H1       HT       0.417000       1.00800           0
     38502 TIP3     4728     TIP3     H2       HT       0.417000       1.00800           0
     38503 TIP3     4729     TIP3     OH2      OT      -0.834000       15.9994           0
     38504 TIP3     4729     TIP3     H1       HT       0.417000       1.00800           0
     38505 TIP3     4729     TIP3     H2       HT       0.417000       1.00800           0
     38506 TIP3     4730     TIP3     OH2      OT      -0.834000       15.9994           0
     38507 TIP3     4730     TIP3     H1       HT       0.417000       1.00800           0
     38508 TIP3     4730     TIP3     H2       HT       0.417000       1.00800           0
     38509 TIP3     4731     TIP3     OH2      OT      -0.834000       15.9994           0
     38510 TIP3     4731     TIP3     H1       HT       0.417000       1.00800           0
     38511 TIP3     4731     TIP3     H2       HT       0.417000       1.00800           0
     38512 TIP3     4732     TIP3     OH2      OT      -0.834000       15.9994           0
     38513 TIP3     4732     TIP3     H1       HT       0.417000       1.00800           0
     38514 TIP3     4732     TIP3     H2       HT       0.417000       1.00800           0
     38515 TIP3     4733     TIP3     OH2      OT      -0.834000       15.9994           0
     38516 TIP3     4733     TIP3     H1       HT       0.417000       1.00800           0
     38517 TIP3     4733     TIP3     H2       HT       0.417000       1.00800           0
     38518 TIP3     4734     TIP3     OH2      OT      -0.834000       15.9994           0
     38519 TIP3     4734     TIP3     H1       HT       0.417000       1.00800           0
     38520 TIP3     4734     TIP3     H2       HT       0.417000       1.00800           0
     38521 TIP3     4735     TIP3     OH2      OT      -0.834000       15.9994           0
     38522 TIP3     4735     TIP3     H1       HT       0.417000       1.00800           0
     38523 TIP3     4735     TIP3     H2       HT       0.417000       1.00800           0
     38524 TIP3     4736     TIP3     OH2      OT      -0.834000       15.9994           0
     38525 TIP3     4736     TIP3     H1       HT       0.417000       1.00800           0
     38526 TIP3     4736     TIP3     H2       HT       0.417000       1.00800           0
     38527 TIP3     4737     TIP3     OH2      OT      -0.834000       15.9994           0
     38528 TIP3     4737     TIP3     H1       HT       0.417000       1.00800           0
     38529 TIP3     4737     TIP3     H2       HT       0.417000       1.00800           0
     38530 TIP3     4738     TIP3     OH2      OT      -0.834000       15.9994           0
     38531 TIP3     4738     TIP3     H1       HT       0.417000       1.00800           0
     38532 TIP3     4738     TIP3     H2       HT       0.417000       1.00800           0
     38533 TIP3     4739     TIP3     OH2      OT      -0.834000       15.9994           0
     38534 TIP3     4739     TIP3     H1       HT       0.417000       1.00800           0
     38535 TIP3     4739     TIP3     H2       HT       0.417000       1.00800           0
     38536 TIP3     4740     TIP3     OH2      OT      -0.834000       15.9994           0
     38537 TIP3     4740     TIP3     H1       HT       0.417000       1.00800           0
     38538 TIP3     4740     TIP3     H2       HT       0.417000       1.00800           0
     38539 TIP3     4741     TIP3     OH2      OT      -0.834000       15.9994           0
     38540 TIP3     4741     TIP3     H1       HT       0.417000       1.00800           0
     38541 TIP3     4741     TIP3     H2       HT       0.417000       1.00800           0
     38542 TIP3     4742     TIP3     OH2      OT      -0.834000       15.9994           0
     38543 TIP3     4742     TIP3     H1       HT       0.417000       1.00800           0
     38544 TIP3     4742     TIP3     H2       HT       0.417000       1.00800           0
     38545 TIP3     4743     TIP3     OH2      OT      -0.834000       15.9994           0
     38546 TIP3     4743     TIP3     H1       HT       0.417000       1.00800           0
     38547 TIP3     4743     TIP3     H2       HT       0.417000       1.00800           0
     38548 TIP3     4744     TIP3     OH2      OT      -0.834000       15.9994           0
     38549 TIP3     4744     TIP3     H1       HT       0.417000       1.00800           0
     38550 TIP3     4744     TIP3     H2       HT       0.417000       1.00800           0
     38551 TIP3     4745     TIP3     OH2      OT      -0.834000       15.9994           0
     38552 TIP3     4745     TIP3     H1       HT       0.417000       1.00800           0
     38553 TIP3     4745     TIP3     H2       HT       0.417000       1.00800           0
     38554 TIP3     4746     TIP3     OH2      OT      -0.834000       15.9994           0
     38555 TIP3     4746     TIP3     H1       HT       0.417000       1.00800           0
     38556 TIP3     4746     TIP3     H2       HT       0.417000       1.00800           0
     38557 TIP3     4747     TIP3     OH2      OT      -0.834000       15.9994           0
     38558 TIP3     4747     TIP3     H1       HT       0.417000       1.00800           0
     38559 TIP3     4747     TIP3     H2       HT       0.417000       1.00800           0
     38560 TIP3     4748     TIP3     OH2      OT      -0.834000       15.9994           0
     38561 TIP3     4748     TIP3     H1       HT       0.417000       1.00800           0
     38562 TIP3     4748     TIP3     H2       HT       0.417000       1.00800           0
     38563 TIP3     4749     TIP3     OH2      OT      -0.834000       15.9994           0
     38564 TIP3     4749     TIP3     H1       HT       0.417000       1.00800           0
     38565 TIP3     4749     TIP3     H2       HT       0.417000       1.00800           0
     38566 TIP3     4750     TIP3     OH2      OT      -0.834000       15.9994           0
     38567 TIP3     4750     TIP3     H1       HT       0.417000       1.00800           0
     38568 TIP3     4750     TIP3     H2       HT       0.417000       1.00800           0
     38569 TIP3     4751     TIP3     OH2      OT      -0.834000       15.9994           0
     38570 TIP3     4751     TIP3     H1       HT       0.417000       1.00800           0
     38571 TIP3     4751     TIP3     H2       HT       0.417000       1.00800           0
     38572 TIP3     4752     TIP3     OH2      OT      -0.834000       15.9994           0
     38573 TIP3     4752     TIP3     H1       HT       0.417000       1.00800           0
     38574 TIP3     4752     TIP3     H2       HT       0.417000       1.00800           0
     38575 TIP3     4753     TIP3     OH2      OT      -0.834000       15.9994           0
     38576 TIP3     4753     TIP3     H1       HT       0.417000       1.00800           0
     38577 TIP3     4753     TIP3     H2       HT       0.417000       1.00800           0
     38578 TIP3     4754     TIP3     OH2      OT      -0.834000       15.9994           0
     38579 TIP3     4754     TIP3     H1       HT       0.417000       1.00800           0
     38580 TIP3     4754     TIP3     H2       HT       0.417000       1.00800           0
     38581 TIP3     4755     TIP3     OH2      OT      -0.834000       15.9994           0
     38582 TIP3     4755     TIP3     H1       HT       0.417000       1.00800           0
     38583 TIP3     4755     TIP3     H2       HT       0.417000       1.00800           0
     38584 TIP3     4756     TIP3     OH2      OT      -0.834000       15.9994           0
     38585 TIP3     4756     TIP3     H1       HT       0.417000       1.00800           0
     38586 TIP3     4756     TIP3     H2       HT       0.417000       1.00800           0
     38587 TIP3     4757     TIP3     OH2      OT      -0.834000       15.9994           0
     38588 TIP3     4757     TIP3     H1       HT       0.417000       1.00800           0
     38589 TIP3     4757     TIP3     H2       HT       0.417000       1.00800           0
     38590 TIP3     4758     TIP3     OH2      OT      -0.834000       15.9994           0
     38591 TIP3     4758     TIP3     H1       HT       0.417000       1.00800           0
     38592 TIP3     4758     TIP3     H2       HT       0.417000       1.00800           0
     38593 TIP3     4759     TIP3     OH2      OT      -0.834000       15.9994           0
     38594 TIP3     4759     TIP3     H1       HT       0.417000       1.00800           0
     38595 TIP3     4759     TIP3     H2       HT       0.417000       1.00800           0
     38596 TIP3     4760     TIP3     OH2      OT      -0.834000       15.9994           0
     38597 TIP3     4760     TIP3     H1       HT       0.417000       1.00800           0
     38598 TIP3     4760     TIP3     H2       HT       0.417000       1.00800           0
     38599 TIP3     4761     TIP3     OH2      OT      -0.834000       15.9994           0
     38600 TIP3     4761     TIP3     H1       HT       0.417000       1.00800           0
     38601 TIP3     4761     TIP3     H2       HT       0.417000       1.00800           0
     38602 TIP3     4762     TIP3     OH2      OT      -0.834000       15.9994           0
     38603 TIP3     4762     TIP3     H1       HT       0.417000       1.00800           0
     38604 TIP3     4762     TIP3     H2       HT       0.417000       1.00800           0
     38605 TIP3     4763     TIP3     OH2      OT      -0.834000       15.9994           0
     38606 TIP3     4763     TIP3     H1       HT       0.417000       1.00800           0
     38607 TIP3     4763     TIP3     H2       HT       0.417000       1.00800           0
     38608 TIP3     4764     TIP3     OH2      OT      -0.834000       15.9994           0
     38609 TIP3     4764     TIP3     H1       HT       0.417000       1.00800           0
     38610 TIP3     4764     TIP3     H2       HT       0.417000       1.00800           0
     38611 TIP3     4765     TIP3     OH2      OT      -0.834000       15.9994           0
     38612 TIP3     4765     TIP3     H1       HT       0.417000       1.00800           0
     38613 TIP3     4765     TIP3     H2       HT       0.417000       1.00800           0
     38614 TIP3     4766     TIP3     OH2      OT      -0.834000       15.9994           0
     38615 TIP3     4766     TIP3     H1       HT       0.417000       1.00800           0
     38616 TIP3     4766     TIP3     H2       HT       0.417000       1.00800           0
     38617 TIP3     4767     TIP3     OH2      OT      -0.834000       15.9994           0
     38618 TIP3     4767     TIP3     H1       HT       0.417000       1.00800           0
     38619 TIP3     4767     TIP3     H2       HT       0.417000       1.00800           0
     38620 TIP3     4768     TIP3     OH2      OT      -0.834000       15.9994           0
     38621 TIP3     4768     TIP3     H1       HT       0.417000       1.00800           0
     38622 TIP3     4768     TIP3     H2       HT       0.417000       1.00800           0
     38623 TIP3     4769     TIP3     OH2      OT      -0.834000       15.9994           0
     38624 TIP3     4769     TIP3     H1       HT       0.417000       1.00800           0
     38625 TIP3     4769     TIP3     H2       HT       0.417000       1.00800           0
     38626 TIP3     4770     TIP3     OH2      OT      -0.834000       15.9994           0
     38627 TIP3     4770     TIP3     H1       HT       0.417000       1.00800           0
     38628 TIP3     4770     TIP3     H2       HT       0.417000       1.00800           0
     38629 TIP3     4771     TIP3     OH2      OT      -0.834000       15.9994           0
     38630 TIP3     4771     TIP3     H1       HT       0.417000       1.00800           0
     38631 TIP3     4771     TIP3     H2       HT       0.417000       1.00800           0
     38632 TIP3     4772     TIP3     OH2      OT      -0.834000       15.9994           0
     38633 TIP3     4772     TIP3     H1       HT       0.417000       1.00800           0
     38634 TIP3     4772     TIP3     H2       HT       0.417000       1.00800           0
     38635 TIP3     4773     TIP3     OH2      OT      -0.834000       15.9994           0
     38636 TIP3     4773     TIP3     H1       HT       0.417000       1.00800           0
     38637 TIP3     4773     TIP3     H2       HT       0.417000       1.00800           0
     38638 TIP3     4774     TIP3     OH2      OT      -0.834000       15.9994           0
     38639 TIP3     4774     TIP3     H1       HT       0.417000       1.00800           0
     38640 TIP3     4774     TIP3     H2       HT       0.417000       1.00800           0
     38641 TIP3     4775     TIP3     OH2      OT      -0.834000       15.9994           0
     38642 TIP3     4775     TIP3     H1       HT       0.417000       1.00800           0
     38643 TIP3     4775     TIP3     H2       HT       0.417000       1.00800           0
     38644 TIP3     4776     TIP3     OH2      OT      -0.834000       15.9994           0
     38645 TIP3     4776     TIP3     H1       HT       0.417000       1.00800           0
     38646 TIP3     4776     TIP3     H2       HT       0.417000       1.00800           0
     38647 TIP3     4777     TIP3     OH2      OT      -0.834000       15.9994           0
     38648 TIP3     4777     TIP3     H1       HT       0.417000       1.00800           0
     38649 TIP3     4777     TIP3     H2       HT       0.417000       1.00800           0
     38650 TIP3     4778     TIP3     OH2      OT      -0.834000       15.9994           0
     38651 TIP3     4778     TIP3     H1       HT       0.417000       1.00800           0
     38652 TIP3     4778     TIP3     H2       HT       0.417000       1.00800           0
     38653 TIP3     4779     TIP3     OH2      OT      -0.834000       15.9994           0
     38654 TIP3     4779     TIP3     H1       HT       0.417000       1.00800           0
     38655 TIP3     4779     TIP3     H2       HT       0.417000       1.00800           0
     38656 TIP3     4780     TIP3     OH2      OT      -0.834000       15.9994           0
     38657 TIP3     4780     TIP3     H1       HT       0.417000       1.00800           0
     38658 TIP3     4780     TIP3     H2       HT       0.417000       1.00800           0
     38659 TIP3     4781     TIP3     OH2      OT      -0.834000       15.9994           0
     38660 TIP3     4781     TIP3     H1       HT       0.417000       1.00800           0
     38661 TIP3     4781     TIP3     H2       HT       0.417000       1.00800           0
     38662 TIP3     4782     TIP3     OH2      OT      -0.834000       15.9994           0
     38663 TIP3     4782     TIP3     H1       HT       0.417000       1.00800           0
     38664 TIP3     4782     TIP3     H2       HT       0.417000       1.00800           0
     38665 TIP3     4783     TIP3     OH2      OT      -0.834000       15.9994           0
     38666 TIP3     4783     TIP3     H1       HT       0.417000       1.00800           0
     38667 TIP3     4783     TIP3     H2       HT       0.417000       1.00800           0
     38668 TIP3     4784     TIP3     OH2      OT      -0.834000       15.9994           0
     38669 TIP3     4784     TIP3     H1       HT       0.417000       1.00800           0
     38670 TIP3     4784     TIP3     H2       HT       0.417000       1.00800           0
     38671 TIP3     4785     TIP3     OH2      OT      -0.834000       15.9994           0
     38672 TIP3     4785     TIP3     H1       HT       0.417000       1.00800           0
     38673 TIP3     4785     TIP3     H2       HT       0.417000       1.00800           0
     38674 TIP3     4786     TIP3     OH2      OT      -0.834000       15.9994           0
     38675 TIP3     4786     TIP3     H1       HT       0.417000       1.00800           0
     38676 TIP3     4786     TIP3     H2       HT       0.417000       1.00800           0
     38677 TIP3     4787     TIP3     OH2      OT      -0.834000       15.9994           0
     38678 TIP3     4787     TIP3     H1       HT       0.417000       1.00800           0
     38679 TIP3     4787     TIP3     H2       HT       0.417000       1.00800           0
     38680 TIP3     4788     TIP3     OH2      OT      -0.834000       15.9994           0
     38681 TIP3     4788     TIP3     H1       HT       0.417000       1.00800           0
     38682 TIP3     4788     TIP3     H2       HT       0.417000       1.00800           0
     38683 TIP3     4789     TIP3     OH2      OT      -0.834000       15.9994           0
     38684 TIP3     4789     TIP3     H1       HT       0.417000       1.00800           0
     38685 TIP3     4789     TIP3     H2       HT       0.417000       1.00800           0
     38686 TIP3     4790     TIP3     OH2      OT      -0.834000       15.9994           0
     38687 TIP3     4790     TIP3     H1       HT       0.417000       1.00800           0
     38688 TIP3     4790     TIP3     H2       HT       0.417000       1.00800           0
     38689 TIP3     4791     TIP3     OH2      OT      -0.834000       15.9994           0
     38690 TIP3     4791     TIP3     H1       HT       0.417000       1.00800           0
     38691 TIP3     4791     TIP3     H2       HT       0.417000       1.00800           0
     38692 TIP3     4792     TIP3     OH2      OT      -0.834000       15.9994           0
     38693 TIP3     4792     TIP3     H1       HT       0.417000       1.00800           0
     38694 TIP3     4792     TIP3     H2       HT       0.417000       1.00800           0
     38695 TIP3     4793     TIP3     OH2      OT      -0.834000       15.9994           0
     38696 TIP3     4793     TIP3     H1       HT       0.417000       1.00800           0
     38697 TIP3     4793     TIP3     H2       HT       0.417000       1.00800           0
     38698 TIP3     4794     TIP3     OH2      OT      -0.834000       15.9994           0
     38699 TIP3     4794     TIP3     H1       HT       0.417000       1.00800           0
     38700 TIP3     4794     TIP3     H2       HT       0.417000       1.00800           0
     38701 TIP3     4795     TIP3     OH2      OT      -0.834000       15.9994           0
     38702 TIP3     4795     TIP3     H1       HT       0.417000       1.00800           0
     38703 TIP3     4795     TIP3     H2       HT       0.417000       1.00800           0
     38704 TIP3     4796     TIP3     OH2      OT      -0.834000       15.9994           0
     38705 TIP3     4796     TIP3     H1       HT       0.417000       1.00800           0
     38706 TIP3     4796     TIP3     H2       HT       0.417000       1.00800           0
     38707 TIP3     4797     TIP3     OH2      OT      -0.834000       15.9994           0
     38708 TIP3     4797     TIP3     H1       HT       0.417000       1.00800           0
     38709 TIP3     4797     TIP3     H2       HT       0.417000       1.00800           0
     38710 TIP3     4798     TIP3     OH2      OT      -0.834000       15.9994           0
     38711 TIP3     4798     TIP3     H1       HT       0.417000       1.00800           0
     38712 TIP3     4798     TIP3     H2       HT       0.417000       1.00800           0
     38713 TIP3     4799     TIP3     OH2      OT      -0.834000       15.9994           0
     38714 TIP3     4799     TIP3     H1       HT       0.417000       1.00800           0
     38715 TIP3     4799     TIP3     H2       HT       0.417000       1.00800           0
     38716 TIP3     4800     TIP3     OH2      OT      -0.834000       15.9994           0
     38717 TIP3     4800     TIP3     H1       HT       0.417000       1.00800           0
     38718 TIP3     4800     TIP3     H2       HT       0.417000       1.00800           0
     38719 TIP3     4801     TIP3     OH2      OT      -0.834000       15.9994           0
     38720 TIP3     4801     TIP3     H1       HT       0.417000       1.00800           0
     38721 TIP3     4801     TIP3     H2       HT       0.417000       1.00800           0
     38722 TIP3     4802     TIP3     OH2      OT      -0.834000       15.9994           0
     38723 TIP3     4802     TIP3     H1       HT       0.417000       1.00800           0
     38724 TIP3     4802     TIP3     H2       HT       0.417000       1.00800           0
     38725 TIP3     4803     TIP3     OH2      OT      -0.834000       15.9994           0
     38726 TIP3     4803     TIP3     H1       HT       0.417000       1.00800           0
     38727 TIP3     4803     TIP3     H2       HT       0.417000       1.00800           0
     38728 TIP3     4804     TIP3     OH2      OT      -0.834000       15.9994           0
     38729 TIP3     4804     TIP3     H1       HT       0.417000       1.00800           0
     38730 TIP3     4804     TIP3     H2       HT       0.417000       1.00800           0
     38731 TIP3     4805     TIP3     OH2      OT      -0.834000       15.9994           0
     38732 TIP3     4805     TIP3     H1       HT       0.417000       1.00800           0
     38733 TIP3     4805     TIP3     H2       HT       0.417000       1.00800           0
     38734 TIP3     4806     TIP3     OH2      OT      -0.834000       15.9994           0
     38735 TIP3     4806     TIP3     H1       HT       0.417000       1.00800           0
     38736 TIP3     4806     TIP3     H2       HT       0.417000       1.00800           0
     38737 TIP3     4807     TIP3     OH2      OT      -0.834000       15.9994           0
     38738 TIP3     4807     TIP3     H1       HT       0.417000       1.00800           0
     38739 TIP3     4807     TIP3     H2       HT       0.417000       1.00800           0
     38740 TIP3     4808     TIP3     OH2      OT      -0.834000       15.9994           0
     38741 TIP3     4808     TIP3     H1       HT       0.417000       1.00800           0
     38742 TIP3     4808     TIP3     H2       HT       0.417000       1.00800           0
     38743 TIP3     4809     TIP3     OH2      OT      -0.834000       15.9994           0
     38744 TIP3     4809     TIP3     H1       HT       0.417000       1.00800           0
     38745 TIP3     4809     TIP3     H2       HT       0.417000       1.00800           0
     38746 TIP3     4810     TIP3     OH2      OT      -0.834000       15.9994           0
     38747 TIP3     4810     TIP3     H1       HT       0.417000       1.00800           0
     38748 TIP3     4810     TIP3     H2       HT       0.417000       1.00800           0
     38749 TIP3     4811     TIP3     OH2      OT      -0.834000       15.9994           0
     38750 TIP3     4811     TIP3     H1       HT       0.417000       1.00800           0
     38751 TIP3     4811     TIP3     H2       HT       0.417000       1.00800           0
     38752 TIP3     4812     TIP3     OH2      OT      -0.834000       15.9994           0
     38753 TIP3     4812     TIP3     H1       HT       0.417000       1.00800           0
     38754 TIP3     4812     TIP3     H2       HT       0.417000       1.00800           0
     38755 TIP3     4813     TIP3     OH2      OT      -0.834000       15.9994           0
     38756 TIP3     4813     TIP3     H1       HT       0.417000       1.00800           0
     38757 TIP3     4813     TIP3     H2       HT       0.417000       1.00800           0
     38758 TIP3     4814     TIP3     OH2      OT      -0.834000       15.9994           0
     38759 TIP3     4814     TIP3     H1       HT       0.417000       1.00800           0
     38760 TIP3     4814     TIP3     H2       HT       0.417000       1.00800           0
     38761 TIP3     4815     TIP3     OH2      OT      -0.834000       15.9994           0
     38762 TIP3     4815     TIP3     H1       HT       0.417000       1.00800           0
     38763 TIP3     4815     TIP3     H2       HT       0.417000       1.00800           0
     38764 TIP3     4816     TIP3     OH2      OT      -0.834000       15.9994           0
     38765 TIP3     4816     TIP3     H1       HT       0.417000       1.00800           0
     38766 TIP3     4816     TIP3     H2       HT       0.417000       1.00800           0
     38767 TIP3     4817     TIP3     OH2      OT      -0.834000       15.9994           0
     38768 TIP3     4817     TIP3     H1       HT       0.417000       1.00800           0
     38769 TIP3     4817     TIP3     H2       HT       0.417000       1.00800           0
     38770 TIP3     4818     TIP3     OH2      OT      -0.834000       15.9994           0
     38771 TIP3     4818     TIP3     H1       HT       0.417000       1.00800           0
     38772 TIP3     4818     TIP3     H2       HT       0.417000       1.00800           0
     38773 TIP3     4819     TIP3     OH2      OT      -0.834000       15.9994           0
     38774 TIP3     4819     TIP3     H1       HT       0.417000       1.00800           0
     38775 TIP3     4819     TIP3     H2       HT       0.417000       1.00800           0
     38776 TIP3     4820     TIP3     OH2      OT      -0.834000       15.9994           0
     38777 TIP3     4820     TIP3     H1       HT       0.417000       1.00800           0
     38778 TIP3     4820     TIP3     H2       HT       0.417000       1.00800           0
     38779 TIP3     4821     TIP3     OH2      OT      -0.834000       15.9994           0
     38780 TIP3     4821     TIP3     H1       HT       0.417000       1.00800           0
     38781 TIP3     4821     TIP3     H2       HT       0.417000       1.00800           0
     38782 TIP3     4822     TIP3     OH2      OT      -0.834000       15.9994           0
     38783 TIP3     4822     TIP3     H1       HT       0.417000       1.00800           0
     38784 TIP3     4822     TIP3     H2       HT       0.417000       1.00800           0
     38785 TIP3     4823     TIP3     OH2      OT      -0.834000       15.9994           0
     38786 TIP3     4823     TIP3     H1       HT       0.417000       1.00800           0
     38787 TIP3     4823     TIP3     H2       HT       0.417000       1.00800           0
     38788 TIP3     4824     TIP3     OH2      OT      -0.834000       15.9994           0
     38789 TIP3     4824     TIP3     H1       HT       0.417000       1.00800           0
     38790 TIP3     4824     TIP3     H2       HT       0.417000       1.00800           0
     38791 TIP3     4825     TIP3     OH2      OT      -0.834000       15.9994           0
     38792 TIP3     4825     TIP3     H1       HT       0.417000       1.00800           0
     38793 TIP3     4825     TIP3     H2       HT       0.417000       1.00800           0
     38794 TIP3     4826     TIP3     OH2      OT      -0.834000       15.9994           0
     38795 TIP3     4826     TIP3     H1       HT       0.417000       1.00800           0
     38796 TIP3     4826     TIP3     H2       HT       0.417000       1.00800           0
     38797 TIP3     4827     TIP3     OH2      OT      -0.834000       15.9994           0
     38798 TIP3     4827     TIP3     H1       HT       0.417000       1.00800           0
     38799 TIP3     4827     TIP3     H2       HT       0.417000       1.00800           0
     38800 TIP3     4828     TIP3     OH2      OT      -0.834000       15.9994           0
     38801 TIP3     4828     TIP3     H1       HT       0.417000       1.00800           0
     38802 TIP3     4828     TIP3     H2       HT       0.417000       1.00800           0
     38803 TIP3     4829     TIP3     OH2      OT      -0.834000       15.9994           0
     38804 TIP3     4829     TIP3     H1       HT       0.417000       1.00800           0
     38805 TIP3     4829     TIP3     H2       HT       0.417000       1.00800           0
     38806 TIP3     4830     TIP3     OH2      OT      -0.834000       15.9994           0
     38807 TIP3     4830     TIP3     H1       HT       0.417000       1.00800           0
     38808 TIP3     4830     TIP3     H2       HT       0.417000       1.00800           0
     38809 TIP3     4831     TIP3     OH2      OT      -0.834000       15.9994           0
     38810 TIP3     4831     TIP3     H1       HT       0.417000       1.00800           0
     38811 TIP3     4831     TIP3     H2       HT       0.417000       1.00800           0
     38812 TIP3     4832     TIP3     OH2      OT      -0.834000       15.9994           0
     38813 TIP3     4832     TIP3     H1       HT       0.417000       1.00800           0
     38814 TIP3     4832     TIP3     H2       HT       0.417000       1.00800           0
     38815 TIP3     4833     TIP3     OH2      OT      -0.834000       15.9994           0
     38816 TIP3     4833     TIP3     H1       HT       0.417000       1.00800           0
     38817 TIP3     4833     TIP3     H2       HT       0.417000       1.00800           0
     38818 TIP3     4834     TIP3     OH2      OT      -0.834000       15.9994           0
     38819 TIP3     4834     TIP3     H1       HT       0.417000       1.00800           0
     38820 TIP3     4834     TIP3     H2       HT       0.417000       1.00800           0
     38821 TIP3     4835     TIP3     OH2      OT      -0.834000       15.9994           0
     38822 TIP3     4835     TIP3     H1       HT       0.417000       1.00800           0
     38823 TIP3     4835     TIP3     H2       HT       0.417000       1.00800           0
     38824 TIP3     4836     TIP3     OH2      OT      -0.834000       15.9994           0
     38825 TIP3     4836     TIP3     H1       HT       0.417000       1.00800           0
     38826 TIP3     4836     TIP3     H2       HT       0.417000       1.00800           0
     38827 TIP3     4837     TIP3     OH2      OT      -0.834000       15.9994           0
     38828 TIP3     4837     TIP3     H1       HT       0.417000       1.00800           0
     38829 TIP3     4837     TIP3     H2       HT       0.417000       1.00800           0
     38830 TIP3     4838     TIP3     OH2      OT      -0.834000       15.9994           0
     38831 TIP3     4838     TIP3     H1       HT       0.417000       1.00800           0
     38832 TIP3     4838     TIP3     H2       HT       0.417000       1.00800           0
     38833 TIP3     4839     TIP3     OH2      OT      -0.834000       15.9994           0
     38834 TIP3     4839     TIP3     H1       HT       0.417000       1.00800           0
     38835 TIP3     4839     TIP3     H2       HT       0.417000       1.00800           0
     38836 TIP3     4840     TIP3     OH2      OT      -0.834000       15.9994           0
     38837 TIP3     4840     TIP3     H1       HT       0.417000       1.00800           0
     38838 TIP3     4840     TIP3     H2       HT       0.417000       1.00800           0
     38839 TIP3     4841     TIP3     OH2      OT      -0.834000       15.9994           0
     38840 TIP3     4841     TIP3     H1       HT       0.417000       1.00800           0
     38841 TIP3     4841     TIP3     H2       HT       0.417000       1.00800           0
     38842 TIP3     4842     TIP3     OH2      OT      -0.834000       15.9994           0
     38843 TIP3     4842     TIP3     H1       HT       0.417000       1.00800           0
     38844 TIP3     4842     TIP3     H2       HT       0.417000       1.00800           0
     38845 TIP3     4843     TIP3     OH2      OT      -0.834000       15.9994           0
     38846 TIP3     4843     TIP3     H1       HT       0.417000       1.00800           0
     38847 TIP3     4843     TIP3     H2       HT       0.417000       1.00800           0
     38848 TIP3     4844     TIP3     OH2      OT      -0.834000       15.9994           0
     38849 TIP3     4844     TIP3     H1       HT       0.417000       1.00800           0
     38850 TIP3     4844     TIP3     H2       HT       0.417000       1.00800           0
     38851 TIP3     4845     TIP3     OH2      OT      -0.834000       15.9994           0
     38852 TIP3     4845     TIP3     H1       HT       0.417000       1.00800           0
     38853 TIP3     4845     TIP3     H2       HT       0.417000       1.00800           0
     38854 TIP3     4846     TIP3     OH2      OT      -0.834000       15.9994           0
     38855 TIP3     4846     TIP3     H1       HT       0.417000       1.00800           0
     38856 TIP3     4846     TIP3     H2       HT       0.417000       1.00800           0
     38857 TIP3     4847     TIP3     OH2      OT      -0.834000       15.9994           0
     38858 TIP3     4847     TIP3     H1       HT       0.417000       1.00800           0
     38859 TIP3     4847     TIP3     H2       HT       0.417000       1.00800           0
     38860 TIP3     4848     TIP3     OH2      OT      -0.834000       15.9994           0
     38861 TIP3     4848     TIP3     H1       HT       0.417000       1.00800           0
     38862 TIP3     4848     TIP3     H2       HT       0.417000       1.00800           0
     38863 TIP3     4849     TIP3     OH2      OT      -0.834000       15.9994           0
     38864 TIP3     4849     TIP3     H1       HT       0.417000       1.00800           0
     38865 TIP3     4849     TIP3     H2       HT       0.417000       1.00800           0
     38866 TIP3     4850     TIP3     OH2      OT      -0.834000       15.9994           0
     38867 TIP3     4850     TIP3     H1       HT       0.417000       1.00800           0
     38868 TIP3     4850     TIP3     H2       HT       0.417000       1.00800           0
     38869 TIP3     4851     TIP3     OH2      OT      -0.834000       15.9994           0
     38870 TIP3     4851     TIP3     H1       HT       0.417000       1.00800           0
     38871 TIP3     4851     TIP3     H2       HT       0.417000       1.00800           0
     38872 TIP3     4852     TIP3     OH2      OT      -0.834000       15.9994           0
     38873 TIP3     4852     TIP3     H1       HT       0.417000       1.00800           0
     38874 TIP3     4852     TIP3     H2       HT       0.417000       1.00800           0
     38875 TIP3     4853     TIP3     OH2      OT      -0.834000       15.9994           0
     38876 TIP3     4853     TIP3     H1       HT       0.417000       1.00800           0
     38877 TIP3     4853     TIP3     H2       HT       0.417000       1.00800           0
     38878 TIP3     4854     TIP3     OH2      OT      -0.834000       15.9994           0
     38879 TIP3     4854     TIP3     H1       HT       0.417000       1.00800           0
     38880 TIP3     4854     TIP3     H2       HT       0.417000       1.00800           0
     38881 TIP3     4855     TIP3     OH2      OT      -0.834000       15.9994           0
     38882 TIP3     4855     TIP3     H1       HT       0.417000       1.00800           0
     38883 TIP3     4855     TIP3     H2       HT       0.417000       1.00800           0
     38884 TIP3     4856     TIP3     OH2      OT      -0.834000       15.9994           0
     38885 TIP3     4856     TIP3     H1       HT       0.417000       1.00800           0
     38886 TIP3     4856     TIP3     H2       HT       0.417000       1.00800           0
     38887 TIP3     4857     TIP3     OH2      OT      -0.834000       15.9994           0
     38888 TIP3     4857     TIP3     H1       HT       0.417000       1.00800           0
     38889 TIP3     4857     TIP3     H2       HT       0.417000       1.00800           0
     38890 TIP3     4858     TIP3     OH2      OT      -0.834000       15.9994           0
     38891 TIP3     4858     TIP3     H1       HT       0.417000       1.00800           0
     38892 TIP3     4858     TIP3     H2       HT       0.417000       1.00800           0
     38893 TIP3     4859     TIP3     OH2      OT      -0.834000       15.9994           0
     38894 TIP3     4859     TIP3     H1       HT       0.417000       1.00800           0
     38895 TIP3     4859     TIP3     H2       HT       0.417000       1.00800           0
     38896 TIP3     4860     TIP3     OH2      OT      -0.834000       15.9994           0
     38897 TIP3     4860     TIP3     H1       HT       0.417000       1.00800           0
     38898 TIP3     4860     TIP3     H2       HT       0.417000       1.00800           0
     38899 TIP3     4861     TIP3     OH2      OT      -0.834000       15.9994           0
     38900 TIP3     4861     TIP3     H1       HT       0.417000       1.00800           0
     38901 TIP3     4861     TIP3     H2       HT       0.417000       1.00800           0
     38902 TIP3     4862     TIP3     OH2      OT      -0.834000       15.9994           0
     38903 TIP3     4862     TIP3     H1       HT       0.417000       1.00800           0
     38904 TIP3     4862     TIP3     H2       HT       0.417000       1.00800           0
     38905 TIP3     4863     TIP3     OH2      OT      -0.834000       15.9994           0
     38906 TIP3     4863     TIP3     H1       HT       0.417000       1.00800           0
     38907 TIP3     4863     TIP3     H2       HT       0.417000       1.00800           0
     38908 TIP3     4864     TIP3     OH2      OT      -0.834000       15.9994           0
     38909 TIP3     4864     TIP3     H1       HT       0.417000       1.00800           0
     38910 TIP3     4864     TIP3     H2       HT       0.417000       1.00800           0
     38911 TIP3     4865     TIP3     OH2      OT      -0.834000       15.9994           0
     38912 TIP3     4865     TIP3     H1       HT       0.417000       1.00800           0
     38913 TIP3     4865     TIP3     H2       HT       0.417000       1.00800           0
     38914 TIP3     4866     TIP3     OH2      OT      -0.834000       15.9994           0
     38915 TIP3     4866     TIP3     H1       HT       0.417000       1.00800           0
     38916 TIP3     4866     TIP3     H2       HT       0.417000       1.00800           0
     38917 TIP3     4867     TIP3     OH2      OT      -0.834000       15.9994           0
     38918 TIP3     4867     TIP3     H1       HT       0.417000       1.00800           0
     38919 TIP3     4867     TIP3     H2       HT       0.417000       1.00800           0
     38920 TIP3     4868     TIP3     OH2      OT      -0.834000       15.9994           0
     38921 TIP3     4868     TIP3     H1       HT       0.417000       1.00800           0
     38922 TIP3     4868     TIP3     H2       HT       0.417000       1.00800           0
     38923 TIP3     4869     TIP3     OH2      OT      -0.834000       15.9994           0
     38924 TIP3     4869     TIP3     H1       HT       0.417000       1.00800           0
     38925 TIP3     4869     TIP3     H2       HT       0.417000       1.00800           0
     38926 TIP3     4870     TIP3     OH2      OT      -0.834000       15.9994           0
     38927 TIP3     4870     TIP3     H1       HT       0.417000       1.00800           0
     38928 TIP3     4870     TIP3     H2       HT       0.417000       1.00800           0
     38929 TIP3     4871     TIP3     OH2      OT      -0.834000       15.9994           0
     38930 TIP3     4871     TIP3     H1       HT       0.417000       1.00800           0
     38931 TIP3     4871     TIP3     H2       HT       0.417000       1.00800           0
     38932 TIP3     4872     TIP3     OH2      OT      -0.834000       15.9994           0
     38933 TIP3     4872     TIP3     H1       HT       0.417000       1.00800           0
     38934 TIP3     4872     TIP3     H2       HT       0.417000       1.00800           0
     38935 TIP3     4873     TIP3     OH2      OT      -0.834000       15.9994           0
     38936 TIP3     4873     TIP3     H1       HT       0.417000       1.00800           0
     38937 TIP3     4873     TIP3     H2       HT       0.417000       1.00800           0
     38938 TIP3     4874     TIP3     OH2      OT      -0.834000       15.9994           0
     38939 TIP3     4874     TIP3     H1       HT       0.417000       1.00800           0
     38940 TIP3     4874     TIP3     H2       HT       0.417000       1.00800           0
     38941 TIP3     4875     TIP3     OH2      OT      -0.834000       15.9994           0
     38942 TIP3     4875     TIP3     H1       HT       0.417000       1.00800           0
     38943 TIP3     4875     TIP3     H2       HT       0.417000       1.00800           0
     38944 TIP3     4876     TIP3     OH2      OT      -0.834000       15.9994           0
     38945 TIP3     4876     TIP3     H1       HT       0.417000       1.00800           0
     38946 TIP3     4876     TIP3     H2       HT       0.417000       1.00800           0
     38947 TIP3     4877     TIP3     OH2      OT      -0.834000       15.9994           0
     38948 TIP3     4877     TIP3     H1       HT       0.417000       1.00800           0
     38949 TIP3     4877     TIP3     H2       HT       0.417000       1.00800           0
     38950 TIP3     4878     TIP3     OH2      OT      -0.834000       15.9994           0
     38951 TIP3     4878     TIP3     H1       HT       0.417000       1.00800           0
     38952 TIP3     4878     TIP3     H2       HT       0.417000       1.00800           0
     38953 TIP3     4879     TIP3     OH2      OT      -0.834000       15.9994           0
     38954 TIP3     4879     TIP3     H1       HT       0.417000       1.00800           0
     38955 TIP3     4879     TIP3     H2       HT       0.417000       1.00800           0
     38956 TIP3     4880     TIP3     OH2      OT      -0.834000       15.9994           0
     38957 TIP3     4880     TIP3     H1       HT       0.417000       1.00800           0
     38958 TIP3     4880     TIP3     H2       HT       0.417000       1.00800           0
     38959 TIP3     4881     TIP3     OH2      OT      -0.834000       15.9994           0
     38960 TIP3     4881     TIP3     H1       HT       0.417000       1.00800           0
     38961 TIP3     4881     TIP3     H2       HT       0.417000       1.00800           0
     38962 TIP3     4882     TIP3     OH2      OT      -0.834000       15.9994           0
     38963 TIP3     4882     TIP3     H1       HT       0.417000       1.00800           0
     38964 TIP3     4882     TIP3     H2       HT       0.417000       1.00800           0
     38965 TIP3     4883     TIP3     OH2      OT      -0.834000       15.9994           0
     38966 TIP3     4883     TIP3     H1       HT       0.417000       1.00800           0
     38967 TIP3     4883     TIP3     H2       HT       0.417000       1.00800           0
     38968 TIP3     4884     TIP3     OH2      OT      -0.834000       15.9994           0
     38969 TIP3     4884     TIP3     H1       HT       0.417000       1.00800           0
     38970 TIP3     4884     TIP3     H2       HT       0.417000       1.00800           0
     38971 TIP3     4885     TIP3     OH2      OT      -0.834000       15.9994           0
     38972 TIP3     4885     TIP3     H1       HT       0.417000       1.00800           0
     38973 TIP3     4885     TIP3     H2       HT       0.417000       1.00800           0
     38974 TIP3     4886     TIP3     OH2      OT      -0.834000       15.9994           0
     38975 TIP3     4886     TIP3     H1       HT       0.417000       1.00800           0
     38976 TIP3     4886     TIP3     H2       HT       0.417000       1.00800           0
     38977 TIP3     4887     TIP3     OH2      OT      -0.834000       15.9994           0
     38978 TIP3     4887     TIP3     H1       HT       0.417000       1.00800           0
     38979 TIP3     4887     TIP3     H2       HT       0.417000       1.00800           0
     38980 TIP3     4888     TIP3     OH2      OT      -0.834000       15.9994           0
     38981 TIP3     4888     TIP3     H1       HT       0.417000       1.00800           0
     38982 TIP3     4888     TIP3     H2       HT       0.417000       1.00800           0
     38983 TIP3     4889     TIP3     OH2      OT      -0.834000       15.9994           0
     38984 TIP3     4889     TIP3     H1       HT       0.417000       1.00800           0
     38985 TIP3     4889     TIP3     H2       HT       0.417000       1.00800           0
     38986 TIP3     4890     TIP3     OH2      OT      -0.834000       15.9994           0
     38987 TIP3     4890     TIP3     H1       HT       0.417000       1.00800           0
     38988 TIP3     4890     TIP3     H2       HT       0.417000       1.00800           0
     38989 TIP3     4891     TIP3     OH2      OT      -0.834000       15.9994           0
     38990 TIP3     4891     TIP3     H1       HT       0.417000       1.00800           0
     38991 TIP3     4891     TIP3     H2       HT       0.417000       1.00800           0
     38992 TIP3     4892     TIP3     OH2      OT      -0.834000       15.9994           0
     38993 TIP3     4892     TIP3     H1       HT       0.417000       1.00800           0
     38994 TIP3     4892     TIP3     H2       HT       0.417000       1.00800           0
     38995 TIP3     4893     TIP3     OH2      OT      -0.834000       15.9994           0
     38996 TIP3     4893     TIP3     H1       HT       0.417000       1.00800           0
     38997 TIP3     4893     TIP3     H2       HT       0.417000       1.00800           0
     38998 TIP3     4894     TIP3     OH2      OT      -0.834000       15.9994           0
     38999 TIP3     4894     TIP3     H1       HT       0.417000       1.00800           0
     39000 TIP3     4894     TIP3     H2       HT       0.417000       1.00800           0
     39001 TIP3     4895     TIP3     OH2      OT      -0.834000       15.9994           0
     39002 TIP3     4895     TIP3     H1       HT       0.417000       1.00800           0
     39003 TIP3     4895     TIP3     H2       HT       0.417000       1.00800           0
     39004 TIP3     4896     TIP3     OH2      OT      -0.834000       15.9994           0
     39005 TIP3     4896     TIP3     H1       HT       0.417000       1.00800           0
     39006 TIP3     4896     TIP3     H2       HT       0.417000       1.00800           0
     39007 TIP3     4897     TIP3     OH2      OT      -0.834000       15.9994           0
     39008 TIP3     4897     TIP3     H1       HT       0.417000       1.00800           0
     39009 TIP3     4897     TIP3     H2       HT       0.417000       1.00800           0
     39010 TIP3     4898     TIP3     OH2      OT      -0.834000       15.9994           0
     39011 TIP3     4898     TIP3     H1       HT       0.417000       1.00800           0
     39012 TIP3     4898     TIP3     H2       HT       0.417000       1.00800           0
     39013 TIP3     4899     TIP3     OH2      OT      -0.834000       15.9994           0
     39014 TIP3     4899     TIP3     H1       HT       0.417000       1.00800           0
     39015 TIP3     4899     TIP3     H2       HT       0.417000       1.00800           0
     39016 TIP3     4900     TIP3     OH2      OT      -0.834000       15.9994           0
     39017 TIP3     4900     TIP3     H1       HT       0.417000       1.00800           0
     39018 TIP3     4900     TIP3     H2       HT       0.417000       1.00800           0
     39019 TIP3     4901     TIP3     OH2      OT      -0.834000       15.9994           0
     39020 TIP3     4901     TIP3     H1       HT       0.417000       1.00800           0
     39021 TIP3     4901     TIP3     H2       HT       0.417000       1.00800           0
     39022 TIP3     4902     TIP3     OH2      OT      -0.834000       15.9994           0
     39023 TIP3     4902     TIP3     H1       HT       0.417000       1.00800           0
     39024 TIP3     4902     TIP3     H2       HT       0.417000       1.00800           0
     39025 TIP3     4903     TIP3     OH2      OT      -0.834000       15.9994           0
     39026 TIP3     4903     TIP3     H1       HT       0.417000       1.00800           0
     39027 TIP3     4903     TIP3     H2       HT       0.417000       1.00800           0
     39028 TIP3     4904     TIP3     OH2      OT      -0.834000       15.9994           0
     39029 TIP3     4904     TIP3     H1       HT       0.417000       1.00800           0
     39030 TIP3     4904     TIP3     H2       HT       0.417000       1.00800           0
     39031 TIP3     4905     TIP3     OH2      OT      -0.834000       15.9994           0
     39032 TIP3     4905     TIP3     H1       HT       0.417000       1.00800           0
     39033 TIP3     4905     TIP3     H2       HT       0.417000       1.00800           0
     39034 TIP3     4906     TIP3     OH2      OT      -0.834000       15.9994           0
     39035 TIP3     4906     TIP3     H1       HT       0.417000       1.00800           0
     39036 TIP3     4906     TIP3     H2       HT       0.417000       1.00800           0
     39037 TIP3     4907     TIP3     OH2      OT      -0.834000       15.9994           0
     39038 TIP3     4907     TIP3     H1       HT       0.417000       1.00800           0
     39039 TIP3     4907     TIP3     H2       HT       0.417000       1.00800           0
     39040 TIP3     4908     TIP3     OH2      OT      -0.834000       15.9994           0
     39041 TIP3     4908     TIP3     H1       HT       0.417000       1.00800           0
     39042 TIP3     4908     TIP3     H2       HT       0.417000       1.00800           0
     39043 TIP3     4909     TIP3     OH2      OT      -0.834000       15.9994           0
     39044 TIP3     4909     TIP3     H1       HT       0.417000       1.00800           0
     39045 TIP3     4909     TIP3     H2       HT       0.417000       1.00800           0
     39046 TIP3     4910     TIP3     OH2      OT      -0.834000       15.9994           0
     39047 TIP3     4910     TIP3     H1       HT       0.417000       1.00800           0
     39048 TIP3     4910     TIP3     H2       HT       0.417000       1.00800           0
     39049 TIP3     4911     TIP3     OH2      OT      -0.834000       15.9994           0
     39050 TIP3     4911     TIP3     H1       HT       0.417000       1.00800           0
     39051 TIP3     4911     TIP3     H2       HT       0.417000       1.00800           0
     39052 TIP3     4912     TIP3     OH2      OT      -0.834000       15.9994           0
     39053 TIP3     4912     TIP3     H1       HT       0.417000       1.00800           0
     39054 TIP3     4912     TIP3     H2       HT       0.417000       1.00800           0
     39055 TIP3     4913     TIP3     OH2      OT      -0.834000       15.9994           0
     39056 TIP3     4913     TIP3     H1       HT       0.417000       1.00800           0
     39057 TIP3     4913     TIP3     H2       HT       0.417000       1.00800           0
     39058 TIP3     4914     TIP3     OH2      OT      -0.834000       15.9994           0
     39059 TIP3     4914     TIP3     H1       HT       0.417000       1.00800           0
     39060 TIP3     4914     TIP3     H2       HT       0.417000       1.00800           0
     39061 TIP3     4915     TIP3     OH2      OT      -0.834000       15.9994           0
     39062 TIP3     4915     TIP3     H1       HT       0.417000       1.00800           0
     39063 TIP3     4915     TIP3     H2       HT       0.417000       1.00800           0
     39064 TIP3     4916     TIP3     OH2      OT      -0.834000       15.9994           0
     39065 TIP3     4916     TIP3     H1       HT       0.417000       1.00800           0
     39066 TIP3     4916     TIP3     H2       HT       0.417000       1.00800           0
     39067 TIP3     4917     TIP3     OH2      OT      -0.834000       15.9994           0
     39068 TIP3     4917     TIP3     H1       HT       0.417000       1.00800           0
     39069 TIP3     4917     TIP3     H2       HT       0.417000       1.00800           0
     39070 TIP3     4918     TIP3     OH2      OT      -0.834000       15.9994           0
     39071 TIP3     4918     TIP3     H1       HT       0.417000       1.00800           0
     39072 TIP3     4918     TIP3     H2       HT       0.417000       1.00800           0
     39073 TIP3     4919     TIP3     OH2      OT      -0.834000       15.9994           0
     39074 TIP3     4919     TIP3     H1       HT       0.417000       1.00800           0
     39075 TIP3     4919     TIP3     H2       HT       0.417000       1.00800           0
     39076 TIP3     4920     TIP3     OH2      OT      -0.834000       15.9994           0
     39077 TIP3     4920     TIP3     H1       HT       0.417000       1.00800           0
     39078 TIP3     4920     TIP3     H2       HT       0.417000       1.00800           0
     39079 TIP3     4921     TIP3     OH2      OT      -0.834000       15.9994           0
     39080 TIP3     4921     TIP3     H1       HT       0.417000       1.00800           0
     39081 TIP3     4921     TIP3     H2       HT       0.417000       1.00800           0
     39082 TIP3     4922     TIP3     OH2      OT      -0.834000       15.9994           0
     39083 TIP3     4922     TIP3     H1       HT       0.417000       1.00800           0
     39084 TIP3     4922     TIP3     H2       HT       0.417000       1.00800           0
     39085 TIP3     4923     TIP3     OH2      OT      -0.834000       15.9994           0
     39086 TIP3     4923     TIP3     H1       HT       0.417000       1.00800           0
     39087 TIP3     4923     TIP3     H2       HT       0.417000       1.00800           0
     39088 TIP3     4924     TIP3     OH2      OT      -0.834000       15.9994           0
     39089 TIP3     4924     TIP3     H1       HT       0.417000       1.00800           0
     39090 TIP3     4924     TIP3     H2       HT       0.417000       1.00800           0
     39091 TIP3     4925     TIP3     OH2      OT      -0.834000       15.9994           0
     39092 TIP3     4925     TIP3     H1       HT       0.417000       1.00800           0
     39093 TIP3     4925     TIP3     H2       HT       0.417000       1.00800           0
     39094 TIP3     4926     TIP3     OH2      OT      -0.834000       15.9994           0
     39095 TIP3     4926     TIP3     H1       HT       0.417000       1.00800           0
     39096 TIP3     4926     TIP3     H2       HT       0.417000       1.00800           0
     39097 TIP3     4927     TIP3     OH2      OT      -0.834000       15.9994           0
     39098 TIP3     4927     TIP3     H1       HT       0.417000       1.00800           0
     39099 TIP3     4927     TIP3     H2       HT       0.417000       1.00800           0
     39100 TIP3     4928     TIP3     OH2      OT      -0.834000       15.9994           0
     39101 TIP3     4928     TIP3     H1       HT       0.417000       1.00800           0
     39102 TIP3     4928     TIP3     H2       HT       0.417000       1.00800           0
     39103 TIP3     4929     TIP3     OH2      OT      -0.834000       15.9994           0
     39104 TIP3     4929     TIP3     H1       HT       0.417000       1.00800           0
     39105 TIP3     4929     TIP3     H2       HT       0.417000       1.00800           0
     39106 TIP3     4930     TIP3     OH2      OT      -0.834000       15.9994           0
     39107 TIP3     4930     TIP3     H1       HT       0.417000       1.00800           0
     39108 TIP3     4930     TIP3     H2       HT       0.417000       1.00800           0
     39109 TIP3     4931     TIP3     OH2      OT      -0.834000       15.9994           0
     39110 TIP3     4931     TIP3     H1       HT       0.417000       1.00800           0
     39111 TIP3     4931     TIP3     H2       HT       0.417000       1.00800           0
     39112 TIP3     4932     TIP3     OH2      OT      -0.834000       15.9994           0
     39113 TIP3     4932     TIP3     H1       HT       0.417000       1.00800           0
     39114 TIP3     4932     TIP3     H2       HT       0.417000       1.00800           0
     39115 TIP3     4933     TIP3     OH2      OT      -0.834000       15.9994           0
     39116 TIP3     4933     TIP3     H1       HT       0.417000       1.00800           0
     39117 TIP3     4933     TIP3     H2       HT       0.417000       1.00800           0
     39118 TIP3     4934     TIP3     OH2      OT      -0.834000       15.9994           0
     39119 TIP3     4934     TIP3     H1       HT       0.417000       1.00800           0
     39120 TIP3     4934     TIP3     H2       HT       0.417000       1.00800           0
     39121 TIP3     4935     TIP3     OH2      OT      -0.834000       15.9994           0
     39122 TIP3     4935     TIP3     H1       HT       0.417000       1.00800           0
     39123 TIP3     4935     TIP3     H2       HT       0.417000       1.00800           0
     39124 TIP3     4936     TIP3     OH2      OT      -0.834000       15.9994           0
     39125 TIP3     4936     TIP3     H1       HT       0.417000       1.00800           0
     39126 TIP3     4936     TIP3     H2       HT       0.417000       1.00800           0
     39127 TIP3     4937     TIP3     OH2      OT      -0.834000       15.9994           0
     39128 TIP3     4937     TIP3     H1       HT       0.417000       1.00800           0
     39129 TIP3     4937     TIP3     H2       HT       0.417000       1.00800           0
     39130 TIP3     4938     TIP3     OH2      OT      -0.834000       15.9994           0
     39131 TIP3     4938     TIP3     H1       HT       0.417000       1.00800           0
     39132 TIP3     4938     TIP3     H2       HT       0.417000       1.00800           0
     39133 TIP3     4939     TIP3     OH2      OT      -0.834000       15.9994           0
     39134 TIP3     4939     TIP3     H1       HT       0.417000       1.00800           0
     39135 TIP3     4939     TIP3     H2       HT       0.417000       1.00800           0
     39136 TIP3     4940     TIP3     OH2      OT      -0.834000       15.9994           0
     39137 TIP3     4940     TIP3     H1       HT       0.417000       1.00800           0
     39138 TIP3     4940     TIP3     H2       HT       0.417000       1.00800           0
     39139 TIP3     4941     TIP3     OH2      OT      -0.834000       15.9994           0
     39140 TIP3     4941     TIP3     H1       HT       0.417000       1.00800           0
     39141 TIP3     4941     TIP3     H2       HT       0.417000       1.00800           0
     39142 TIP3     4942     TIP3     OH2      OT      -0.834000       15.9994           0
     39143 TIP3     4942     TIP3     H1       HT       0.417000       1.00800           0
     39144 TIP3     4942     TIP3     H2       HT       0.417000       1.00800           0
     39145 TIP3     4943     TIP3     OH2      OT      -0.834000       15.9994           0
     39146 TIP3     4943     TIP3     H1       HT       0.417000       1.00800           0
     39147 TIP3     4943     TIP3     H2       HT       0.417000       1.00800           0
     39148 TIP3     4944     TIP3     OH2      OT      -0.834000       15.9994           0
     39149 TIP3     4944     TIP3     H1       HT       0.417000       1.00800           0
     39150 TIP3     4944     TIP3     H2       HT       0.417000       1.00800           0
     39151 TIP3     4945     TIP3     OH2      OT      -0.834000       15.9994           0
     39152 TIP3     4945     TIP3     H1       HT       0.417000       1.00800           0
     39153 TIP3     4945     TIP3     H2       HT       0.417000       1.00800           0
     39154 TIP3     4946     TIP3     OH2      OT      -0.834000       15.9994           0
     39155 TIP3     4946     TIP3     H1       HT       0.417000       1.00800           0
     39156 TIP3     4946     TIP3     H2       HT       0.417000       1.00800           0
     39157 TIP3     4947     TIP3     OH2      OT      -0.834000       15.9994           0
     39158 TIP3     4947     TIP3     H1       HT       0.417000       1.00800           0
     39159 TIP3     4947     TIP3     H2       HT       0.417000       1.00800           0
     39160 TIP3     4948     TIP3     OH2      OT      -0.834000       15.9994           0
     39161 TIP3     4948     TIP3     H1       HT       0.417000       1.00800           0
     39162 TIP3     4948     TIP3     H2       HT       0.417000       1.00800           0
     39163 TIP3     4949     TIP3     OH2      OT      -0.834000       15.9994           0
     39164 TIP3     4949     TIP3     H1       HT       0.417000       1.00800           0
     39165 TIP3     4949     TIP3     H2       HT       0.417000       1.00800           0
     39166 TIP3     4950     TIP3     OH2      OT      -0.834000       15.9994           0
     39167 TIP3     4950     TIP3     H1       HT       0.417000       1.00800           0
     39168 TIP3     4950     TIP3     H2       HT       0.417000       1.00800           0
     39169 TIP3     4951     TIP3     OH2      OT      -0.834000       15.9994           0
     39170 TIP3     4951     TIP3     H1       HT       0.417000       1.00800           0
     39171 TIP3     4951     TIP3     H2       HT       0.417000       1.00800           0
     39172 TIP3     4952     TIP3     OH2      OT      -0.834000       15.9994           0
     39173 TIP3     4952     TIP3     H1       HT       0.417000       1.00800           0
     39174 TIP3     4952     TIP3     H2       HT       0.417000       1.00800           0
     39175 TIP3     4953     TIP3     OH2      OT      -0.834000       15.9994           0
     39176 TIP3     4953     TIP3     H1       HT       0.417000       1.00800           0
     39177 TIP3     4953     TIP3     H2       HT       0.417000       1.00800           0
     39178 TIP3     4954     TIP3     OH2      OT      -0.834000       15.9994           0
     39179 TIP3     4954     TIP3     H1       HT       0.417000       1.00800           0
     39180 TIP3     4954     TIP3     H2       HT       0.417000       1.00800           0
     39181 TIP3     4955     TIP3     OH2      OT      -0.834000       15.9994           0
     39182 TIP3     4955     TIP3     H1       HT       0.417000       1.00800           0
     39183 TIP3     4955     TIP3     H2       HT       0.417000       1.00800           0
     39184 TIP3     4956     TIP3     OH2      OT      -0.834000       15.9994           0
     39185 TIP3     4956     TIP3     H1       HT       0.417000       1.00800           0
     39186 TIP3     4956     TIP3     H2       HT       0.417000       1.00800           0
     39187 TIP3     4957     TIP3     OH2      OT      -0.834000       15.9994           0
     39188 TIP3     4957     TIP3     H1       HT       0.417000       1.00800           0
     39189 TIP3     4957     TIP3     H2       HT       0.417000       1.00800           0
     39190 TIP3     4958     TIP3     OH2      OT      -0.834000       15.9994           0
     39191 TIP3     4958     TIP3     H1       HT       0.417000       1.00800           0
     39192 TIP3     4958     TIP3     H2       HT       0.417000       1.00800           0
     39193 TIP3     4959     TIP3     OH2      OT      -0.834000       15.9994           0
     39194 TIP3     4959     TIP3     H1       HT       0.417000       1.00800           0
     39195 TIP3     4959     TIP3     H2       HT       0.417000       1.00800           0
     39196 TIP3     4960     TIP3     OH2      OT      -0.834000       15.9994           0
     39197 TIP3     4960     TIP3     H1       HT       0.417000       1.00800           0
     39198 TIP3     4960     TIP3     H2       HT       0.417000       1.00800           0
     39199 TIP3     4961     TIP3     OH2      OT      -0.834000       15.9994           0
     39200 TIP3     4961     TIP3     H1       HT       0.417000       1.00800           0
     39201 TIP3     4961     TIP3     H2       HT       0.417000       1.00800           0
     39202 TIP3     4962     TIP3     OH2      OT      -0.834000       15.9994           0
     39203 TIP3     4962     TIP3     H1       HT       0.417000       1.00800           0
     39204 TIP3     4962     TIP3     H2       HT       0.417000       1.00800           0
     39205 TIP3     4963     TIP3     OH2      OT      -0.834000       15.9994           0
     39206 TIP3     4963     TIP3     H1       HT       0.417000       1.00800           0
     39207 TIP3     4963     TIP3     H2       HT       0.417000       1.00800           0
     39208 TIP3     4964     TIP3     OH2      OT      -0.834000       15.9994           0
     39209 TIP3     4964     TIP3     H1       HT       0.417000       1.00800           0
     39210 TIP3     4964     TIP3     H2       HT       0.417000       1.00800           0
     39211 TIP3     4965     TIP3     OH2      OT      -0.834000       15.9994           0
     39212 TIP3     4965     TIP3     H1       HT       0.417000       1.00800           0
     39213 TIP3     4965     TIP3     H2       HT       0.417000       1.00800           0
     39214 TIP3     4966     TIP3     OH2      OT      -0.834000       15.9994           0
     39215 TIP3     4966     TIP3     H1       HT       0.417000       1.00800           0
     39216 TIP3     4966     TIP3     H2       HT       0.417000       1.00800           0
     39217 TIP3     4967     TIP3     OH2      OT      -0.834000       15.9994           0
     39218 TIP3     4967     TIP3     H1       HT       0.417000       1.00800           0
     39219 TIP3     4967     TIP3     H2       HT       0.417000       1.00800           0
     39220 TIP3     4968     TIP3     OH2      OT      -0.834000       15.9994           0
     39221 TIP3     4968     TIP3     H1       HT       0.417000       1.00800           0
     39222 TIP3     4968     TIP3     H2       HT       0.417000       1.00800           0
     39223 TIP3     4969     TIP3     OH2      OT      -0.834000       15.9994           0
     39224 TIP3     4969     TIP3     H1       HT       0.417000       1.00800           0
     39225 TIP3     4969     TIP3     H2       HT       0.417000       1.00800           0
     39226 TIP3     4970     TIP3     OH2      OT      -0.834000       15.9994           0
     39227 TIP3     4970     TIP3     H1       HT       0.417000       1.00800           0
     39228 TIP3     4970     TIP3     H2       HT       0.417000       1.00800           0
     39229 TIP3     4971     TIP3     OH2      OT      -0.834000       15.9994           0
     39230 TIP3     4971     TIP3     H1       HT       0.417000       1.00800           0
     39231 TIP3     4971     TIP3     H2       HT       0.417000       1.00800           0
     39232 TIP3     4972     TIP3     OH2      OT      -0.834000       15.9994           0
     39233 TIP3     4972     TIP3     H1       HT       0.417000       1.00800           0
     39234 TIP3     4972     TIP3     H2       HT       0.417000       1.00800           0
     39235 TIP3     4973     TIP3     OH2      OT      -0.834000       15.9994           0
     39236 TIP3     4973     TIP3     H1       HT       0.417000       1.00800           0
     39237 TIP3     4973     TIP3     H2       HT       0.417000       1.00800           0
     39238 TIP3     4974     TIP3     OH2      OT      -0.834000       15.9994           0
     39239 TIP3     4974     TIP3     H1       HT       0.417000       1.00800           0
     39240 TIP3     4974     TIP3     H2       HT       0.417000       1.00800           0
     39241 TIP3     4975     TIP3     OH2      OT      -0.834000       15.9994           0
     39242 TIP3     4975     TIP3     H1       HT       0.417000       1.00800           0
     39243 TIP3     4975     TIP3     H2       HT       0.417000       1.00800           0
     39244 TIP3     4976     TIP3     OH2      OT      -0.834000       15.9994           0
     39245 TIP3     4976     TIP3     H1       HT       0.417000       1.00800           0
     39246 TIP3     4976     TIP3     H2       HT       0.417000       1.00800           0
     39247 TIP3     4977     TIP3     OH2      OT      -0.834000       15.9994           0
     39248 TIP3     4977     TIP3     H1       HT       0.417000       1.00800           0
     39249 TIP3     4977     TIP3     H2       HT       0.417000       1.00800           0
     39250 TIP3     4978     TIP3     OH2      OT      -0.834000       15.9994           0
     39251 TIP3     4978     TIP3     H1       HT       0.417000       1.00800           0
     39252 TIP3     4978     TIP3     H2       HT       0.417000       1.00800           0
     39253 TIP3     4979     TIP3     OH2      OT      -0.834000       15.9994           0
     39254 TIP3     4979     TIP3     H1       HT       0.417000       1.00800           0
     39255 TIP3     4979     TIP3     H2       HT       0.417000       1.00800           0
     39256 TIP3     4980     TIP3     OH2      OT      -0.834000       15.9994           0
     39257 TIP3     4980     TIP3     H1       HT       0.417000       1.00800           0
     39258 TIP3     4980     TIP3     H2       HT       0.417000       1.00800           0
     39259 TIP3     4981     TIP3     OH2      OT      -0.834000       15.9994           0
     39260 TIP3     4981     TIP3     H1       HT       0.417000       1.00800           0
     39261 TIP3     4981     TIP3     H2       HT       0.417000       1.00800           0
     39262 TIP3     4982     TIP3     OH2      OT      -0.834000       15.9994           0
     39263 TIP3     4982     TIP3     H1       HT       0.417000       1.00800           0
     39264 TIP3     4982     TIP3     H2       HT       0.417000       1.00800           0
     39265 TIP3     4983     TIP3     OH2      OT      -0.834000       15.9994           0
     39266 TIP3     4983     TIP3     H1       HT       0.417000       1.00800           0
     39267 TIP3     4983     TIP3     H2       HT       0.417000       1.00800           0
     39268 TIP3     4984     TIP3     OH2      OT      -0.834000       15.9994           0
     39269 TIP3     4984     TIP3     H1       HT       0.417000       1.00800           0
     39270 TIP3     4984     TIP3     H2       HT       0.417000       1.00800           0
     39271 TIP3     4985     TIP3     OH2      OT      -0.834000       15.9994           0
     39272 TIP3     4985     TIP3     H1       HT       0.417000       1.00800           0
     39273 TIP3     4985     TIP3     H2       HT       0.417000       1.00800           0
     39274 TIP3     4986     TIP3     OH2      OT      -0.834000       15.9994           0
     39275 TIP3     4986     TIP3     H1       HT       0.417000       1.00800           0
     39276 TIP3     4986     TIP3     H2       HT       0.417000       1.00800           0
     39277 TIP3     4987     TIP3     OH2      OT      -0.834000       15.9994           0
     39278 TIP3     4987     TIP3     H1       HT       0.417000       1.00800           0
     39279 TIP3     4987     TIP3     H2       HT       0.417000       1.00800           0
     39280 TIP3     4988     TIP3     OH2      OT      -0.834000       15.9994           0
     39281 TIP3     4988     TIP3     H1       HT       0.417000       1.00800           0
     39282 TIP3     4988     TIP3     H2       HT       0.417000       1.00800           0
     39283 TIP3     4989     TIP3     OH2      OT      -0.834000       15.9994           0
     39284 TIP3     4989     TIP3     H1       HT       0.417000       1.00800           0
     39285 TIP3     4989     TIP3     H2       HT       0.417000       1.00800           0
     39286 TIP3     4990     TIP3     OH2      OT      -0.834000       15.9994           0
     39287 TIP3     4990     TIP3     H1       HT       0.417000       1.00800           0
     39288 TIP3     4990     TIP3     H2       HT       0.417000       1.00800           0
     39289 TIP3     4991     TIP3     OH2      OT      -0.834000       15.9994           0
     39290 TIP3     4991     TIP3     H1       HT       0.417000       1.00800           0
     39291 TIP3     4991     TIP3     H2       HT       0.417000       1.00800           0
     39292 TIP3     4992     TIP3     OH2      OT      -0.834000       15.9994           0
     39293 TIP3     4992     TIP3     H1       HT       0.417000       1.00800           0
     39294 TIP3     4992     TIP3     H2       HT       0.417000       1.00800           0
     39295 TIP3     4993     TIP3     OH2      OT      -0.834000       15.9994           0
     39296 TIP3     4993     TIP3     H1       HT       0.417000       1.00800           0
     39297 TIP3     4993     TIP3     H2       HT       0.417000       1.00800           0
     39298 TIP3     4994     TIP3     OH2      OT      -0.834000       15.9994           0
     39299 TIP3     4994     TIP3     H1       HT       0.417000       1.00800           0
     39300 TIP3     4994     TIP3     H2       HT       0.417000       1.00800           0
     39301 TIP3     4995     TIP3     OH2      OT      -0.834000       15.9994           0
     39302 TIP3     4995     TIP3     H1       HT       0.417000       1.00800           0
     39303 TIP3     4995     TIP3     H2       HT       0.417000       1.00800           0
     39304 TIP3     4996     TIP3     OH2      OT      -0.834000       15.9994           0
     39305 TIP3     4996     TIP3     H1       HT       0.417000       1.00800           0
     39306 TIP3     4996     TIP3     H2       HT       0.417000       1.00800           0
     39307 TIP3     4997     TIP3     OH2      OT      -0.834000       15.9994           0
     39308 TIP3     4997     TIP3     H1       HT       0.417000       1.00800           0
     39309 TIP3     4997     TIP3     H2       HT       0.417000       1.00800           0
     39310 TIP3     4998     TIP3     OH2      OT      -0.834000       15.9994           0
     39311 TIP3     4998     TIP3     H1       HT       0.417000       1.00800           0
     39312 TIP3     4998     TIP3     H2       HT       0.417000       1.00800           0
     39313 TIP3     4999     TIP3     OH2      OT      -0.834000       15.9994           0
     39314 TIP3     4999     TIP3     H1       HT       0.417000       1.00800           0
     39315 TIP3     4999     TIP3     H2       HT       0.417000       1.00800           0
     39316 TIP3     5000     TIP3     OH2      OT      -0.834000       15.9994           0
     39317 TIP3     5000     TIP3     H1       HT       0.417000       1.00800           0
     39318 TIP3     5000     TIP3     H2       HT       0.417000       1.00800           0
     39319 TIP3     5001     TIP3     OH2      OT      -0.834000       15.9994           0
     39320 TIP3     5001     TIP3     H1       HT       0.417000       1.00800           0
     39321 TIP3     5001     TIP3     H2       HT       0.417000       1.00800           0
     39322 TIP3     5002     TIP3     OH2      OT      -0.834000       15.9994           0
     39323 TIP3     5002     TIP3     H1       HT       0.417000       1.00800           0
     39324 TIP3     5002     TIP3     H2       HT       0.417000       1.00800           0
     39325 TIP3     5003     TIP3     OH2      OT      -0.834000       15.9994           0
     39326 TIP3     5003     TIP3     H1       HT       0.417000       1.00800           0
     39327 TIP3     5003     TIP3     H2       HT       0.417000       1.00800           0
     39328 TIP3     5004     TIP3     OH2      OT      -0.834000       15.9994           0
     39329 TIP3     5004     TIP3     H1       HT       0.417000       1.00800           0
     39330 TIP3     5004     TIP3     H2       HT       0.417000       1.00800           0
     39331 TIP3     5005     TIP3     OH2      OT      -0.834000       15.9994           0
     39332 TIP3     5005     TIP3     H1       HT       0.417000       1.00800           0
     39333 TIP3     5005     TIP3     H2       HT       0.417000       1.00800           0
     39334 TIP3     5006     TIP3     OH2      OT      -0.834000       15.9994           0
     39335 TIP3     5006     TIP3     H1       HT       0.417000       1.00800           0
     39336 TIP3     5006     TIP3     H2       HT       0.417000       1.00800           0
     39337 TIP3     5007     TIP3     OH2      OT      -0.834000       15.9994           0
     39338 TIP3     5007     TIP3     H1       HT       0.417000       1.00800           0
     39339 TIP3     5007     TIP3     H2       HT       0.417000       1.00800           0
     39340 TIP3     5008     TIP3     OH2      OT      -0.834000       15.9994           0
     39341 TIP3     5008     TIP3     H1       HT       0.417000       1.00800           0
     39342 TIP3     5008     TIP3     H2       HT       0.417000       1.00800           0
     39343 TIP3     5009     TIP3     OH2      OT      -0.834000       15.9994           0
     39344 TIP3     5009     TIP3     H1       HT       0.417000       1.00800           0
     39345 TIP3     5009     TIP3     H2       HT       0.417000       1.00800           0
     39346 TIP3     5010     TIP3     OH2      OT      -0.834000       15.9994           0
     39347 TIP3     5010     TIP3     H1       HT       0.417000       1.00800           0
     39348 TIP3     5010     TIP3     H2       HT       0.417000       1.00800           0
     39349 TIP3     5011     TIP3     OH2      OT      -0.834000       15.9994           0
     39350 TIP3     5011     TIP3     H1       HT       0.417000       1.00800           0
     39351 TIP3     5011     TIP3     H2       HT       0.417000       1.00800           0
     39352 TIP3     5012     TIP3     OH2      OT      -0.834000       15.9994           0
     39353 TIP3     5012     TIP3     H1       HT       0.417000       1.00800           0
     39354 TIP3     5012     TIP3     H2       HT       0.417000       1.00800           0
     39355 TIP3     5013     TIP3     OH2      OT      -0.834000       15.9994           0
     39356 TIP3     5013     TIP3     H1       HT       0.417000       1.00800           0
     39357 TIP3     5013     TIP3     H2       HT       0.417000       1.00800           0
     39358 TIP3     5014     TIP3     OH2      OT      -0.834000       15.9994           0
     39359 TIP3     5014     TIP3     H1       HT       0.417000       1.00800           0
     39360 TIP3     5014     TIP3     H2       HT       0.417000       1.00800           0
     39361 TIP3     5015     TIP3     OH2      OT      -0.834000       15.9994           0
     39362 TIP3     5015     TIP3     H1       HT       0.417000       1.00800           0
     39363 TIP3     5015     TIP3     H2       HT       0.417000       1.00800           0
     39364 TIP3     5016     TIP3     OH2      OT      -0.834000       15.9994           0
     39365 TIP3     5016     TIP3     H1       HT       0.417000       1.00800           0
     39366 TIP3     5016     TIP3     H2       HT       0.417000       1.00800           0
     39367 TIP3     5017     TIP3     OH2      OT      -0.834000       15.9994           0
     39368 TIP3     5017     TIP3     H1       HT       0.417000       1.00800           0
     39369 TIP3     5017     TIP3     H2       HT       0.417000       1.00800           0
     39370 TIP3     5018     TIP3     OH2      OT      -0.834000       15.9994           0
     39371 TIP3     5018     TIP3     H1       HT       0.417000       1.00800           0
     39372 TIP3     5018     TIP3     H2       HT       0.417000       1.00800           0
     39373 TIP3     5019     TIP3     OH2      OT      -0.834000       15.9994           0
     39374 TIP3     5019     TIP3     H1       HT       0.417000       1.00800           0
     39375 TIP3     5019     TIP3     H2       HT       0.417000       1.00800           0
     39376 TIP3     5020     TIP3     OH2      OT      -0.834000       15.9994           0
     39377 TIP3     5020     TIP3     H1       HT       0.417000       1.00800           0
     39378 TIP3     5020     TIP3     H2       HT       0.417000       1.00800           0
     39379 TIP3     5021     TIP3     OH2      OT      -0.834000       15.9994           0
     39380 TIP3     5021     TIP3     H1       HT       0.417000       1.00800           0
     39381 TIP3     5021     TIP3     H2       HT       0.417000       1.00800           0
     39382 TIP3     5022     TIP3     OH2      OT      -0.834000       15.9994           0
     39383 TIP3     5022     TIP3     H1       HT       0.417000       1.00800           0
     39384 TIP3     5022     TIP3     H2       HT       0.417000       1.00800           0
     39385 TIP3     5023     TIP3     OH2      OT      -0.834000       15.9994           0
     39386 TIP3     5023     TIP3     H1       HT       0.417000       1.00800           0
     39387 TIP3     5023     TIP3     H2       HT       0.417000       1.00800           0
     39388 TIP3     5024     TIP3     OH2      OT      -0.834000       15.9994           0
     39389 TIP3     5024     TIP3     H1       HT       0.417000       1.00800           0
     39390 TIP3     5024     TIP3     H2       HT       0.417000       1.00800           0
     39391 TIP3     5025     TIP3     OH2      OT      -0.834000       15.9994           0
     39392 TIP3     5025     TIP3     H1       HT       0.417000       1.00800           0
     39393 TIP3     5025     TIP3     H2       HT       0.417000       1.00800           0
     39394 TIP3     5026     TIP3     OH2      OT      -0.834000       15.9994           0
     39395 TIP3     5026     TIP3     H1       HT       0.417000       1.00800           0
     39396 TIP3     5026     TIP3     H2       HT       0.417000       1.00800           0
     39397 TIP3     5027     TIP3     OH2      OT      -0.834000       15.9994           0
     39398 TIP3     5027     TIP3     H1       HT       0.417000       1.00800           0
     39399 TIP3     5027     TIP3     H2       HT       0.417000       1.00800           0
     39400 TIP3     5028     TIP3     OH2      OT      -0.834000       15.9994           0
     39401 TIP3     5028     TIP3     H1       HT       0.417000       1.00800           0
     39402 TIP3     5028     TIP3     H2       HT       0.417000       1.00800           0
     39403 TIP3     5029     TIP3     OH2      OT      -0.834000       15.9994           0
     39404 TIP3     5029     TIP3     H1       HT       0.417000       1.00800           0
     39405 TIP3     5029     TIP3     H2       HT       0.417000       1.00800           0
     39406 TIP3     5030     TIP3     OH2      OT      -0.834000       15.9994           0
     39407 TIP3     5030     TIP3     H1       HT       0.417000       1.00800           0
     39408 TIP3     5030     TIP3     H2       HT       0.417000       1.00800           0
     39409 TIP3     5031     TIP3     OH2      OT      -0.834000       15.9994           0
     39410 TIP3     5031     TIP3     H1       HT       0.417000       1.00800           0
     39411 TIP3     5031     TIP3     H2       HT       0.417000       1.00800           0
     39412 TIP3     5032     TIP3     OH2      OT      -0.834000       15.9994           0
     39413 TIP3     5032     TIP3     H1       HT       0.417000       1.00800           0
     39414 TIP3     5032     TIP3     H2       HT       0.417000       1.00800           0
     39415 TIP3     5033     TIP3     OH2      OT      -0.834000       15.9994           0
     39416 TIP3     5033     TIP3     H1       HT       0.417000       1.00800           0
     39417 TIP3     5033     TIP3     H2       HT       0.417000       1.00800           0
     39418 TIP3     5034     TIP3     OH2      OT      -0.834000       15.9994           0
     39419 TIP3     5034     TIP3     H1       HT       0.417000       1.00800           0
     39420 TIP3     5034     TIP3     H2       HT       0.417000       1.00800           0
     39421 TIP3     5035     TIP3     OH2      OT      -0.834000       15.9994           0
     39422 TIP3     5035     TIP3     H1       HT       0.417000       1.00800           0
     39423 TIP3     5035     TIP3     H2       HT       0.417000       1.00800           0
     39424 TIP3     5036     TIP3     OH2      OT      -0.834000       15.9994           0
     39425 TIP3     5036     TIP3     H1       HT       0.417000       1.00800           0
     39426 TIP3     5036     TIP3     H2       HT       0.417000       1.00800           0
     39427 TIP3     5037     TIP3     OH2      OT      -0.834000       15.9994           0
     39428 TIP3     5037     TIP3     H1       HT       0.417000       1.00800           0
     39429 TIP3     5037     TIP3     H2       HT       0.417000       1.00800           0
     39430 TIP3     5038     TIP3     OH2      OT      -0.834000       15.9994           0
     39431 TIP3     5038     TIP3     H1       HT       0.417000       1.00800           0
     39432 TIP3     5038     TIP3     H2       HT       0.417000       1.00800           0
     39433 TIP3     5039     TIP3     OH2      OT      -0.834000       15.9994           0
     39434 TIP3     5039     TIP3     H1       HT       0.417000       1.00800           0
     39435 TIP3     5039     TIP3     H2       HT       0.417000       1.00800           0
     39436 TIP3     5040     TIP3     OH2      OT      -0.834000       15.9994           0
     39437 TIP3     5040     TIP3     H1       HT       0.417000       1.00800           0
     39438 TIP3     5040     TIP3     H2       HT       0.417000       1.00800           0
     39439 TIP3     5041     TIP3     OH2      OT      -0.834000       15.9994           0
     39440 TIP3     5041     TIP3     H1       HT       0.417000       1.00800           0
     39441 TIP3     5041     TIP3     H2       HT       0.417000       1.00800           0
     39442 TIP3     5042     TIP3     OH2      OT      -0.834000       15.9994           0
     39443 TIP3     5042     TIP3     H1       HT       0.417000       1.00800           0
     39444 TIP3     5042     TIP3     H2       HT       0.417000       1.00800           0
     39445 TIP3     5043     TIP3     OH2      OT      -0.834000       15.9994           0
     39446 TIP3     5043     TIP3     H1       HT       0.417000       1.00800           0
     39447 TIP3     5043     TIP3     H2       HT       0.417000       1.00800           0
     39448 TIP3     5044     TIP3     OH2      OT      -0.834000       15.9994           0
     39449 TIP3     5044     TIP3     H1       HT       0.417000       1.00800           0
     39450 TIP3     5044     TIP3     H2       HT       0.417000       1.00800           0
     39451 TIP3     5045     TIP3     OH2      OT      -0.834000       15.9994           0
     39452 TIP3     5045     TIP3     H1       HT       0.417000       1.00800           0
     39453 TIP3     5045     TIP3     H2       HT       0.417000       1.00800           0
     39454 TIP3     5046     TIP3     OH2      OT      -0.834000       15.9994           0
     39455 TIP3     5046     TIP3     H1       HT       0.417000       1.00800           0
     39456 TIP3     5046     TIP3     H2       HT       0.417000       1.00800           0
     39457 TIP3     5047     TIP3     OH2      OT      -0.834000       15.9994           0
     39458 TIP3     5047     TIP3     H1       HT       0.417000       1.00800           0
     39459 TIP3     5047     TIP3     H2       HT       0.417000       1.00800           0
     39460 TIP3     5048     TIP3     OH2      OT      -0.834000       15.9994           0
     39461 TIP3     5048     TIP3     H1       HT       0.417000       1.00800           0
     39462 TIP3     5048     TIP3     H2       HT       0.417000       1.00800           0
     39463 TIP3     5049     TIP3     OH2      OT      -0.834000       15.9994           0
     39464 TIP3     5049     TIP3     H1       HT       0.417000       1.00800           0
     39465 TIP3     5049     TIP3     H2       HT       0.417000       1.00800           0
     39466 TIP3     5050     TIP3     OH2      OT      -0.834000       15.9994           0
     39467 TIP3     5050     TIP3     H1       HT       0.417000       1.00800           0
     39468 TIP3     5050     TIP3     H2       HT       0.417000       1.00800           0
     39469 TIP3     5051     TIP3     OH2      OT      -0.834000       15.9994           0
     39470 TIP3     5051     TIP3     H1       HT       0.417000       1.00800           0
     39471 TIP3     5051     TIP3     H2       HT       0.417000       1.00800           0
     39472 TIP3     5052     TIP3     OH2      OT      -0.834000       15.9994           0
     39473 TIP3     5052     TIP3     H1       HT       0.417000       1.00800           0
     39474 TIP3     5052     TIP3     H2       HT       0.417000       1.00800           0
     39475 TIP3     5053     TIP3     OH2      OT      -0.834000       15.9994           0
     39476 TIP3     5053     TIP3     H1       HT       0.417000       1.00800           0
     39477 TIP3     5053     TIP3     H2       HT       0.417000       1.00800           0
     39478 TIP3     5054     TIP3     OH2      OT      -0.834000       15.9994           0
     39479 TIP3     5054     TIP3     H1       HT       0.417000       1.00800           0
     39480 TIP3     5054     TIP3     H2       HT       0.417000       1.00800           0
     39481 TIP3     5055     TIP3     OH2      OT      -0.834000       15.9994           0
     39482 TIP3     5055     TIP3     H1       HT       0.417000       1.00800           0
     39483 TIP3     5055     TIP3     H2       HT       0.417000       1.00800           0
     39484 TIP3     5056     TIP3     OH2      OT      -0.834000       15.9994           0
     39485 TIP3     5056     TIP3     H1       HT       0.417000       1.00800           0
     39486 TIP3     5056     TIP3     H2       HT       0.417000       1.00800           0
     39487 TIP3     5057     TIP3     OH2      OT      -0.834000       15.9994           0
     39488 TIP3     5057     TIP3     H1       HT       0.417000       1.00800           0
     39489 TIP3     5057     TIP3     H2       HT       0.417000       1.00800           0
     39490 TIP3     5058     TIP3     OH2      OT      -0.834000       15.9994           0
     39491 TIP3     5058     TIP3     H1       HT       0.417000       1.00800           0
     39492 TIP3     5058     TIP3     H2       HT       0.417000       1.00800           0
     39493 TIP3     5059     TIP3     OH2      OT      -0.834000       15.9994           0
     39494 TIP3     5059     TIP3     H1       HT       0.417000       1.00800           0
     39495 TIP3     5059     TIP3     H2       HT       0.417000       1.00800           0
     39496 TIP3     5060     TIP3     OH2      OT      -0.834000       15.9994           0
     39497 TIP3     5060     TIP3     H1       HT       0.417000       1.00800           0
     39498 TIP3     5060     TIP3     H2       HT       0.417000       1.00800           0
     39499 TIP3     5061     TIP3     OH2      OT      -0.834000       15.9994           0
     39500 TIP3     5061     TIP3     H1       HT       0.417000       1.00800           0
     39501 TIP3     5061     TIP3     H2       HT       0.417000       1.00800           0
     39502 TIP3     5062     TIP3     OH2      OT      -0.834000       15.9994           0
     39503 TIP3     5062     TIP3     H1       HT       0.417000       1.00800           0
     39504 TIP3     5062     TIP3     H2       HT       0.417000       1.00800           0
     39505 TIP3     5063     TIP3     OH2      OT      -0.834000       15.9994           0
     39506 TIP3     5063     TIP3     H1       HT       0.417000       1.00800           0
     39507 TIP3     5063     TIP3     H2       HT       0.417000       1.00800           0
     39508 TIP3     5064     TIP3     OH2      OT      -0.834000       15.9994           0
     39509 TIP3     5064     TIP3     H1       HT       0.417000       1.00800           0
     39510 TIP3     5064     TIP3     H2       HT       0.417000       1.00800           0
     39511 TIP3     5065     TIP3     OH2      OT      -0.834000       15.9994           0
     39512 TIP3     5065     TIP3     H1       HT       0.417000       1.00800           0
     39513 TIP3     5065     TIP3     H2       HT       0.417000       1.00800           0
     39514 TIP3     5066     TIP3     OH2      OT      -0.834000       15.9994           0
     39515 TIP3     5066     TIP3     H1       HT       0.417000       1.00800           0
     39516 TIP3     5066     TIP3     H2       HT       0.417000       1.00800           0
     39517 TIP3     5067     TIP3     OH2      OT      -0.834000       15.9994           0
     39518 TIP3     5067     TIP3     H1       HT       0.417000       1.00800           0
     39519 TIP3     5067     TIP3     H2       HT       0.417000       1.00800           0
     39520 TIP3     5068     TIP3     OH2      OT      -0.834000       15.9994           0
     39521 TIP3     5068     TIP3     H1       HT       0.417000       1.00800           0
     39522 TIP3     5068     TIP3     H2       HT       0.417000       1.00800           0
     39523 TIP3     5069     TIP3     OH2      OT      -0.834000       15.9994           0
     39524 TIP3     5069     TIP3     H1       HT       0.417000       1.00800           0
     39525 TIP3     5069     TIP3     H2       HT       0.417000       1.00800           0
     39526 TIP3     5070     TIP3     OH2      OT      -0.834000       15.9994           0
     39527 TIP3     5070     TIP3     H1       HT       0.417000       1.00800           0
     39528 TIP3     5070     TIP3     H2       HT       0.417000       1.00800           0
     39529 TIP3     5071     TIP3     OH2      OT      -0.834000       15.9994           0
     39530 TIP3     5071     TIP3     H1       HT       0.417000       1.00800           0
     39531 TIP3     5071     TIP3     H2       HT       0.417000       1.00800           0
     39532 TIP3     5072     TIP3     OH2      OT      -0.834000       15.9994           0
     39533 TIP3     5072     TIP3     H1       HT       0.417000       1.00800           0
     39534 TIP3     5072     TIP3     H2       HT       0.417000       1.00800           0
     39535 TIP3     5073     TIP3     OH2      OT      -0.834000       15.9994           0
     39536 TIP3     5073     TIP3     H1       HT       0.417000       1.00800           0
     39537 TIP3     5073     TIP3     H2       HT       0.417000       1.00800           0
     39538 TIP3     5074     TIP3     OH2      OT      -0.834000       15.9994           0
     39539 TIP3     5074     TIP3     H1       HT       0.417000       1.00800           0
     39540 TIP3     5074     TIP3     H2       HT       0.417000       1.00800           0
     39541 TIP3     5075     TIP3     OH2      OT      -0.834000       15.9994           0
     39542 TIP3     5075     TIP3     H1       HT       0.417000       1.00800           0
     39543 TIP3     5075     TIP3     H2       HT       0.417000       1.00800           0
     39544 TIP3     5076     TIP3     OH2      OT      -0.834000       15.9994           0
     39545 TIP3     5076     TIP3     H1       HT       0.417000       1.00800           0
     39546 TIP3     5076     TIP3     H2       HT       0.417000       1.00800           0
     39547 TIP3     5077     TIP3     OH2      OT      -0.834000       15.9994           0
     39548 TIP3     5077     TIP3     H1       HT       0.417000       1.00800           0
     39549 TIP3     5077     TIP3     H2       HT       0.417000       1.00800           0
     39550 TIP3     5078     TIP3     OH2      OT      -0.834000       15.9994           0
     39551 TIP3     5078     TIP3     H1       HT       0.417000       1.00800           0
     39552 TIP3     5078     TIP3     H2       HT       0.417000       1.00800           0
     39553 TIP3     5079     TIP3     OH2      OT      -0.834000       15.9994           0
     39554 TIP3     5079     TIP3     H1       HT       0.417000       1.00800           0
     39555 TIP3     5079     TIP3     H2       HT       0.417000       1.00800           0
     39556 TIP3     5080     TIP3     OH2      OT      -0.834000       15.9994           0
     39557 TIP3     5080     TIP3     H1       HT       0.417000       1.00800           0
     39558 TIP3     5080     TIP3     H2       HT       0.417000       1.00800           0
     39559 TIP3     5081     TIP3     OH2      OT      -0.834000       15.9994           0
     39560 TIP3     5081     TIP3     H1       HT       0.417000       1.00800           0
     39561 TIP3     5081     TIP3     H2       HT       0.417000       1.00800           0
     39562 TIP3     5082     TIP3     OH2      OT      -0.834000       15.9994           0
     39563 TIP3     5082     TIP3     H1       HT       0.417000       1.00800           0
     39564 TIP3     5082     TIP3     H2       HT       0.417000       1.00800           0
     39565 TIP3     5083     TIP3     OH2      OT      -0.834000       15.9994           0
     39566 TIP3     5083     TIP3     H1       HT       0.417000       1.00800           0
     39567 TIP3     5083     TIP3     H2       HT       0.417000       1.00800           0
     39568 TIP3     5084     TIP3     OH2      OT      -0.834000       15.9994           0
     39569 TIP3     5084     TIP3     H1       HT       0.417000       1.00800           0
     39570 TIP3     5084     TIP3     H2       HT       0.417000       1.00800           0
     39571 TIP3     5085     TIP3     OH2      OT      -0.834000       15.9994           0
     39572 TIP3     5085     TIP3     H1       HT       0.417000       1.00800           0
     39573 TIP3     5085     TIP3     H2       HT       0.417000       1.00800           0
     39574 TIP3     5086     TIP3     OH2      OT      -0.834000       15.9994           0
     39575 TIP3     5086     TIP3     H1       HT       0.417000       1.00800           0
     39576 TIP3     5086     TIP3     H2       HT       0.417000       1.00800           0
     39577 TIP3     5087     TIP3     OH2      OT      -0.834000       15.9994           0
     39578 TIP3     5087     TIP3     H1       HT       0.417000       1.00800           0
     39579 TIP3     5087     TIP3     H2       HT       0.417000       1.00800           0
     39580 TIP3     5088     TIP3     OH2      OT      -0.834000       15.9994           0
     39581 TIP3     5088     TIP3     H1       HT       0.417000       1.00800           0
     39582 TIP3     5088     TIP3     H2       HT       0.417000       1.00800           0
     39583 TIP3     5089     TIP3     OH2      OT      -0.834000       15.9994           0
     39584 TIP3     5089     TIP3     H1       HT       0.417000       1.00800           0
     39585 TIP3     5089     TIP3     H2       HT       0.417000       1.00800           0
     39586 TIP3     5090     TIP3     OH2      OT      -0.834000       15.9994           0
     39587 TIP3     5090     TIP3     H1       HT       0.417000       1.00800           0
     39588 TIP3     5090     TIP3     H2       HT       0.417000       1.00800           0
     39589 TIP3     5091     TIP3     OH2      OT      -0.834000       15.9994           0
     39590 TIP3     5091     TIP3     H1       HT       0.417000       1.00800           0
     39591 TIP3     5091     TIP3     H2       HT       0.417000       1.00800           0
     39592 TIP3     5092     TIP3     OH2      OT      -0.834000       15.9994           0
     39593 TIP3     5092     TIP3     H1       HT       0.417000       1.00800           0
     39594 TIP3     5092     TIP3     H2       HT       0.417000       1.00800           0
     39595 TIP3     5093     TIP3     OH2      OT      -0.834000       15.9994           0
     39596 TIP3     5093     TIP3     H1       HT       0.417000       1.00800           0
     39597 TIP3     5093     TIP3     H2       HT       0.417000       1.00800           0
     39598 TIP3     5094     TIP3     OH2      OT      -0.834000       15.9994           0
     39599 TIP3     5094     TIP3     H1       HT       0.417000       1.00800           0
     39600 TIP3     5094     TIP3     H2       HT       0.417000       1.00800           0
     39601 TIP3     5095     TIP3     OH2      OT      -0.834000       15.9994           0
     39602 TIP3     5095     TIP3     H1       HT       0.417000       1.00800           0
     39603 TIP3     5095     TIP3     H2       HT       0.417000       1.00800           0
     39604 TIP3     5096     TIP3     OH2      OT      -0.834000       15.9994           0
     39605 TIP3     5096     TIP3     H1       HT       0.417000       1.00800           0
     39606 TIP3     5096     TIP3     H2       HT       0.417000       1.00800           0
     39607 TIP3     5097     TIP3     OH2      OT      -0.834000       15.9994           0
     39608 TIP3     5097     TIP3     H1       HT       0.417000       1.00800           0
     39609 TIP3     5097     TIP3     H2       HT       0.417000       1.00800           0
     39610 TIP3     5098     TIP3     OH2      OT      -0.834000       15.9994           0
     39611 TIP3     5098     TIP3     H1       HT       0.417000       1.00800           0
     39612 TIP3     5098     TIP3     H2       HT       0.417000       1.00800           0
     39613 TIP3     5099     TIP3     OH2      OT      -0.834000       15.9994           0
     39614 TIP3     5099     TIP3     H1       HT       0.417000       1.00800           0
     39615 TIP3     5099     TIP3     H2       HT       0.417000       1.00800           0
     39616 TIP3     5100     TIP3     OH2      OT      -0.834000       15.9994           0
     39617 TIP3     5100     TIP3     H1       HT       0.417000       1.00800           0
     39618 TIP3     5100     TIP3     H2       HT       0.417000       1.00800           0
     39619 TIP3     5101     TIP3     OH2      OT      -0.834000       15.9994           0
     39620 TIP3     5101     TIP3     H1       HT       0.417000       1.00800           0
     39621 TIP3     5101     TIP3     H2       HT       0.417000       1.00800           0
     39622 TIP3     5102     TIP3     OH2      OT      -0.834000       15.9994           0
     39623 TIP3     5102     TIP3     H1       HT       0.417000       1.00800           0
     39624 TIP3     5102     TIP3     H2       HT       0.417000       1.00800           0
     39625 TIP3     5103     TIP3     OH2      OT      -0.834000       15.9994           0
     39626 TIP3     5103     TIP3     H1       HT       0.417000       1.00800           0
     39627 TIP3     5103     TIP3     H2       HT       0.417000       1.00800           0
     39628 TIP3     5104     TIP3     OH2      OT      -0.834000       15.9994           0
     39629 TIP3     5104     TIP3     H1       HT       0.417000       1.00800           0
     39630 TIP3     5104     TIP3     H2       HT       0.417000       1.00800           0
     39631 TIP3     5105     TIP3     OH2      OT      -0.834000       15.9994           0
     39632 TIP3     5105     TIP3     H1       HT       0.417000       1.00800           0
     39633 TIP3     5105     TIP3     H2       HT       0.417000       1.00800           0
     39634 TIP3     5106     TIP3     OH2      OT      -0.834000       15.9994           0
     39635 TIP3     5106     TIP3     H1       HT       0.417000       1.00800           0
     39636 TIP3     5106     TIP3     H2       HT       0.417000       1.00800           0
     39637 TIP3     5107     TIP3     OH2      OT      -0.834000       15.9994           0
     39638 TIP3     5107     TIP3     H1       HT       0.417000       1.00800           0
     39639 TIP3     5107     TIP3     H2       HT       0.417000       1.00800           0
     39640 TIP3     5108     TIP3     OH2      OT      -0.834000       15.9994           0
     39641 TIP3     5108     TIP3     H1       HT       0.417000       1.00800           0
     39642 TIP3     5108     TIP3     H2       HT       0.417000       1.00800           0
     39643 TIP3     5109     TIP3     OH2      OT      -0.834000       15.9994           0
     39644 TIP3     5109     TIP3     H1       HT       0.417000       1.00800           0
     39645 TIP3     5109     TIP3     H2       HT       0.417000       1.00800           0
     39646 TIP3     5110     TIP3     OH2      OT      -0.834000       15.9994           0
     39647 TIP3     5110     TIP3     H1       HT       0.417000       1.00800           0
     39648 TIP3     5110     TIP3     H2       HT       0.417000       1.00800           0
     39649 TIP3     5111     TIP3     OH2      OT      -0.834000       15.9994           0
     39650 TIP3     5111     TIP3     H1       HT       0.417000       1.00800           0
     39651 TIP3     5111     TIP3     H2       HT       0.417000       1.00800           0
     39652 TIP3     5112     TIP3     OH2      OT      -0.834000       15.9994           0
     39653 TIP3     5112     TIP3     H1       HT       0.417000       1.00800           0
     39654 TIP3     5112     TIP3     H2       HT       0.417000       1.00800           0
     39655 TIP3     5113     TIP3     OH2      OT      -0.834000       15.9994           0
     39656 TIP3     5113     TIP3     H1       HT       0.417000       1.00800           0
     39657 TIP3     5113     TIP3     H2       HT       0.417000       1.00800           0
     39658 TIP3     5114     TIP3     OH2      OT      -0.834000       15.9994           0
     39659 TIP3     5114     TIP3     H1       HT       0.417000       1.00800           0
     39660 TIP3     5114     TIP3     H2       HT       0.417000       1.00800           0
     39661 TIP3     5115     TIP3     OH2      OT      -0.834000       15.9994           0
     39662 TIP3     5115     TIP3     H1       HT       0.417000       1.00800           0
     39663 TIP3     5115     TIP3     H2       HT       0.417000       1.00800           0
     39664 TIP3     5116     TIP3     OH2      OT      -0.834000       15.9994           0
     39665 TIP3     5116     TIP3     H1       HT       0.417000       1.00800           0
     39666 TIP3     5116     TIP3     H2       HT       0.417000       1.00800           0
     39667 TIP3     5117     TIP3     OH2      OT      -0.834000       15.9994           0
     39668 TIP3     5117     TIP3     H1       HT       0.417000       1.00800           0
     39669 TIP3     5117     TIP3     H2       HT       0.417000       1.00800           0
     39670 TIP3     5118     TIP3     OH2      OT      -0.834000       15.9994           0
     39671 TIP3     5118     TIP3     H1       HT       0.417000       1.00800           0
     39672 TIP3     5118     TIP3     H2       HT       0.417000       1.00800           0
     39673 TIP3     5119     TIP3     OH2      OT      -0.834000       15.9994           0
     39674 TIP3     5119     TIP3     H1       HT       0.417000       1.00800           0
     39675 TIP3     5119     TIP3     H2       HT       0.417000       1.00800           0
     39676 TIP3     5120     TIP3     OH2      OT      -0.834000       15.9994           0
     39677 TIP3     5120     TIP3     H1       HT       0.417000       1.00800           0
     39678 TIP3     5120     TIP3     H2       HT       0.417000       1.00800           0
     39679 TIP3     5121     TIP3     OH2      OT      -0.834000       15.9994           0
     39680 TIP3     5121     TIP3     H1       HT       0.417000       1.00800           0
     39681 TIP3     5121     TIP3     H2       HT       0.417000       1.00800           0
     39682 TIP3     5122     TIP3     OH2      OT      -0.834000       15.9994           0
     39683 TIP3     5122     TIP3     H1       HT       0.417000       1.00800           0
     39684 TIP3     5122     TIP3     H2       HT       0.417000       1.00800           0
     39685 TIP3     5123     TIP3     OH2      OT      -0.834000       15.9994           0
     39686 TIP3     5123     TIP3     H1       HT       0.417000       1.00800           0
     39687 TIP3     5123     TIP3     H2       HT       0.417000       1.00800           0
     39688 TIP3     5124     TIP3     OH2      OT      -0.834000       15.9994           0
     39689 TIP3     5124     TIP3     H1       HT       0.417000       1.00800           0
     39690 TIP3     5124     TIP3     H2       HT       0.417000       1.00800           0
     39691 TIP3     5125     TIP3     OH2      OT      -0.834000       15.9994           0
     39692 TIP3     5125     TIP3     H1       HT       0.417000       1.00800           0
     39693 TIP3     5125     TIP3     H2       HT       0.417000       1.00800           0
     39694 TIP3     5126     TIP3     OH2      OT      -0.834000       15.9994           0
     39695 TIP3     5126     TIP3     H1       HT       0.417000       1.00800           0
     39696 TIP3     5126     TIP3     H2       HT       0.417000       1.00800           0
     39697 TIP3     5127     TIP3     OH2      OT      -0.834000       15.9994           0
     39698 TIP3     5127     TIP3     H1       HT       0.417000       1.00800           0
     39699 TIP3     5127     TIP3     H2       HT       0.417000       1.00800           0
     39700 TIP3     5128     TIP3     OH2      OT      -0.834000       15.9994           0
     39701 TIP3     5128     TIP3     H1       HT       0.417000       1.00800           0
     39702 TIP3     5128     TIP3     H2       HT       0.417000       1.00800           0
     39703 TIP3     5129     TIP3     OH2      OT      -0.834000       15.9994           0
     39704 TIP3     5129     TIP3     H1       HT       0.417000       1.00800           0
     39705 TIP3     5129     TIP3     H2       HT       0.417000       1.00800           0
     39706 TIP3     5130     TIP3     OH2      OT      -0.834000       15.9994           0
     39707 TIP3     5130     TIP3     H1       HT       0.417000       1.00800           0
     39708 TIP3     5130     TIP3     H2       HT       0.417000       1.00800           0
     39709 TIP3     5131     TIP3     OH2      OT      -0.834000       15.9994           0
     39710 TIP3     5131     TIP3     H1       HT       0.417000       1.00800           0
     39711 TIP3     5131     TIP3     H2       HT       0.417000       1.00800           0
     39712 TIP3     5132     TIP3     OH2      OT      -0.834000       15.9994           0
     39713 TIP3     5132     TIP3     H1       HT       0.417000       1.00800           0
     39714 TIP3     5132     TIP3     H2       HT       0.417000       1.00800           0
     39715 TIP3     5133     TIP3     OH2      OT      -0.834000       15.9994           0
     39716 TIP3     5133     TIP3     H1       HT       0.417000       1.00800           0
     39717 TIP3     5133     TIP3     H2       HT       0.417000       1.00800           0
     39718 TIP3     5134     TIP3     OH2      OT      -0.834000       15.9994           0
     39719 TIP3     5134     TIP3     H1       HT       0.417000       1.00800           0
     39720 TIP3     5134     TIP3     H2       HT       0.417000       1.00800           0
     39721 TIP3     5135     TIP3     OH2      OT      -0.834000       15.9994           0
     39722 TIP3     5135     TIP3     H1       HT       0.417000       1.00800           0
     39723 TIP3     5135     TIP3     H2       HT       0.417000       1.00800           0
     39724 TIP3     5136     TIP3     OH2      OT      -0.834000       15.9994           0
     39725 TIP3     5136     TIP3     H1       HT       0.417000       1.00800           0
     39726 TIP3     5136     TIP3     H2       HT       0.417000       1.00800           0
     39727 TIP3     5137     TIP3     OH2      OT      -0.834000       15.9994           0
     39728 TIP3     5137     TIP3     H1       HT       0.417000       1.00800           0
     39729 TIP3     5137     TIP3     H2       HT       0.417000       1.00800           0
     39730 TIP3     5138     TIP3     OH2      OT      -0.834000       15.9994           0
     39731 TIP3     5138     TIP3     H1       HT       0.417000       1.00800           0
     39732 TIP3     5138     TIP3     H2       HT       0.417000       1.00800           0
     39733 TIP3     5139     TIP3     OH2      OT      -0.834000       15.9994           0
     39734 TIP3     5139     TIP3     H1       HT       0.417000       1.00800           0
     39735 TIP3     5139     TIP3     H2       HT       0.417000       1.00800           0
     39736 TIP3     5140     TIP3     OH2      OT      -0.834000       15.9994           0
     39737 TIP3     5140     TIP3     H1       HT       0.417000       1.00800           0
     39738 TIP3     5140     TIP3     H2       HT       0.417000       1.00800           0
     39739 TIP3     5141     TIP3     OH2      OT      -0.834000       15.9994           0
     39740 TIP3     5141     TIP3     H1       HT       0.417000       1.00800           0
     39741 TIP3     5141     TIP3     H2       HT       0.417000       1.00800           0
     39742 TIP3     5142     TIP3     OH2      OT      -0.834000       15.9994           0
     39743 TIP3     5142     TIP3     H1       HT       0.417000       1.00800           0
     39744 TIP3     5142     TIP3     H2       HT       0.417000       1.00800           0
     39745 TIP3     5143     TIP3     OH2      OT      -0.834000       15.9994           0
     39746 TIP3     5143     TIP3     H1       HT       0.417000       1.00800           0
     39747 TIP3     5143     TIP3     H2       HT       0.417000       1.00800           0
     39748 TIP3     5144     TIP3     OH2      OT      -0.834000       15.9994           0
     39749 TIP3     5144     TIP3     H1       HT       0.417000       1.00800           0
     39750 TIP3     5144     TIP3     H2       HT       0.417000       1.00800           0
     39751 TIP3     5145     TIP3     OH2      OT      -0.834000       15.9994           0
     39752 TIP3     5145     TIP3     H1       HT       0.417000       1.00800           0
     39753 TIP3     5145     TIP3     H2       HT       0.417000       1.00800           0
     39754 TIP3     5146     TIP3     OH2      OT      -0.834000       15.9994           0
     39755 TIP3     5146     TIP3     H1       HT       0.417000       1.00800           0
     39756 TIP3     5146     TIP3     H2       HT       0.417000       1.00800           0
     39757 TIP3     5147     TIP3     OH2      OT      -0.834000       15.9994           0
     39758 TIP3     5147     TIP3     H1       HT       0.417000       1.00800           0
     39759 TIP3     5147     TIP3     H2       HT       0.417000       1.00800           0
     39760 TIP3     5148     TIP3     OH2      OT      -0.834000       15.9994           0
     39761 TIP3     5148     TIP3     H1       HT       0.417000       1.00800           0
     39762 TIP3     5148     TIP3     H2       HT       0.417000       1.00800           0
     39763 TIP3     5149     TIP3     OH2      OT      -0.834000       15.9994           0
     39764 TIP3     5149     TIP3     H1       HT       0.417000       1.00800           0
     39765 TIP3     5149     TIP3     H2       HT       0.417000       1.00800           0
     39766 TIP3     5150     TIP3     OH2      OT      -0.834000       15.9994           0
     39767 TIP3     5150     TIP3     H1       HT       0.417000       1.00800           0
     39768 TIP3     5150     TIP3     H2       HT       0.417000       1.00800           0
     39769 TIP3     5151     TIP3     OH2      OT      -0.834000       15.9994           0
     39770 TIP3     5151     TIP3     H1       HT       0.417000       1.00800           0
     39771 TIP3     5151     TIP3     H2       HT       0.417000       1.00800           0
     39772 TIP3     5152     TIP3     OH2      OT      -0.834000       15.9994           0
     39773 TIP3     5152     TIP3     H1       HT       0.417000       1.00800           0
     39774 TIP3     5152     TIP3     H2       HT       0.417000       1.00800           0
     39775 TIP3     5153     TIP3     OH2      OT      -0.834000       15.9994           0
     39776 TIP3     5153     TIP3     H1       HT       0.417000       1.00800           0
     39777 TIP3     5153     TIP3     H2       HT       0.417000       1.00800           0
     39778 TIP3     5154     TIP3     OH2      OT      -0.834000       15.9994           0
     39779 TIP3     5154     TIP3     H1       HT       0.417000       1.00800           0
     39780 TIP3     5154     TIP3     H2       HT       0.417000       1.00800           0
     39781 TIP3     5155     TIP3     OH2      OT      -0.834000       15.9994           0
     39782 TIP3     5155     TIP3     H1       HT       0.417000       1.00800           0
     39783 TIP3     5155     TIP3     H2       HT       0.417000       1.00800           0
     39784 TIP3     5156     TIP3     OH2      OT      -0.834000       15.9994           0
     39785 TIP3     5156     TIP3     H1       HT       0.417000       1.00800           0
     39786 TIP3     5156     TIP3     H2       HT       0.417000       1.00800           0
     39787 TIP3     5157     TIP3     OH2      OT      -0.834000       15.9994           0
     39788 TIP3     5157     TIP3     H1       HT       0.417000       1.00800           0
     39789 TIP3     5157     TIP3     H2       HT       0.417000       1.00800           0
     39790 TIP3     5158     TIP3     OH2      OT      -0.834000       15.9994           0
     39791 TIP3     5158     TIP3     H1       HT       0.417000       1.00800           0
     39792 TIP3     5158     TIP3     H2       HT       0.417000       1.00800           0
     39793 TIP3     5159     TIP3     OH2      OT      -0.834000       15.9994           0
     39794 TIP3     5159     TIP3     H1       HT       0.417000       1.00800           0
     39795 TIP3     5159     TIP3     H2       HT       0.417000       1.00800           0
     39796 TIP3     5160     TIP3     OH2      OT      -0.834000       15.9994           0
     39797 TIP3     5160     TIP3     H1       HT       0.417000       1.00800           0
     39798 TIP3     5160     TIP3     H2       HT       0.417000       1.00800           0
     39799 TIP3     5161     TIP3     OH2      OT      -0.834000       15.9994           0
     39800 TIP3     5161     TIP3     H1       HT       0.417000       1.00800           0
     39801 TIP3     5161     TIP3     H2       HT       0.417000       1.00800           0
     39802 TIP3     5162     TIP3     OH2      OT      -0.834000       15.9994           0
     39803 TIP3     5162     TIP3     H1       HT       0.417000       1.00800           0
     39804 TIP3     5162     TIP3     H2       HT       0.417000       1.00800           0
     39805 TIP3     5163     TIP3     OH2      OT      -0.834000       15.9994           0
     39806 TIP3     5163     TIP3     H1       HT       0.417000       1.00800           0
     39807 TIP3     5163     TIP3     H2       HT       0.417000       1.00800           0
     39808 TIP3     5164     TIP3     OH2      OT      -0.834000       15.9994           0
     39809 TIP3     5164     TIP3     H1       HT       0.417000       1.00800           0
     39810 TIP3     5164     TIP3     H2       HT       0.417000       1.00800           0
     39811 TIP3     5165     TIP3     OH2      OT      -0.834000       15.9994           0
     39812 TIP3     5165     TIP3     H1       HT       0.417000       1.00800           0
     39813 TIP3     5165     TIP3     H2       HT       0.417000       1.00800           0
     39814 TIP3     5166     TIP3     OH2      OT      -0.834000       15.9994           0
     39815 TIP3     5166     TIP3     H1       HT       0.417000       1.00800           0
     39816 TIP3     5166     TIP3     H2       HT       0.417000       1.00800           0
     39817 TIP3     5167     TIP3     OH2      OT      -0.834000       15.9994           0
     39818 TIP3     5167     TIP3     H1       HT       0.417000       1.00800           0
     39819 TIP3     5167     TIP3     H2       HT       0.417000       1.00800           0
     39820 TIP3     5168     TIP3     OH2      OT      -0.834000       15.9994           0
     39821 TIP3     5168     TIP3     H1       HT       0.417000       1.00800           0
     39822 TIP3     5168     TIP3     H2       HT       0.417000       1.00800           0
     39823 TIP3     5169     TIP3     OH2      OT      -0.834000       15.9994           0
     39824 TIP3     5169     TIP3     H1       HT       0.417000       1.00800           0
     39825 TIP3     5169     TIP3     H2       HT       0.417000       1.00800           0
     39826 TIP3     5170     TIP3     OH2      OT      -0.834000       15.9994           0
     39827 TIP3     5170     TIP3     H1       HT       0.417000       1.00800           0
     39828 TIP3     5170     TIP3     H2       HT       0.417000       1.00800           0
     39829 TIP3     5171     TIP3     OH2      OT      -0.834000       15.9994           0
     39830 TIP3     5171     TIP3     H1       HT       0.417000       1.00800           0
     39831 TIP3     5171     TIP3     H2       HT       0.417000       1.00800           0
     39832 TIP3     5172     TIP3     OH2      OT      -0.834000       15.9994           0
     39833 TIP3     5172     TIP3     H1       HT       0.417000       1.00800           0
     39834 TIP3     5172     TIP3     H2       HT       0.417000       1.00800           0
     39835 TIP3     5173     TIP3     OH2      OT      -0.834000       15.9994           0
     39836 TIP3     5173     TIP3     H1       HT       0.417000       1.00800           0
     39837 TIP3     5173     TIP3     H2       HT       0.417000       1.00800           0
     39838 TIP3     5174     TIP3     OH2      OT      -0.834000       15.9994           0
     39839 TIP3     5174     TIP3     H1       HT       0.417000       1.00800           0
     39840 TIP3     5174     TIP3     H2       HT       0.417000       1.00800           0
     39841 TIP3     5175     TIP3     OH2      OT      -0.834000       15.9994           0
     39842 TIP3     5175     TIP3     H1       HT       0.417000       1.00800           0
     39843 TIP3     5175     TIP3     H2       HT       0.417000       1.00800           0
     39844 TIP3     5176     TIP3     OH2      OT      -0.834000       15.9994           0
     39845 TIP3     5176     TIP3     H1       HT       0.417000       1.00800           0
     39846 TIP3     5176     TIP3     H2       HT       0.417000       1.00800           0
     39847 TIP3     5177     TIP3     OH2      OT      -0.834000       15.9994           0
     39848 TIP3     5177     TIP3     H1       HT       0.417000       1.00800           0
     39849 TIP3     5177     TIP3     H2       HT       0.417000       1.00800           0
     39850 TIP3     5178     TIP3     OH2      OT      -0.834000       15.9994           0
     39851 TIP3     5178     TIP3     H1       HT       0.417000       1.00800           0
     39852 TIP3     5178     TIP3     H2       HT       0.417000       1.00800           0
     39853 TIP3     5179     TIP3     OH2      OT      -0.834000       15.9994           0
     39854 TIP3     5179     TIP3     H1       HT       0.417000       1.00800           0
     39855 TIP3     5179     TIP3     H2       HT       0.417000       1.00800           0
     39856 TIP3     5180     TIP3     OH2      OT      -0.834000       15.9994           0
     39857 TIP3     5180     TIP3     H1       HT       0.417000       1.00800           0
     39858 TIP3     5180     TIP3     H2       HT       0.417000       1.00800           0
     39859 TIP3     5181     TIP3     OH2      OT      -0.834000       15.9994           0
     39860 TIP3     5181     TIP3     H1       HT       0.417000       1.00800           0
     39861 TIP3     5181     TIP3     H2       HT       0.417000       1.00800           0
     39862 TIP3     5182     TIP3     OH2      OT      -0.834000       15.9994           0
     39863 TIP3     5182     TIP3     H1       HT       0.417000       1.00800           0
     39864 TIP3     5182     TIP3     H2       HT       0.417000       1.00800           0
     39865 TIP3     5183     TIP3     OH2      OT      -0.834000       15.9994           0
     39866 TIP3     5183     TIP3     H1       HT       0.417000       1.00800           0
     39867 TIP3     5183     TIP3     H2       HT       0.417000       1.00800           0
     39868 TIP3     5184     TIP3     OH2      OT      -0.834000       15.9994           0
     39869 TIP3     5184     TIP3     H1       HT       0.417000       1.00800           0
     39870 TIP3     5184     TIP3     H2       HT       0.417000       1.00800           0
     39871 TIP3     5185     TIP3     OH2      OT      -0.834000       15.9994           0
     39872 TIP3     5185     TIP3     H1       HT       0.417000       1.00800           0
     39873 TIP3     5185     TIP3     H2       HT       0.417000       1.00800           0
     39874 TIP3     5186     TIP3     OH2      OT      -0.834000       15.9994           0
     39875 TIP3     5186     TIP3     H1       HT       0.417000       1.00800           0
     39876 TIP3     5186     TIP3     H2       HT       0.417000       1.00800           0
     39877 TIP3     5187     TIP3     OH2      OT      -0.834000       15.9994           0
     39878 TIP3     5187     TIP3     H1       HT       0.417000       1.00800           0
     39879 TIP3     5187     TIP3     H2       HT       0.417000       1.00800           0
     39880 TIP3     5188     TIP3     OH2      OT      -0.834000       15.9994           0
     39881 TIP3     5188     TIP3     H1       HT       0.417000       1.00800           0
     39882 TIP3     5188     TIP3     H2       HT       0.417000       1.00800           0
     39883 TIP3     5189     TIP3     OH2      OT      -0.834000       15.9994           0
     39884 TIP3     5189     TIP3     H1       HT       0.417000       1.00800           0
     39885 TIP3     5189     TIP3     H2       HT       0.417000       1.00800           0
     39886 TIP3     5190     TIP3     OH2      OT      -0.834000       15.9994           0
     39887 TIP3     5190     TIP3     H1       HT       0.417000       1.00800           0
     39888 TIP3     5190     TIP3     H2       HT       0.417000       1.00800           0
     39889 TIP3     5191     TIP3     OH2      OT      -0.834000       15.9994           0
     39890 TIP3     5191     TIP3     H1       HT       0.417000       1.00800           0
     39891 TIP3     5191     TIP3     H2       HT       0.417000       1.00800           0
     39892 TIP3     5192     TIP3     OH2      OT      -0.834000       15.9994           0
     39893 TIP3     5192     TIP3     H1       HT       0.417000       1.00800           0
     39894 TIP3     5192     TIP3     H2       HT       0.417000       1.00800           0
     39895 TIP3     5193     TIP3     OH2      OT      -0.834000       15.9994           0
     39896 TIP3     5193     TIP3     H1       HT       0.417000       1.00800           0
     39897 TIP3     5193     TIP3     H2       HT       0.417000       1.00800           0
     39898 TIP3     5194     TIP3     OH2      OT      -0.834000       15.9994           0
     39899 TIP3     5194     TIP3     H1       HT       0.417000       1.00800           0
     39900 TIP3     5194     TIP3     H2       HT       0.417000       1.00800           0
     39901 TIP3     5195     TIP3     OH2      OT      -0.834000       15.9994           0
     39902 TIP3     5195     TIP3     H1       HT       0.417000       1.00800           0
     39903 TIP3     5195     TIP3     H2       HT       0.417000       1.00800           0
     39904 TIP3     5196     TIP3     OH2      OT      -0.834000       15.9994           0
     39905 TIP3     5196     TIP3     H1       HT       0.417000       1.00800           0
     39906 TIP3     5196     TIP3     H2       HT       0.417000       1.00800           0
     39907 TIP3     5197     TIP3     OH2      OT      -0.834000       15.9994           0
     39908 TIP3     5197     TIP3     H1       HT       0.417000       1.00800           0
     39909 TIP3     5197     TIP3     H2       HT       0.417000       1.00800           0
     39910 TIP3     5198     TIP3     OH2      OT      -0.834000       15.9994           0
     39911 TIP3     5198     TIP3     H1       HT       0.417000       1.00800           0
     39912 TIP3     5198     TIP3     H2       HT       0.417000       1.00800           0
     39913 TIP3     5199     TIP3     OH2      OT      -0.834000       15.9994           0
     39914 TIP3     5199     TIP3     H1       HT       0.417000       1.00800           0
     39915 TIP3     5199     TIP3     H2       HT       0.417000       1.00800           0
     39916 TIP3     5200     TIP3     OH2      OT      -0.834000       15.9994           0
     39917 TIP3     5200     TIP3     H1       HT       0.417000       1.00800           0
     39918 TIP3     5200     TIP3     H2       HT       0.417000       1.00800           0
     39919 TIP3     5201     TIP3     OH2      OT      -0.834000       15.9994           0
     39920 TIP3     5201     TIP3     H1       HT       0.417000       1.00800           0
     39921 TIP3     5201     TIP3     H2       HT       0.417000       1.00800           0
     39922 TIP3     5202     TIP3     OH2      OT      -0.834000       15.9994           0
     39923 TIP3     5202     TIP3     H1       HT       0.417000       1.00800           0
     39924 TIP3     5202     TIP3     H2       HT       0.417000       1.00800           0
     39925 TIP3     5203     TIP3     OH2      OT      -0.834000       15.9994           0
     39926 TIP3     5203     TIP3     H1       HT       0.417000       1.00800           0
     39927 TIP3     5203     TIP3     H2       HT       0.417000       1.00800           0
     39928 TIP3     5204     TIP3     OH2      OT      -0.834000       15.9994           0
     39929 TIP3     5204     TIP3     H1       HT       0.417000       1.00800           0
     39930 TIP3     5204     TIP3     H2       HT       0.417000       1.00800           0
     39931 TIP3     5205     TIP3     OH2      OT      -0.834000       15.9994           0
     39932 TIP3     5205     TIP3     H1       HT       0.417000       1.00800           0
     39933 TIP3     5205     TIP3     H2       HT       0.417000       1.00800           0
     39934 TIP3     5206     TIP3     OH2      OT      -0.834000       15.9994           0
     39935 TIP3     5206     TIP3     H1       HT       0.417000       1.00800           0
     39936 TIP3     5206     TIP3     H2       HT       0.417000       1.00800           0
     39937 TIP3     5207     TIP3     OH2      OT      -0.834000       15.9994           0
     39938 TIP3     5207     TIP3     H1       HT       0.417000       1.00800           0
     39939 TIP3     5207     TIP3     H2       HT       0.417000       1.00800           0
     39940 TIP3     5208     TIP3     OH2      OT      -0.834000       15.9994           0
     39941 TIP3     5208     TIP3     H1       HT       0.417000       1.00800           0
     39942 TIP3     5208     TIP3     H2       HT       0.417000       1.00800           0
     39943 TIP3     5209     TIP3     OH2      OT      -0.834000       15.9994           0
     39944 TIP3     5209     TIP3     H1       HT       0.417000       1.00800           0
     39945 TIP3     5209     TIP3     H2       HT       0.417000       1.00800           0
     39946 TIP3     5210     TIP3     OH2      OT      -0.834000       15.9994           0
     39947 TIP3     5210     TIP3     H1       HT       0.417000       1.00800           0
     39948 TIP3     5210     TIP3     H2       HT       0.417000       1.00800           0
     39949 TIP3     5211     TIP3     OH2      OT      -0.834000       15.9994           0
     39950 TIP3     5211     TIP3     H1       HT       0.417000       1.00800           0
     39951 TIP3     5211     TIP3     H2       HT       0.417000       1.00800           0
     39952 TIP3     5212     TIP3     OH2      OT      -0.834000       15.9994           0
     39953 TIP3     5212     TIP3     H1       HT       0.417000       1.00800           0
     39954 TIP3     5212     TIP3     H2       HT       0.417000       1.00800           0
     39955 TIP3     5213     TIP3     OH2      OT      -0.834000       15.9994           0
     39956 TIP3     5213     TIP3     H1       HT       0.417000       1.00800           0
     39957 TIP3     5213     TIP3     H2       HT       0.417000       1.00800           0
     39958 TIP3     5214     TIP3     OH2      OT      -0.834000       15.9994           0
     39959 TIP3     5214     TIP3     H1       HT       0.417000       1.00800           0
     39960 TIP3     5214     TIP3     H2       HT       0.417000       1.00800           0
     39961 TIP3     5215     TIP3     OH2      OT      -0.834000       15.9994           0
     39962 TIP3     5215     TIP3     H1       HT       0.417000       1.00800           0
     39963 TIP3     5215     TIP3     H2       HT       0.417000       1.00800           0
     39964 TIP3     5216     TIP3     OH2      OT      -0.834000       15.9994           0
     39965 TIP3     5216     TIP3     H1       HT       0.417000       1.00800           0
     39966 TIP3     5216     TIP3     H2       HT       0.417000       1.00800           0
     39967 TIP3     5217     TIP3     OH2      OT      -0.834000       15.9994           0
     39968 TIP3     5217     TIP3     H1       HT       0.417000       1.00800           0
     39969 TIP3     5217     TIP3     H2       HT       0.417000       1.00800           0
     39970 TIP3     5218     TIP3     OH2      OT      -0.834000       15.9994           0
     39971 TIP3     5218     TIP3     H1       HT       0.417000       1.00800           0
     39972 TIP3     5218     TIP3     H2       HT       0.417000       1.00800           0
     39973 TIP3     5219     TIP3     OH2      OT      -0.834000       15.9994           0
     39974 TIP3     5219     TIP3     H1       HT       0.417000       1.00800           0
     39975 TIP3     5219     TIP3     H2       HT       0.417000       1.00800           0
     39976 TIP3     5220     TIP3     OH2      OT      -0.834000       15.9994           0
     39977 TIP3     5220     TIP3     H1       HT       0.417000       1.00800           0
     39978 TIP3     5220     TIP3     H2       HT       0.417000       1.00800           0
     39979 TIP3     5221     TIP3     OH2      OT      -0.834000       15.9994           0
     39980 TIP3     5221     TIP3     H1       HT       0.417000       1.00800           0
     39981 TIP3     5221     TIP3     H2       HT       0.417000       1.00800           0
     39982 TIP3     5222     TIP3     OH2      OT      -0.834000       15.9994           0
     39983 TIP3     5222     TIP3     H1       HT       0.417000       1.00800           0
     39984 TIP3     5222     TIP3     H2       HT       0.417000       1.00800           0
     39985 TIP3     5223     TIP3     OH2      OT      -0.834000       15.9994           0
     39986 TIP3     5223     TIP3     H1       HT       0.417000       1.00800           0
     39987 TIP3     5223     TIP3     H2       HT       0.417000       1.00800           0
     39988 TIP3     5224     TIP3     OH2      OT      -0.834000       15.9994           0
     39989 TIP3     5224     TIP3     H1       HT       0.417000       1.00800           0
     39990 TIP3     5224     TIP3     H2       HT       0.417000       1.00800           0
     39991 TIP3     5225     TIP3     OH2      OT      -0.834000       15.9994           0
     39992 TIP3     5225     TIP3     H1       HT       0.417000       1.00800           0
     39993 TIP3     5225     TIP3     H2       HT       0.417000       1.00800           0
     39994 TIP3     5226     TIP3     OH2      OT      -0.834000       15.9994           0
     39995 TIP3     5226     TIP3     H1       HT       0.417000       1.00800           0
     39996 TIP3     5226     TIP3     H2       HT       0.417000       1.00800           0
     39997 TIP3     5227     TIP3     OH2      OT      -0.834000       15.9994           0
     39998 TIP3     5227     TIP3     H1       HT       0.417000       1.00800           0
     39999 TIP3     5227     TIP3     H2       HT       0.417000       1.00800           0
     40000 TIP3     5228     TIP3     OH2      OT      -0.834000       15.9994           0
     40001 TIP3     5228     TIP3     H1       HT       0.417000       1.00800           0
     40002 TIP3     5228     TIP3     H2       HT       0.417000       1.00800           0
     40003 TIP3     5229     TIP3     OH2      OT      -0.834000       15.9994           0
     40004 TIP3     5229     TIP3     H1       HT       0.417000       1.00800           0
     40005 TIP3     5229     TIP3     H2       HT       0.417000       1.00800           0
     40006 TIP3     5230     TIP3     OH2      OT      -0.834000       15.9994           0
     40007 TIP3     5230     TIP3     H1       HT       0.417000       1.00800           0
     40008 TIP3     5230     TIP3     H2       HT       0.417000       1.00800           0
     40009 TIP3     5231     TIP3     OH2      OT      -0.834000       15.9994           0
     40010 TIP3     5231     TIP3     H1       HT       0.417000       1.00800           0
     40011 TIP3     5231     TIP3     H2       HT       0.417000       1.00800           0
     40012 TIP3     5232     TIP3     OH2      OT      -0.834000       15.9994           0
     40013 TIP3     5232     TIP3     H1       HT       0.417000       1.00800           0
     40014 TIP3     5232     TIP3     H2       HT       0.417000       1.00800           0
     40015 TIP3     5233     TIP3     OH2      OT      -0.834000       15.9994           0
     40016 TIP3     5233     TIP3     H1       HT       0.417000       1.00800           0
     40017 TIP3     5233     TIP3     H2       HT       0.417000       1.00800           0
     40018 TIP3     5234     TIP3     OH2      OT      -0.834000       15.9994           0
     40019 TIP3     5234     TIP3     H1       HT       0.417000       1.00800           0
     40020 TIP3     5234     TIP3     H2       HT       0.417000       1.00800           0
     40021 TIP3     5235     TIP3     OH2      OT      -0.834000       15.9994           0
     40022 TIP3     5235     TIP3     H1       HT       0.417000       1.00800           0
     40023 TIP3     5235     TIP3     H2       HT       0.417000       1.00800           0
     40024 TIP3     5236     TIP3     OH2      OT      -0.834000       15.9994           0
     40025 TIP3     5236     TIP3     H1       HT       0.417000       1.00800           0
     40026 TIP3     5236     TIP3     H2       HT       0.417000       1.00800           0
     40027 TIP3     5237     TIP3     OH2      OT      -0.834000       15.9994           0
     40028 TIP3     5237     TIP3     H1       HT       0.417000       1.00800           0
     40029 TIP3     5237     TIP3     H2       HT       0.417000       1.00800           0
     40030 TIP3     5238     TIP3     OH2      OT      -0.834000       15.9994           0
     40031 TIP3     5238     TIP3     H1       HT       0.417000       1.00800           0
     40032 TIP3     5238     TIP3     H2       HT       0.417000       1.00800           0
     40033 TIP3     5239     TIP3     OH2      OT      -0.834000       15.9994           0
     40034 TIP3     5239     TIP3     H1       HT       0.417000       1.00800           0
     40035 TIP3     5239     TIP3     H2       HT       0.417000       1.00800           0
     40036 TIP3     5240     TIP3     OH2      OT      -0.834000       15.9994           0
     40037 TIP3     5240     TIP3     H1       HT       0.417000       1.00800           0
     40038 TIP3     5240     TIP3     H2       HT       0.417000       1.00800           0
     40039 TIP3     5241     TIP3     OH2      OT      -0.834000       15.9994           0
     40040 TIP3     5241     TIP3     H1       HT       0.417000       1.00800           0
     40041 TIP3     5241     TIP3     H2       HT       0.417000       1.00800           0
     40042 TIP3     5242     TIP3     OH2      OT      -0.834000       15.9994           0
     40043 TIP3     5242     TIP3     H1       HT       0.417000       1.00800           0
     40044 TIP3     5242     TIP3     H2       HT       0.417000       1.00800           0
     40045 TIP3     5243     TIP3     OH2      OT      -0.834000       15.9994           0
     40046 TIP3     5243     TIP3     H1       HT       0.417000       1.00800           0
     40047 TIP3     5243     TIP3     H2       HT       0.417000       1.00800           0
     40048 TIP3     5244     TIP3     OH2      OT      -0.834000       15.9994           0
     40049 TIP3     5244     TIP3     H1       HT       0.417000       1.00800           0
     40050 TIP3     5244     TIP3     H2       HT       0.417000       1.00800           0
     40051 TIP3     5245     TIP3     OH2      OT      -0.834000       15.9994           0
     40052 TIP3     5245     TIP3     H1       HT       0.417000       1.00800           0
     40053 TIP3     5245     TIP3     H2       HT       0.417000       1.00800           0
     40054 TIP3     5246     TIP3     OH2      OT      -0.834000       15.9994           0
     40055 TIP3     5246     TIP3     H1       HT       0.417000       1.00800           0
     40056 TIP3     5246     TIP3     H2       HT       0.417000       1.00800           0
     40057 TIP3     5247     TIP3     OH2      OT      -0.834000       15.9994           0
     40058 TIP3     5247     TIP3     H1       HT       0.417000       1.00800           0
     40059 TIP3     5247     TIP3     H2       HT       0.417000       1.00800           0
     40060 TIP3     5248     TIP3     OH2      OT      -0.834000       15.9994           0
     40061 TIP3     5248     TIP3     H1       HT       0.417000       1.00800           0
     40062 TIP3     5248     TIP3     H2       HT       0.417000       1.00800           0
     40063 TIP3     5249     TIP3     OH2      OT      -0.834000       15.9994           0
     40064 TIP3     5249     TIP3     H1       HT       0.417000       1.00800           0
     40065 TIP3     5249     TIP3     H2       HT       0.417000       1.00800           0
     40066 TIP3     5250     TIP3     OH2      OT      -0.834000       15.9994           0
     40067 TIP3     5250     TIP3     H1       HT       0.417000       1.00800           0
     40068 TIP3     5250     TIP3     H2       HT       0.417000       1.00800           0
     40069 TIP3     5251     TIP3     OH2      OT      -0.834000       15.9994           0
     40070 TIP3     5251     TIP3     H1       HT       0.417000       1.00800           0
     40071 TIP3     5251     TIP3     H2       HT       0.417000       1.00800           0
     40072 TIP3     5252     TIP3     OH2      OT      -0.834000       15.9994           0
     40073 TIP3     5252     TIP3     H1       HT       0.417000       1.00800           0
     40074 TIP3     5252     TIP3     H2       HT       0.417000       1.00800           0
     40075 TIP3     5253     TIP3     OH2      OT      -0.834000       15.9994           0
     40076 TIP3     5253     TIP3     H1       HT       0.417000       1.00800           0
     40077 TIP3     5253     TIP3     H2       HT       0.417000       1.00800           0
     40078 TIP3     5254     TIP3     OH2      OT      -0.834000       15.9994           0
     40079 TIP3     5254     TIP3     H1       HT       0.417000       1.00800           0
     40080 TIP3     5254     TIP3     H2       HT       0.417000       1.00800           0
     40081 TIP3     5255     TIP3     OH2      OT      -0.834000       15.9994           0
     40082 TIP3     5255     TIP3     H1       HT       0.417000       1.00800           0
     40083 TIP3     5255     TIP3     H2       HT       0.417000       1.00800           0
     40084 TIP3     5256     TIP3     OH2      OT      -0.834000       15.9994           0
     40085 TIP3     5256     TIP3     H1       HT       0.417000       1.00800           0
     40086 TIP3     5256     TIP3     H2       HT       0.417000       1.00800           0
     40087 TIP3     5257     TIP3     OH2      OT      -0.834000       15.9994           0
     40088 TIP3     5257     TIP3     H1       HT       0.417000       1.00800           0
     40089 TIP3     5257     TIP3     H2       HT       0.417000       1.00800           0
     40090 TIP3     5258     TIP3     OH2      OT      -0.834000       15.9994           0
     40091 TIP3     5258     TIP3     H1       HT       0.417000       1.00800           0
     40092 TIP3     5258     TIP3     H2       HT       0.417000       1.00800           0
     40093 TIP3     5259     TIP3     OH2      OT      -0.834000       15.9994           0
     40094 TIP3     5259     TIP3     H1       HT       0.417000       1.00800           0
     40095 TIP3     5259     TIP3     H2       HT       0.417000       1.00800           0
     40096 TIP3     5260     TIP3     OH2      OT      -0.834000       15.9994           0
     40097 TIP3     5260     TIP3     H1       HT       0.417000       1.00800           0
     40098 TIP3     5260     TIP3     H2       HT       0.417000       1.00800           0
     40099 TIP3     5261     TIP3     OH2      OT      -0.834000       15.9994           0
     40100 TIP3     5261     TIP3     H1       HT       0.417000       1.00800           0
     40101 TIP3     5261     TIP3     H2       HT       0.417000       1.00800           0
     40102 TIP3     5262     TIP3     OH2      OT      -0.834000       15.9994           0
     40103 TIP3     5262     TIP3     H1       HT       0.417000       1.00800           0
     40104 TIP3     5262     TIP3     H2       HT       0.417000       1.00800           0
     40105 TIP3     5263     TIP3     OH2      OT      -0.834000       15.9994           0
     40106 TIP3     5263     TIP3     H1       HT       0.417000       1.00800           0
     40107 TIP3     5263     TIP3     H2       HT       0.417000       1.00800           0
     40108 TIP3     5264     TIP3     OH2      OT      -0.834000       15.9994           0
     40109 TIP3     5264     TIP3     H1       HT       0.417000       1.00800           0
     40110 TIP3     5264     TIP3     H2       HT       0.417000       1.00800           0
     40111 TIP3     5265     TIP3     OH2      OT      -0.834000       15.9994           0
     40112 TIP3     5265     TIP3     H1       HT       0.417000       1.00800           0
     40113 TIP3     5265     TIP3     H2       HT       0.417000       1.00800           0
     40114 TIP3     5266     TIP3     OH2      OT      -0.834000       15.9994           0
     40115 TIP3     5266     TIP3     H1       HT       0.417000       1.00800           0
     40116 TIP3     5266     TIP3     H2       HT       0.417000       1.00800           0
     40117 TIP3     5267     TIP3     OH2      OT      -0.834000       15.9994           0
     40118 TIP3     5267     TIP3     H1       HT       0.417000       1.00800           0
     40119 TIP3     5267     TIP3     H2       HT       0.417000       1.00800           0
     40120 TIP3     5268     TIP3     OH2      OT      -0.834000       15.9994           0
     40121 TIP3     5268     TIP3     H1       HT       0.417000       1.00800           0
     40122 TIP3     5268     TIP3     H2       HT       0.417000       1.00800           0
     40123 TIP3     5269     TIP3     OH2      OT      -0.834000       15.9994           0
     40124 TIP3     5269     TIP3     H1       HT       0.417000       1.00800           0
     40125 TIP3     5269     TIP3     H2       HT       0.417000       1.00800           0
     40126 TIP3     5270     TIP3     OH2      OT      -0.834000       15.9994           0
     40127 TIP3     5270     TIP3     H1       HT       0.417000       1.00800           0
     40128 TIP3     5270     TIP3     H2       HT       0.417000       1.00800           0
     40129 TIP3     5271     TIP3     OH2      OT      -0.834000       15.9994           0
     40130 TIP3     5271     TIP3     H1       HT       0.417000       1.00800           0
     40131 TIP3     5271     TIP3     H2       HT       0.417000       1.00800           0
     40132 TIP3     5272     TIP3     OH2      OT      -0.834000       15.9994           0
     40133 TIP3     5272     TIP3     H1       HT       0.417000       1.00800           0
     40134 TIP3     5272     TIP3     H2       HT       0.417000       1.00800           0
     40135 TIP3     5273     TIP3     OH2      OT      -0.834000       15.9994           0
     40136 TIP3     5273     TIP3     H1       HT       0.417000       1.00800           0
     40137 TIP3     5273     TIP3     H2       HT       0.417000       1.00800           0
     40138 TIP3     5274     TIP3     OH2      OT      -0.834000       15.9994           0
     40139 TIP3     5274     TIP3     H1       HT       0.417000       1.00800           0
     40140 TIP3     5274     TIP3     H2       HT       0.417000       1.00800           0
     40141 TIP3     5275     TIP3     OH2      OT      -0.834000       15.9994           0
     40142 TIP3     5275     TIP3     H1       HT       0.417000       1.00800           0
     40143 TIP3     5275     TIP3     H2       HT       0.417000       1.00800           0
     40144 TIP3     5276     TIP3     OH2      OT      -0.834000       15.9994           0
     40145 TIP3     5276     TIP3     H1       HT       0.417000       1.00800           0
     40146 TIP3     5276     TIP3     H2       HT       0.417000       1.00800           0
     40147 TIP3     5277     TIP3     OH2      OT      -0.834000       15.9994           0
     40148 TIP3     5277     TIP3     H1       HT       0.417000       1.00800           0
     40149 TIP3     5277     TIP3     H2       HT       0.417000       1.00800           0
     40150 TIP3     5278     TIP3     OH2      OT      -0.834000       15.9994           0
     40151 TIP3     5278     TIP3     H1       HT       0.417000       1.00800           0
     40152 TIP3     5278     TIP3     H2       HT       0.417000       1.00800           0
     40153 TIP3     5279     TIP3     OH2      OT      -0.834000       15.9994           0
     40154 TIP3     5279     TIP3     H1       HT       0.417000       1.00800           0
     40155 TIP3     5279     TIP3     H2       HT       0.417000       1.00800           0
     40156 TIP3     5280     TIP3     OH2      OT      -0.834000       15.9994           0
     40157 TIP3     5280     TIP3     H1       HT       0.417000       1.00800           0
     40158 TIP3     5280     TIP3     H2       HT       0.417000       1.00800           0
     40159 TIP3     5281     TIP3     OH2      OT      -0.834000       15.9994           0
     40160 TIP3     5281     TIP3     H1       HT       0.417000       1.00800           0
     40161 TIP3     5281     TIP3     H2       HT       0.417000       1.00800           0
     40162 TIP3     5282     TIP3     OH2      OT      -0.834000       15.9994           0
     40163 TIP3     5282     TIP3     H1       HT       0.417000       1.00800           0
     40164 TIP3     5282     TIP3     H2       HT       0.417000       1.00800           0
     40165 TIP3     5283     TIP3     OH2      OT      -0.834000       15.9994           0
     40166 TIP3     5283     TIP3     H1       HT       0.417000       1.00800           0
     40167 TIP3     5283     TIP3     H2       HT       0.417000       1.00800           0
     40168 TIP3     5284     TIP3     OH2      OT      -0.834000       15.9994           0
     40169 TIP3     5284     TIP3     H1       HT       0.417000       1.00800           0
     40170 TIP3     5284     TIP3     H2       HT       0.417000       1.00800           0
     40171 TIP3     5285     TIP3     OH2      OT      -0.834000       15.9994           0
     40172 TIP3     5285     TIP3     H1       HT       0.417000       1.00800           0
     40173 TIP3     5285     TIP3     H2       HT       0.417000       1.00800           0
     40174 TIP3     5286     TIP3     OH2      OT      -0.834000       15.9994           0
     40175 TIP3     5286     TIP3     H1       HT       0.417000       1.00800           0
     40176 TIP3     5286     TIP3     H2       HT       0.417000       1.00800           0
     40177 TIP3     5287     TIP3     OH2      OT      -0.834000       15.9994           0
     40178 TIP3     5287     TIP3     H1       HT       0.417000       1.00800           0
     40179 TIP3     5287     TIP3     H2       HT       0.417000       1.00800           0
     40180 TIP3     5288     TIP3     OH2      OT      -0.834000       15.9994           0
     40181 TIP3     5288     TIP3     H1       HT       0.417000       1.00800           0
     40182 TIP3     5288     TIP3     H2       HT       0.417000       1.00800           0
     40183 TIP3     5289     TIP3     OH2      OT      -0.834000       15.9994           0
     40184 TIP3     5289     TIP3     H1       HT       0.417000       1.00800           0
     40185 TIP3     5289     TIP3     H2       HT       0.417000       1.00800           0
     40186 TIP3     5290     TIP3     OH2      OT      -0.834000       15.9994           0
     40187 TIP3     5290     TIP3     H1       HT       0.417000       1.00800           0
     40188 TIP3     5290     TIP3     H2       HT       0.417000       1.00800           0
     40189 TIP3     5291     TIP3     OH2      OT      -0.834000       15.9994           0
     40190 TIP3     5291     TIP3     H1       HT       0.417000       1.00800           0
     40191 TIP3     5291     TIP3     H2       HT       0.417000       1.00800           0
     40192 TIP3     5292     TIP3     OH2      OT      -0.834000       15.9994           0
     40193 TIP3     5292     TIP3     H1       HT       0.417000       1.00800           0
     40194 TIP3     5292     TIP3     H2       HT       0.417000       1.00800           0
     40195 TIP3     5293     TIP3     OH2      OT      -0.834000       15.9994           0
     40196 TIP3     5293     TIP3     H1       HT       0.417000       1.00800           0
     40197 TIP3     5293     TIP3     H2       HT       0.417000       1.00800           0
     40198 TIP3     5294     TIP3     OH2      OT      -0.834000       15.9994           0
     40199 TIP3     5294     TIP3     H1       HT       0.417000       1.00800           0
     40200 TIP3     5294     TIP3     H2       HT       0.417000       1.00800           0
     40201 TIP3     5295     TIP3     OH2      OT      -0.834000       15.9994           0
     40202 TIP3     5295     TIP3     H1       HT       0.417000       1.00800           0
     40203 TIP3     5295     TIP3     H2       HT       0.417000       1.00800           0
     40204 TIP3     5296     TIP3     OH2      OT      -0.834000       15.9994           0
     40205 TIP3     5296     TIP3     H1       HT       0.417000       1.00800           0
     40206 TIP3     5296     TIP3     H2       HT       0.417000       1.00800           0
     40207 TIP3     5297     TIP3     OH2      OT      -0.834000       15.9994           0
     40208 TIP3     5297     TIP3     H1       HT       0.417000       1.00800           0
     40209 TIP3     5297     TIP3     H2       HT       0.417000       1.00800           0
     40210 TIP3     5298     TIP3     OH2      OT      -0.834000       15.9994           0
     40211 TIP3     5298     TIP3     H1       HT       0.417000       1.00800           0
     40212 TIP3     5298     TIP3     H2       HT       0.417000       1.00800           0
     40213 TIP3     5299     TIP3     OH2      OT      -0.834000       15.9994           0
     40214 TIP3     5299     TIP3     H1       HT       0.417000       1.00800           0
     40215 TIP3     5299     TIP3     H2       HT       0.417000       1.00800           0
     40216 TIP3     5300     TIP3     OH2      OT      -0.834000       15.9994           0
     40217 TIP3     5300     TIP3     H1       HT       0.417000       1.00800           0
     40218 TIP3     5300     TIP3     H2       HT       0.417000       1.00800           0
     40219 TIP3     5301     TIP3     OH2      OT      -0.834000       15.9994           0
     40220 TIP3     5301     TIP3     H1       HT       0.417000       1.00800           0
     40221 TIP3     5301     TIP3     H2       HT       0.417000       1.00800           0
     40222 TIP3     5302     TIP3     OH2      OT      -0.834000       15.9994           0
     40223 TIP3     5302     TIP3     H1       HT       0.417000       1.00800           0
     40224 TIP3     5302     TIP3     H2       HT       0.417000       1.00800           0
     40225 TIP3     5303     TIP3     OH2      OT      -0.834000       15.9994           0
     40226 TIP3     5303     TIP3     H1       HT       0.417000       1.00800           0
     40227 TIP3     5303     TIP3     H2       HT       0.417000       1.00800           0
     40228 TIP3     5304     TIP3     OH2      OT      -0.834000       15.9994           0
     40229 TIP3     5304     TIP3     H1       HT       0.417000       1.00800           0
     40230 TIP3     5304     TIP3     H2       HT       0.417000       1.00800           0
     40231 TIP3     5305     TIP3     OH2      OT      -0.834000       15.9994           0
     40232 TIP3     5305     TIP3     H1       HT       0.417000       1.00800           0
     40233 TIP3     5305     TIP3     H2       HT       0.417000       1.00800           0
     40234 TIP3     5306     TIP3     OH2      OT      -0.834000       15.9994           0
     40235 TIP3     5306     TIP3     H1       HT       0.417000       1.00800           0
     40236 TIP3     5306     TIP3     H2       HT       0.417000       1.00800           0
     40237 TIP3     5307     TIP3     OH2      OT      -0.834000       15.9994           0
     40238 TIP3     5307     TIP3     H1       HT       0.417000       1.00800           0
     40239 TIP3     5307     TIP3     H2       HT       0.417000       1.00800           0
     40240 TIP3     5308     TIP3     OH2      OT      -0.834000       15.9994           0
     40241 TIP3     5308     TIP3     H1       HT       0.417000       1.00800           0
     40242 TIP3     5308     TIP3     H2       HT       0.417000       1.00800           0
     40243 TIP3     5309     TIP3     OH2      OT      -0.834000       15.9994           0
     40244 TIP3     5309     TIP3     H1       HT       0.417000       1.00800           0
     40245 TIP3     5309     TIP3     H2       HT       0.417000       1.00800           0
     40246 TIP3     5310     TIP3     OH2      OT      -0.834000       15.9994           0
     40247 TIP3     5310     TIP3     H1       HT       0.417000       1.00800           0
     40248 TIP3     5310     TIP3     H2       HT       0.417000       1.00800           0
     40249 TIP3     5311     TIP3     OH2      OT      -0.834000       15.9994           0
     40250 TIP3     5311     TIP3     H1       HT       0.417000       1.00800           0
     40251 TIP3     5311     TIP3     H2       HT       0.417000       1.00800           0
     40252 TIP3     5312     TIP3     OH2      OT      -0.834000       15.9994           0
     40253 TIP3     5312     TIP3     H1       HT       0.417000       1.00800           0
     40254 TIP3     5312     TIP3     H2       HT       0.417000       1.00800           0
     40255 TIP3     5313     TIP3     OH2      OT      -0.834000       15.9994           0
     40256 TIP3     5313     TIP3     H1       HT       0.417000       1.00800           0
     40257 TIP3     5313     TIP3     H2       HT       0.417000       1.00800           0
     40258 TIP3     5314     TIP3     OH2      OT      -0.834000       15.9994           0
     40259 TIP3     5314     TIP3     H1       HT       0.417000       1.00800           0
     40260 TIP3     5314     TIP3     H2       HT       0.417000       1.00800           0
     40261 TIP3     5315     TIP3     OH2      OT      -0.834000       15.9994           0
     40262 TIP3     5315     TIP3     H1       HT       0.417000       1.00800           0
     40263 TIP3     5315     TIP3     H2       HT       0.417000       1.00800           0
     40264 TIP3     5316     TIP3     OH2      OT      -0.834000       15.9994           0
     40265 TIP3     5316     TIP3     H1       HT       0.417000       1.00800           0
     40266 TIP3     5316     TIP3     H2       HT       0.417000       1.00800           0
     40267 TIP3     5317     TIP3     OH2      OT      -0.834000       15.9994           0
     40268 TIP3     5317     TIP3     H1       HT       0.417000       1.00800           0
     40269 TIP3     5317     TIP3     H2       HT       0.417000       1.00800           0
     40270 TIP3     5318     TIP3     OH2      OT      -0.834000       15.9994           0
     40271 TIP3     5318     TIP3     H1       HT       0.417000       1.00800           0
     40272 TIP3     5318     TIP3     H2       HT       0.417000       1.00800           0
     40273 TIP3     5319     TIP3     OH2      OT      -0.834000       15.9994           0
     40274 TIP3     5319     TIP3     H1       HT       0.417000       1.00800           0
     40275 TIP3     5319     TIP3     H2       HT       0.417000       1.00800           0
     40276 TIP3     5320     TIP3     OH2      OT      -0.834000       15.9994           0
     40277 TIP3     5320     TIP3     H1       HT       0.417000       1.00800           0
     40278 TIP3     5320     TIP3     H2       HT       0.417000       1.00800           0
     40279 TIP3     5321     TIP3     OH2      OT      -0.834000       15.9994           0
     40280 TIP3     5321     TIP3     H1       HT       0.417000       1.00800           0
     40281 TIP3     5321     TIP3     H2       HT       0.417000       1.00800           0
     40282 TIP3     5322     TIP3     OH2      OT      -0.834000       15.9994           0
     40283 TIP3     5322     TIP3     H1       HT       0.417000       1.00800           0
     40284 TIP3     5322     TIP3     H2       HT       0.417000       1.00800           0
     40285 TIP3     5323     TIP3     OH2      OT      -0.834000       15.9994           0
     40286 TIP3     5323     TIP3     H1       HT       0.417000       1.00800           0
     40287 TIP3     5323     TIP3     H2       HT       0.417000       1.00800           0
     40288 TIP3     5324     TIP3     OH2      OT      -0.834000       15.9994           0
     40289 TIP3     5324     TIP3     H1       HT       0.417000       1.00800           0
     40290 TIP3     5324     TIP3     H2       HT       0.417000       1.00800           0
     40291 TIP3     5325     TIP3     OH2      OT      -0.834000       15.9994           0
     40292 TIP3     5325     TIP3     H1       HT       0.417000       1.00800           0
     40293 TIP3     5325     TIP3     H2       HT       0.417000       1.00800           0
     40294 TIP3     5326     TIP3     OH2      OT      -0.834000       15.9994           0
     40295 TIP3     5326     TIP3     H1       HT       0.417000       1.00800           0
     40296 TIP3     5326     TIP3     H2       HT       0.417000       1.00800           0
     40297 TIP3     5327     TIP3     OH2      OT      -0.834000       15.9994           0
     40298 TIP3     5327     TIP3     H1       HT       0.417000       1.00800           0
     40299 TIP3     5327     TIP3     H2       HT       0.417000       1.00800           0
     40300 TIP3     5328     TIP3     OH2      OT      -0.834000       15.9994           0
     40301 TIP3     5328     TIP3     H1       HT       0.417000       1.00800           0
     40302 TIP3     5328     TIP3     H2       HT       0.417000       1.00800           0
     40303 TIP3     5329     TIP3     OH2      OT      -0.834000       15.9994           0
     40304 TIP3     5329     TIP3     H1       HT       0.417000       1.00800           0
     40305 TIP3     5329     TIP3     H2       HT       0.417000       1.00800           0
     40306 TIP3     5330     TIP3     OH2      OT      -0.834000       15.9994           0
     40307 TIP3     5330     TIP3     H1       HT       0.417000       1.00800           0
     40308 TIP3     5330     TIP3     H2       HT       0.417000       1.00800           0
     40309 TIP3     5331     TIP3     OH2      OT      -0.834000       15.9994           0
     40310 TIP3     5331     TIP3     H1       HT       0.417000       1.00800           0
     40311 TIP3     5331     TIP3     H2       HT       0.417000       1.00800           0
     40312 TIP3     5332     TIP3     OH2      OT      -0.834000       15.9994           0
     40313 TIP3     5332     TIP3     H1       HT       0.417000       1.00800           0
     40314 TIP3     5332     TIP3     H2       HT       0.417000       1.00800           0
     40315 TIP3     5333     TIP3     OH2      OT      -0.834000       15.9994           0
     40316 TIP3     5333     TIP3     H1       HT       0.417000       1.00800           0
     40317 TIP3     5333     TIP3     H2       HT       0.417000       1.00800           0
     40318 TIP3     5334     TIP3     OH2      OT      -0.834000       15.9994           0
     40319 TIP3     5334     TIP3     H1       HT       0.417000       1.00800           0
     40320 TIP3     5334     TIP3     H2       HT       0.417000       1.00800           0
     40321 TIP3     5335     TIP3     OH2      OT      -0.834000       15.9994           0
     40322 TIP3     5335     TIP3     H1       HT       0.417000       1.00800           0
     40323 TIP3     5335     TIP3     H2       HT       0.417000       1.00800           0
     40324 TIP3     5336     TIP3     OH2      OT      -0.834000       15.9994           0
     40325 TIP3     5336     TIP3     H1       HT       0.417000       1.00800           0
     40326 TIP3     5336     TIP3     H2       HT       0.417000       1.00800           0
     40327 TIP3     5337     TIP3     OH2      OT      -0.834000       15.9994           0
     40328 TIP3     5337     TIP3     H1       HT       0.417000       1.00800           0
     40329 TIP3     5337     TIP3     H2       HT       0.417000       1.00800           0
     40330 TIP3     5338     TIP3     OH2      OT      -0.834000       15.9994           0
     40331 TIP3     5338     TIP3     H1       HT       0.417000       1.00800           0
     40332 TIP3     5338     TIP3     H2       HT       0.417000       1.00800           0
     40333 TIP3     5339     TIP3     OH2      OT      -0.834000       15.9994           0
     40334 TIP3     5339     TIP3     H1       HT       0.417000       1.00800           0
     40335 TIP3     5339     TIP3     H2       HT       0.417000       1.00800           0
     40336 TIP3     5340     TIP3     OH2      OT      -0.834000       15.9994           0
     40337 TIP3     5340     TIP3     H1       HT       0.417000       1.00800           0
     40338 TIP3     5340     TIP3     H2       HT       0.417000       1.00800           0
     40339 TIP3     5341     TIP3     OH2      OT      -0.834000       15.9994           0
     40340 TIP3     5341     TIP3     H1       HT       0.417000       1.00800           0
     40341 TIP3     5341     TIP3     H2       HT       0.417000       1.00800           0
     40342 TIP3     5342     TIP3     OH2      OT      -0.834000       15.9994           0
     40343 TIP3     5342     TIP3     H1       HT       0.417000       1.00800           0
     40344 TIP3     5342     TIP3     H2       HT       0.417000       1.00800           0
     40345 TIP3     5343     TIP3     OH2      OT      -0.834000       15.9994           0
     40346 TIP3     5343     TIP3     H1       HT       0.417000       1.00800           0
     40347 TIP3     5343     TIP3     H2       HT       0.417000       1.00800           0
     40348 TIP3     5344     TIP3     OH2      OT      -0.834000       15.9994           0
     40349 TIP3     5344     TIP3     H1       HT       0.417000       1.00800           0
     40350 TIP3     5344     TIP3     H2       HT       0.417000       1.00800           0
     40351 TIP3     5345     TIP3     OH2      OT      -0.834000       15.9994           0
     40352 TIP3     5345     TIP3     H1       HT       0.417000       1.00800           0
     40353 TIP3     5345     TIP3     H2       HT       0.417000       1.00800           0
     40354 TIP3     5346     TIP3     OH2      OT      -0.834000       15.9994           0
     40355 TIP3     5346     TIP3     H1       HT       0.417000       1.00800           0
     40356 TIP3     5346     TIP3     H2       HT       0.417000       1.00800           0
     40357 TIP3     5347     TIP3     OH2      OT      -0.834000       15.9994           0
     40358 TIP3     5347     TIP3     H1       HT       0.417000       1.00800           0
     40359 TIP3     5347     TIP3     H2       HT       0.417000       1.00800           0
     40360 TIP3     5348     TIP3     OH2      OT      -0.834000       15.9994           0
     40361 TIP3     5348     TIP3     H1       HT       0.417000       1.00800           0
     40362 TIP3     5348     TIP3     H2       HT       0.417000       1.00800           0
     40363 TIP3     5349     TIP3     OH2      OT      -0.834000       15.9994           0
     40364 TIP3     5349     TIP3     H1       HT       0.417000       1.00800           0
     40365 TIP3     5349     TIP3     H2       HT       0.417000       1.00800           0
     40366 TIP3     5350     TIP3     OH2      OT      -0.834000       15.9994           0
     40367 TIP3     5350     TIP3     H1       HT       0.417000       1.00800           0
     40368 TIP3     5350     TIP3     H2       HT       0.417000       1.00800           0
     40369 TIP3     5351     TIP3     OH2      OT      -0.834000       15.9994           0
     40370 TIP3     5351     TIP3     H1       HT       0.417000       1.00800           0
     40371 TIP3     5351     TIP3     H2       HT       0.417000       1.00800           0
     40372 TIP3     5352     TIP3     OH2      OT      -0.834000       15.9994           0
     40373 TIP3     5352     TIP3     H1       HT       0.417000       1.00800           0
     40374 TIP3     5352     TIP3     H2       HT       0.417000       1.00800           0
     40375 TIP3     5353     TIP3     OH2      OT      -0.834000       15.9994           0
     40376 TIP3     5353     TIP3     H1       HT       0.417000       1.00800           0
     40377 TIP3     5353     TIP3     H2       HT       0.417000       1.00800           0
     40378 TIP3     5354     TIP3     OH2      OT      -0.834000       15.9994           0
     40379 TIP3     5354     TIP3     H1       HT       0.417000       1.00800           0
     40380 TIP3     5354     TIP3     H2       HT       0.417000       1.00800           0
     40381 TIP3     5355     TIP3     OH2      OT      -0.834000       15.9994           0
     40382 TIP3     5355     TIP3     H1       HT       0.417000       1.00800           0
     40383 TIP3     5355     TIP3     H2       HT       0.417000       1.00800           0
     40384 TIP3     5356     TIP3     OH2      OT      -0.834000       15.9994           0
     40385 TIP3     5356     TIP3     H1       HT       0.417000       1.00800           0
     40386 TIP3     5356     TIP3     H2       HT       0.417000       1.00800           0
     40387 TIP3     5357     TIP3     OH2      OT      -0.834000       15.9994           0
     40388 TIP3     5357     TIP3     H1       HT       0.417000       1.00800           0
     40389 TIP3     5357     TIP3     H2       HT       0.417000       1.00800           0
     40390 TIP3     5358     TIP3     OH2      OT      -0.834000       15.9994           0
     40391 TIP3     5358     TIP3     H1       HT       0.417000       1.00800           0
     40392 TIP3     5358     TIP3     H2       HT       0.417000       1.00800           0
     40393 TIP3     5359     TIP3     OH2      OT      -0.834000       15.9994           0
     40394 TIP3     5359     TIP3     H1       HT       0.417000       1.00800           0
     40395 TIP3     5359     TIP3     H2       HT       0.417000       1.00800           0
     40396 TIP3     5360     TIP3     OH2      OT      -0.834000       15.9994           0
     40397 TIP3     5360     TIP3     H1       HT       0.417000       1.00800           0
     40398 TIP3     5360     TIP3     H2       HT       0.417000       1.00800           0
     40399 TIP3     5361     TIP3     OH2      OT      -0.834000       15.9994           0
     40400 TIP3     5361     TIP3     H1       HT       0.417000       1.00800           0
     40401 TIP3     5361     TIP3     H2       HT       0.417000       1.00800           0
     40402 TIP3     5362     TIP3     OH2      OT      -0.834000       15.9994           0
     40403 TIP3     5362     TIP3     H1       HT       0.417000       1.00800           0
     40404 TIP3     5362     TIP3     H2       HT       0.417000       1.00800           0
     40405 TIP3     5363     TIP3     OH2      OT      -0.834000       15.9994           0
     40406 TIP3     5363     TIP3     H1       HT       0.417000       1.00800           0
     40407 TIP3     5363     TIP3     H2       HT       0.417000       1.00800           0
     40408 TIP3     5364     TIP3     OH2      OT      -0.834000       15.9994           0
     40409 TIP3     5364     TIP3     H1       HT       0.417000       1.00800           0
     40410 TIP3     5364     TIP3     H2       HT       0.417000       1.00800           0
     40411 TIP3     5365     TIP3     OH2      OT      -0.834000       15.9994           0
     40412 TIP3     5365     TIP3     H1       HT       0.417000       1.00800           0
     40413 TIP3     5365     TIP3     H2       HT       0.417000       1.00800           0
     40414 TIP3     5366     TIP3     OH2      OT      -0.834000       15.9994           0
     40415 TIP3     5366     TIP3     H1       HT       0.417000       1.00800           0
     40416 TIP3     5366     TIP3     H2       HT       0.417000       1.00800           0
     40417 TIP3     5367     TIP3     OH2      OT      -0.834000       15.9994           0
     40418 TIP3     5367     TIP3     H1       HT       0.417000       1.00800           0
     40419 TIP3     5367     TIP3     H2       HT       0.417000       1.00800           0
     40420 TIP3     5368     TIP3     OH2      OT      -0.834000       15.9994           0
     40421 TIP3     5368     TIP3     H1       HT       0.417000       1.00800           0
     40422 TIP3     5368     TIP3     H2       HT       0.417000       1.00800           0
     40423 TIP3     5369     TIP3     OH2      OT      -0.834000       15.9994           0
     40424 TIP3     5369     TIP3     H1       HT       0.417000       1.00800           0
     40425 TIP3     5369     TIP3     H2       HT       0.417000       1.00800           0
     40426 TIP3     5370     TIP3     OH2      OT      -0.834000       15.9994           0
     40427 TIP3     5370     TIP3     H1       HT       0.417000       1.00800           0
     40428 TIP3     5370     TIP3     H2       HT       0.417000       1.00800           0
     40429 TIP3     5371     TIP3     OH2      OT      -0.834000       15.9994           0
     40430 TIP3     5371     TIP3     H1       HT       0.417000       1.00800           0
     40431 TIP3     5371     TIP3     H2       HT       0.417000       1.00800           0
     40432 TIP3     5372     TIP3     OH2      OT      -0.834000       15.9994           0
     40433 TIP3     5372     TIP3     H1       HT       0.417000       1.00800           0
     40434 TIP3     5372     TIP3     H2       HT       0.417000       1.00800           0
     40435 TIP3     5373     TIP3     OH2      OT      -0.834000       15.9994           0
     40436 TIP3     5373     TIP3     H1       HT       0.417000       1.00800           0
     40437 TIP3     5373     TIP3     H2       HT       0.417000       1.00800           0
     40438 TIP3     5374     TIP3     OH2      OT      -0.834000       15.9994           0
     40439 TIP3     5374     TIP3     H1       HT       0.417000       1.00800           0
     40440 TIP3     5374     TIP3     H2       HT       0.417000       1.00800           0
     40441 TIP3     5375     TIP3     OH2      OT      -0.834000       15.9994           0
     40442 TIP3     5375     TIP3     H1       HT       0.417000       1.00800           0
     40443 TIP3     5375     TIP3     H2       HT       0.417000       1.00800           0
     40444 TIP3     5376     TIP3     OH2      OT      -0.834000       15.9994           0
     40445 TIP3     5376     TIP3     H1       HT       0.417000       1.00800           0
     40446 TIP3     5376     TIP3     H2       HT       0.417000       1.00800           0
     40447 TIP3     5377     TIP3     OH2      OT      -0.834000       15.9994           0
     40448 TIP3     5377     TIP3     H1       HT       0.417000       1.00800           0
     40449 TIP3     5377     TIP3     H2       HT       0.417000       1.00800           0
     40450 TIP3     5378     TIP3     OH2      OT      -0.834000       15.9994           0
     40451 TIP3     5378     TIP3     H1       HT       0.417000       1.00800           0
     40452 TIP3     5378     TIP3     H2       HT       0.417000       1.00800           0
     40453 TIP3     5379     TIP3     OH2      OT      -0.834000       15.9994           0
     40454 TIP3     5379     TIP3     H1       HT       0.417000       1.00800           0
     40455 TIP3     5379     TIP3     H2       HT       0.417000       1.00800           0
     40456 TIP3     5380     TIP3     OH2      OT      -0.834000       15.9994           0
     40457 TIP3     5380     TIP3     H1       HT       0.417000       1.00800           0
     40458 TIP3     5380     TIP3     H2       HT       0.417000       1.00800           0
     40459 TIP3     5381     TIP3     OH2      OT      -0.834000       15.9994           0
     40460 TIP3     5381     TIP3     H1       HT       0.417000       1.00800           0
     40461 TIP3     5381     TIP3     H2       HT       0.417000       1.00800           0
     40462 TIP3     5382     TIP3     OH2      OT      -0.834000       15.9994           0
     40463 TIP3     5382     TIP3     H1       HT       0.417000       1.00800           0
     40464 TIP3     5382     TIP3     H2       HT       0.417000       1.00800           0
     40465 TIP3     5383     TIP3     OH2      OT      -0.834000       15.9994           0
     40466 TIP3     5383     TIP3     H1       HT       0.417000       1.00800           0
     40467 TIP3     5383     TIP3     H2       HT       0.417000       1.00800           0
     40468 TIP3     5384     TIP3     OH2      OT      -0.834000       15.9994           0
     40469 TIP3     5384     TIP3     H1       HT       0.417000       1.00800           0
     40470 TIP3     5384     TIP3     H2       HT       0.417000       1.00800           0
     40471 TIP3     5385     TIP3     OH2      OT      -0.834000       15.9994           0
     40472 TIP3     5385     TIP3     H1       HT       0.417000       1.00800           0
     40473 TIP3     5385     TIP3     H2       HT       0.417000       1.00800           0
     40474 TIP3     5386     TIP3     OH2      OT      -0.834000       15.9994           0
     40475 TIP3     5386     TIP3     H1       HT       0.417000       1.00800           0
     40476 TIP3     5386     TIP3     H2       HT       0.417000       1.00800           0
     40477 TIP3     5387     TIP3     OH2      OT      -0.834000       15.9994           0
     40478 TIP3     5387     TIP3     H1       HT       0.417000       1.00800           0
     40479 TIP3     5387     TIP3     H2       HT       0.417000       1.00800           0
     40480 TIP3     5388     TIP3     OH2      OT      -0.834000       15.9994           0
     40481 TIP3     5388     TIP3     H1       HT       0.417000       1.00800           0
     40482 TIP3     5388     TIP3     H2       HT       0.417000       1.00800           0
     40483 TIP3     5389     TIP3     OH2      OT      -0.834000       15.9994           0
     40484 TIP3     5389     TIP3     H1       HT       0.417000       1.00800           0
     40485 TIP3     5389     TIP3     H2       HT       0.417000       1.00800           0
     40486 TIP3     5390     TIP3     OH2      OT      -0.834000       15.9994           0
     40487 TIP3     5390     TIP3     H1       HT       0.417000       1.00800           0
     40488 TIP3     5390     TIP3     H2       HT       0.417000       1.00800           0
     40489 TIP3     5391     TIP3     OH2      OT      -0.834000       15.9994           0
     40490 TIP3     5391     TIP3     H1       HT       0.417000       1.00800           0
     40491 TIP3     5391     TIP3     H2       HT       0.417000       1.00800           0
     40492 TIP3     5392     TIP3     OH2      OT      -0.834000       15.9994           0
     40493 TIP3     5392     TIP3     H1       HT       0.417000       1.00800           0
     40494 TIP3     5392     TIP3     H2       HT       0.417000       1.00800           0
     40495 TIP3     5393     TIP3     OH2      OT      -0.834000       15.9994           0
     40496 TIP3     5393     TIP3     H1       HT       0.417000       1.00800           0
     40497 TIP3     5393     TIP3     H2       HT       0.417000       1.00800           0
     40498 TIP3     5394     TIP3     OH2      OT      -0.834000       15.9994           0
     40499 TIP3     5394     TIP3     H1       HT       0.417000       1.00800           0
     40500 TIP3     5394     TIP3     H2       HT       0.417000       1.00800           0
     40501 TIP3     5395     TIP3     OH2      OT      -0.834000       15.9994           0
     40502 TIP3     5395     TIP3     H1       HT       0.417000       1.00800           0
     40503 TIP3     5395     TIP3     H2       HT       0.417000       1.00800           0
     40504 TIP3     5396     TIP3     OH2      OT      -0.834000       15.9994           0
     40505 TIP3     5396     TIP3     H1       HT       0.417000       1.00800           0
     40506 TIP3     5396     TIP3     H2       HT       0.417000       1.00800           0
     40507 TIP3     5397     TIP3     OH2      OT      -0.834000       15.9994           0
     40508 TIP3     5397     TIP3     H1       HT       0.417000       1.00800           0
     40509 TIP3     5397     TIP3     H2       HT       0.417000       1.00800           0
     40510 TIP3     5398     TIP3     OH2      OT      -0.834000       15.9994           0
     40511 TIP3     5398     TIP3     H1       HT       0.417000       1.00800           0
     40512 TIP3     5398     TIP3     H2       HT       0.417000       1.00800           0
     40513 TIP3     5399     TIP3     OH2      OT      -0.834000       15.9994           0
     40514 TIP3     5399     TIP3     H1       HT       0.417000       1.00800           0
     40515 TIP3     5399     TIP3     H2       HT       0.417000       1.00800           0
     40516 TIP3     5400     TIP3     OH2      OT      -0.834000       15.9994           0
     40517 TIP3     5400     TIP3     H1       HT       0.417000       1.00800           0
     40518 TIP3     5400     TIP3     H2       HT       0.417000       1.00800           0
     40519 TIP3     5401     TIP3     OH2      OT      -0.834000       15.9994           0
     40520 TIP3     5401     TIP3     H1       HT       0.417000       1.00800           0
     40521 TIP3     5401     TIP3     H2       HT       0.417000       1.00800           0
     40522 TIP3     5402     TIP3     OH2      OT      -0.834000       15.9994           0
     40523 TIP3     5402     TIP3     H1       HT       0.417000       1.00800           0
     40524 TIP3     5402     TIP3     H2       HT       0.417000       1.00800           0
     40525 TIP3     5403     TIP3     OH2      OT      -0.834000       15.9994           0
     40526 TIP3     5403     TIP3     H1       HT       0.417000       1.00800           0
     40527 TIP3     5403     TIP3     H2       HT       0.417000       1.00800           0
     40528 TIP3     5404     TIP3     OH2      OT      -0.834000       15.9994           0
     40529 TIP3     5404     TIP3     H1       HT       0.417000       1.00800           0
     40530 TIP3     5404     TIP3     H2       HT       0.417000       1.00800           0
     40531 TIP3     5405     TIP3     OH2      OT      -0.834000       15.9994           0
     40532 TIP3     5405     TIP3     H1       HT       0.417000       1.00800           0
     40533 TIP3     5405     TIP3     H2       HT       0.417000       1.00800           0
     40534 TIP3     5406     TIP3     OH2      OT      -0.834000       15.9994           0
     40535 TIP3     5406     TIP3     H1       HT       0.417000       1.00800           0
     40536 TIP3     5406     TIP3     H2       HT       0.417000       1.00800           0
     40537 TIP3     5407     TIP3     OH2      OT      -0.834000       15.9994           0
     40538 TIP3     5407     TIP3     H1       HT       0.417000       1.00800           0
     40539 TIP3     5407     TIP3     H2       HT       0.417000       1.00800           0
     40540 TIP3     5408     TIP3     OH2      OT      -0.834000       15.9994           0
     40541 TIP3     5408     TIP3     H1       HT       0.417000       1.00800           0
     40542 TIP3     5408     TIP3     H2       HT       0.417000       1.00800           0
     40543 TIP3     5409     TIP3     OH2      OT      -0.834000       15.9994           0
     40544 TIP3     5409     TIP3     H1       HT       0.417000       1.00800           0
     40545 TIP3     5409     TIP3     H2       HT       0.417000       1.00800           0
     40546 TIP3     5410     TIP3     OH2      OT      -0.834000       15.9994           0
     40547 TIP3     5410     TIP3     H1       HT       0.417000       1.00800           0
     40548 TIP3     5410     TIP3     H2       HT       0.417000       1.00800           0
     40549 TIP3     5411     TIP3     OH2      OT      -0.834000       15.9994           0
     40550 TIP3     5411     TIP3     H1       HT       0.417000       1.00800           0
     40551 TIP3     5411     TIP3     H2       HT       0.417000       1.00800           0
     40552 TIP3     5412     TIP3     OH2      OT      -0.834000       15.9994           0
     40553 TIP3     5412     TIP3     H1       HT       0.417000       1.00800           0
     40554 TIP3     5412     TIP3     H2       HT       0.417000       1.00800           0
     40555 TIP3     5413     TIP3     OH2      OT      -0.834000       15.9994           0
     40556 TIP3     5413     TIP3     H1       HT       0.417000       1.00800           0
     40557 TIP3     5413     TIP3     H2       HT       0.417000       1.00800           0
     40558 TIP3     5414     TIP3     OH2      OT      -0.834000       15.9994           0
     40559 TIP3     5414     TIP3     H1       HT       0.417000       1.00800           0
     40560 TIP3     5414     TIP3     H2       HT       0.417000       1.00800           0
     40561 TIP3     5415     TIP3     OH2      OT      -0.834000       15.9994           0
     40562 TIP3     5415     TIP3     H1       HT       0.417000       1.00800           0
     40563 TIP3     5415     TIP3     H2       HT       0.417000       1.00800           0
     40564 TIP3     5416     TIP3     OH2      OT      -0.834000       15.9994           0
     40565 TIP3     5416     TIP3     H1       HT       0.417000       1.00800           0
     40566 TIP3     5416     TIP3     H2       HT       0.417000       1.00800           0
     40567 TIP3     5417     TIP3     OH2      OT      -0.834000       15.9994           0
     40568 TIP3     5417     TIP3     H1       HT       0.417000       1.00800           0
     40569 TIP3     5417     TIP3     H2       HT       0.417000       1.00800           0
     40570 TIP3     5418     TIP3     OH2      OT      -0.834000       15.9994           0
     40571 TIP3     5418     TIP3     H1       HT       0.417000       1.00800           0
     40572 TIP3     5418     TIP3     H2       HT       0.417000       1.00800           0
     40573 TIP3     5419     TIP3     OH2      OT      -0.834000       15.9994           0
     40574 TIP3     5419     TIP3     H1       HT       0.417000       1.00800           0
     40575 TIP3     5419     TIP3     H2       HT       0.417000       1.00800           0
     40576 TIP3     5420     TIP3     OH2      OT      -0.834000       15.9994           0
     40577 TIP3     5420     TIP3     H1       HT       0.417000       1.00800           0
     40578 TIP3     5420     TIP3     H2       HT       0.417000       1.00800           0
     40579 TIP3     5421     TIP3     OH2      OT      -0.834000       15.9994           0
     40580 TIP3     5421     TIP3     H1       HT       0.417000       1.00800           0
     40581 TIP3     5421     TIP3     H2       HT       0.417000       1.00800           0
     40582 TIP3     5422     TIP3     OH2      OT      -0.834000       15.9994           0
     40583 TIP3     5422     TIP3     H1       HT       0.417000       1.00800           0
     40584 TIP3     5422     TIP3     H2       HT       0.417000       1.00800           0
     40585 TIP3     5423     TIP3     OH2      OT      -0.834000       15.9994           0
     40586 TIP3     5423     TIP3     H1       HT       0.417000       1.00800           0
     40587 TIP3     5423     TIP3     H2       HT       0.417000       1.00800           0
     40588 TIP3     5424     TIP3     OH2      OT      -0.834000       15.9994           0
     40589 TIP3     5424     TIP3     H1       HT       0.417000       1.00800           0
     40590 TIP3     5424     TIP3     H2       HT       0.417000       1.00800           0
     40591 TIP3     5425     TIP3     OH2      OT      -0.834000       15.9994           0
     40592 TIP3     5425     TIP3     H1       HT       0.417000       1.00800           0
     40593 TIP3     5425     TIP3     H2       HT       0.417000       1.00800           0
     40594 TIP3     5426     TIP3     OH2      OT      -0.834000       15.9994           0
     40595 TIP3     5426     TIP3     H1       HT       0.417000       1.00800           0
     40596 TIP3     5426     TIP3     H2       HT       0.417000       1.00800           0
     40597 TIP3     5427     TIP3     OH2      OT      -0.834000       15.9994           0
     40598 TIP3     5427     TIP3     H1       HT       0.417000       1.00800           0
     40599 TIP3     5427     TIP3     H2       HT       0.417000       1.00800           0
     40600 TIP3     5428     TIP3     OH2      OT      -0.834000       15.9994           0
     40601 TIP3     5428     TIP3     H1       HT       0.417000       1.00800           0
     40602 TIP3     5428     TIP3     H2       HT       0.417000       1.00800           0
     40603 TIP3     5429     TIP3     OH2      OT      -0.834000       15.9994           0
     40604 TIP3     5429     TIP3     H1       HT       0.417000       1.00800           0
     40605 TIP3     5429     TIP3     H2       HT       0.417000       1.00800           0
     40606 TIP3     5430     TIP3     OH2      OT      -0.834000       15.9994           0
     40607 TIP3     5430     TIP3     H1       HT       0.417000       1.00800           0
     40608 TIP3     5430     TIP3     H2       HT       0.417000       1.00800           0
     40609 TIP3     5431     TIP3     OH2      OT      -0.834000       15.9994           0
     40610 TIP3     5431     TIP3     H1       HT       0.417000       1.00800           0
     40611 TIP3     5431     TIP3     H2       HT       0.417000       1.00800           0
     40612 TIP3     5432     TIP3     OH2      OT      -0.834000       15.9994           0
     40613 TIP3     5432     TIP3     H1       HT       0.417000       1.00800           0
     40614 TIP3     5432     TIP3     H2       HT       0.417000       1.00800           0
     40615 TIP3     5433     TIP3     OH2      OT      -0.834000       15.9994           0
     40616 TIP3     5433     TIP3     H1       HT       0.417000       1.00800           0
     40617 TIP3     5433     TIP3     H2       HT       0.417000       1.00800           0
     40618 TIP3     5434     TIP3     OH2      OT      -0.834000       15.9994           0
     40619 TIP3     5434     TIP3     H1       HT       0.417000       1.00800           0
     40620 TIP3     5434     TIP3     H2       HT       0.417000       1.00800           0
     40621 TIP3     5435     TIP3     OH2      OT      -0.834000       15.9994           0
     40622 TIP3     5435     TIP3     H1       HT       0.417000       1.00800           0
     40623 TIP3     5435     TIP3     H2       HT       0.417000       1.00800           0
     40624 TIP3     5436     TIP3     OH2      OT      -0.834000       15.9994           0
     40625 TIP3     5436     TIP3     H1       HT       0.417000       1.00800           0
     40626 TIP3     5436     TIP3     H2       HT       0.417000       1.00800           0
     40627 TIP3     5437     TIP3     OH2      OT      -0.834000       15.9994           0
     40628 TIP3     5437     TIP3     H1       HT       0.417000       1.00800           0
     40629 TIP3     5437     TIP3     H2       HT       0.417000       1.00800           0
     40630 TIP3     5438     TIP3     OH2      OT      -0.834000       15.9994           0
     40631 TIP3     5438     TIP3     H1       HT       0.417000       1.00800           0
     40632 TIP3     5438     TIP3     H2       HT       0.417000       1.00800           0
     40633 TIP3     5439     TIP3     OH2      OT      -0.834000       15.9994           0
     40634 TIP3     5439     TIP3     H1       HT       0.417000       1.00800           0
     40635 TIP3     5439     TIP3     H2       HT       0.417000       1.00800           0
     40636 TIP3     5440     TIP3     OH2      OT      -0.834000       15.9994           0
     40637 TIP3     5440     TIP3     H1       HT       0.417000       1.00800           0
     40638 TIP3     5440     TIP3     H2       HT       0.417000       1.00800           0
     40639 TIP3     5441     TIP3     OH2      OT      -0.834000       15.9994           0
     40640 TIP3     5441     TIP3     H1       HT       0.417000       1.00800           0
     40641 TIP3     5441     TIP3     H2       HT       0.417000       1.00800           0
     40642 TIP3     5442     TIP3     OH2      OT      -0.834000       15.9994           0
     40643 TIP3     5442     TIP3     H1       HT       0.417000       1.00800           0
     40644 TIP3     5442     TIP3     H2       HT       0.417000       1.00800           0
     40645 TIP3     5443     TIP3     OH2      OT      -0.834000       15.9994           0
     40646 TIP3     5443     TIP3     H1       HT       0.417000       1.00800           0
     40647 TIP3     5443     TIP3     H2       HT       0.417000       1.00800           0
     40648 TIP3     5444     TIP3     OH2      OT      -0.834000       15.9994           0
     40649 TIP3     5444     TIP3     H1       HT       0.417000       1.00800           0
     40650 TIP3     5444     TIP3     H2       HT       0.417000       1.00800           0
     40651 TIP3     5445     TIP3     OH2      OT      -0.834000       15.9994           0
     40652 TIP3     5445     TIP3     H1       HT       0.417000       1.00800           0
     40653 TIP3     5445     TIP3     H2       HT       0.417000       1.00800           0
     40654 TIP3     5446     TIP3     OH2      OT      -0.834000       15.9994           0
     40655 TIP3     5446     TIP3     H1       HT       0.417000       1.00800           0
     40656 TIP3     5446     TIP3     H2       HT       0.417000       1.00800           0
     40657 TIP3     5447     TIP3     OH2      OT      -0.834000       15.9994           0
     40658 TIP3     5447     TIP3     H1       HT       0.417000       1.00800           0
     40659 TIP3     5447     TIP3     H2       HT       0.417000       1.00800           0
     40660 TIP3     5448     TIP3     OH2      OT      -0.834000       15.9994           0
     40661 TIP3     5448     TIP3     H1       HT       0.417000       1.00800           0
     40662 TIP3     5448     TIP3     H2       HT       0.417000       1.00800           0
     40663 TIP3     5449     TIP3     OH2      OT      -0.834000       15.9994           0
     40664 TIP3     5449     TIP3     H1       HT       0.417000       1.00800           0
     40665 TIP3     5449     TIP3     H2       HT       0.417000       1.00800           0
     40666 TIP3     5450     TIP3     OH2      OT      -0.834000       15.9994           0
     40667 TIP3     5450     TIP3     H1       HT       0.417000       1.00800           0
     40668 TIP3     5450     TIP3     H2       HT       0.417000       1.00800           0
     40669 TIP3     5451     TIP3     OH2      OT      -0.834000       15.9994           0
     40670 TIP3     5451     TIP3     H1       HT       0.417000       1.00800           0
     40671 TIP3     5451     TIP3     H2       HT       0.417000       1.00800           0
     40672 TIP3     5452     TIP3     OH2      OT      -0.834000       15.9994           0
     40673 TIP3     5452     TIP3     H1       HT       0.417000       1.00800           0
     40674 TIP3     5452     TIP3     H2       HT       0.417000       1.00800           0
     40675 TIP3     5453     TIP3     OH2      OT      -0.834000       15.9994           0
     40676 TIP3     5453     TIP3     H1       HT       0.417000       1.00800           0
     40677 TIP3     5453     TIP3     H2       HT       0.417000       1.00800           0
     40678 TIP3     5454     TIP3     OH2      OT      -0.834000       15.9994           0
     40679 TIP3     5454     TIP3     H1       HT       0.417000       1.00800           0
     40680 TIP3     5454     TIP3     H2       HT       0.417000       1.00800           0
     40681 TIP3     5455     TIP3     OH2      OT      -0.834000       15.9994           0
     40682 TIP3     5455     TIP3     H1       HT       0.417000       1.00800           0
     40683 TIP3     5455     TIP3     H2       HT       0.417000       1.00800           0
     40684 TIP3     5456     TIP3     OH2      OT      -0.834000       15.9994           0
     40685 TIP3     5456     TIP3     H1       HT       0.417000       1.00800           0
     40686 TIP3     5456     TIP3     H2       HT       0.417000       1.00800           0
     40687 TIP3     5457     TIP3     OH2      OT      -0.834000       15.9994           0
     40688 TIP3     5457     TIP3     H1       HT       0.417000       1.00800           0
     40689 TIP3     5457     TIP3     H2       HT       0.417000       1.00800           0
     40690 TIP3     5458     TIP3     OH2      OT      -0.834000       15.9994           0
     40691 TIP3     5458     TIP3     H1       HT       0.417000       1.00800           0
     40692 TIP3     5458     TIP3     H2       HT       0.417000       1.00800           0
     40693 TIP3     5459     TIP3     OH2      OT      -0.834000       15.9994           0
     40694 TIP3     5459     TIP3     H1       HT       0.417000       1.00800           0
     40695 TIP3     5459     TIP3     H2       HT       0.417000       1.00800           0
     40696 TIP3     5460     TIP3     OH2      OT      -0.834000       15.9994           0
     40697 TIP3     5460     TIP3     H1       HT       0.417000       1.00800           0
     40698 TIP3     5460     TIP3     H2       HT       0.417000       1.00800           0
     40699 TIP3     5461     TIP3     OH2      OT      -0.834000       15.9994           0
     40700 TIP3     5461     TIP3     H1       HT       0.417000       1.00800           0
     40701 TIP3     5461     TIP3     H2       HT       0.417000       1.00800           0
     40702 TIP3     5462     TIP3     OH2      OT      -0.834000       15.9994           0
     40703 TIP3     5462     TIP3     H1       HT       0.417000       1.00800           0
     40704 TIP3     5462     TIP3     H2       HT       0.417000       1.00800           0
     40705 TIP3     5463     TIP3     OH2      OT      -0.834000       15.9994           0
     40706 TIP3     5463     TIP3     H1       HT       0.417000       1.00800           0
     40707 TIP3     5463     TIP3     H2       HT       0.417000       1.00800           0
     40708 TIP3     5464     TIP3     OH2      OT      -0.834000       15.9994           0
     40709 TIP3     5464     TIP3     H1       HT       0.417000       1.00800           0
     40710 TIP3     5464     TIP3     H2       HT       0.417000       1.00800           0
     40711 TIP3     5465     TIP3     OH2      OT      -0.834000       15.9994           0
     40712 TIP3     5465     TIP3     H1       HT       0.417000       1.00800           0
     40713 TIP3     5465     TIP3     H2       HT       0.417000       1.00800           0
     40714 TIP3     5466     TIP3     OH2      OT      -0.834000       15.9994           0
     40715 TIP3     5466     TIP3     H1       HT       0.417000       1.00800           0
     40716 TIP3     5466     TIP3     H2       HT       0.417000       1.00800           0
     40717 TIP3     5467     TIP3     OH2      OT      -0.834000       15.9994           0
     40718 TIP3     5467     TIP3     H1       HT       0.417000       1.00800           0
     40719 TIP3     5467     TIP3     H2       HT       0.417000       1.00800           0
     40720 TIP3     5468     TIP3     OH2      OT      -0.834000       15.9994           0
     40721 TIP3     5468     TIP3     H1       HT       0.417000       1.00800           0
     40722 TIP3     5468     TIP3     H2       HT       0.417000       1.00800           0
     40723 TIP3     5469     TIP3     OH2      OT      -0.834000       15.9994           0
     40724 TIP3     5469     TIP3     H1       HT       0.417000       1.00800           0
     40725 TIP3     5469     TIP3     H2       HT       0.417000       1.00800           0
     40726 TIP3     5470     TIP3     OH2      OT      -0.834000       15.9994           0
     40727 TIP3     5470     TIP3     H1       HT       0.417000       1.00800           0
     40728 TIP3     5470     TIP3     H2       HT       0.417000       1.00800           0
     40729 TIP3     5471     TIP3     OH2      OT      -0.834000       15.9994           0
     40730 TIP3     5471     TIP3     H1       HT       0.417000       1.00800           0
     40731 TIP3     5471     TIP3     H2       HT       0.417000       1.00800           0
     40732 TIP3     5472     TIP3     OH2      OT      -0.834000       15.9994           0
     40733 TIP3     5472     TIP3     H1       HT       0.417000       1.00800           0
     40734 TIP3     5472     TIP3     H2       HT       0.417000       1.00800           0
     40735 TIP3     5473     TIP3     OH2      OT      -0.834000       15.9994           0
     40736 TIP3     5473     TIP3     H1       HT       0.417000       1.00800           0
     40737 TIP3     5473     TIP3     H2       HT       0.417000       1.00800           0
     40738 TIP3     5474     TIP3     OH2      OT      -0.834000       15.9994           0
     40739 TIP3     5474     TIP3     H1       HT       0.417000       1.00800           0
     40740 TIP3     5474     TIP3     H2       HT       0.417000       1.00800           0
     40741 TIP3     5475     TIP3     OH2      OT      -0.834000       15.9994           0
     40742 TIP3     5475     TIP3     H1       HT       0.417000       1.00800           0
     40743 TIP3     5475     TIP3     H2       HT       0.417000       1.00800           0
     40744 TIP3     5476     TIP3     OH2      OT      -0.834000       15.9994           0
     40745 TIP3     5476     TIP3     H1       HT       0.417000       1.00800           0
     40746 TIP3     5476     TIP3     H2       HT       0.417000       1.00800           0
     40747 TIP3     5477     TIP3     OH2      OT      -0.834000       15.9994           0
     40748 TIP3     5477     TIP3     H1       HT       0.417000       1.00800           0
     40749 TIP3     5477     TIP3     H2       HT       0.417000       1.00800           0
     40750 TIP3     5478     TIP3     OH2      OT      -0.834000       15.9994           0
     40751 TIP3     5478     TIP3     H1       HT       0.417000       1.00800           0
     40752 TIP3     5478     TIP3     H2       HT       0.417000       1.00800           0
     40753 TIP3     5479     TIP3     OH2      OT      -0.834000       15.9994           0
     40754 TIP3     5479     TIP3     H1       HT       0.417000       1.00800           0
     40755 TIP3     5479     TIP3     H2       HT       0.417000       1.00800           0
     40756 TIP3     5480     TIP3     OH2      OT      -0.834000       15.9994           0
     40757 TIP3     5480     TIP3     H1       HT       0.417000       1.00800           0
     40758 TIP3     5480     TIP3     H2       HT       0.417000       1.00800           0
     40759 TIP3     5481     TIP3     OH2      OT      -0.834000       15.9994           0
     40760 TIP3     5481     TIP3     H1       HT       0.417000       1.00800           0
     40761 TIP3     5481     TIP3     H2       HT       0.417000       1.00800           0
     40762 TIP3     5482     TIP3     OH2      OT      -0.834000       15.9994           0
     40763 TIP3     5482     TIP3     H1       HT       0.417000       1.00800           0
     40764 TIP3     5482     TIP3     H2       HT       0.417000       1.00800           0
     40765 TIP3     5483     TIP3     OH2      OT      -0.834000       15.9994           0
     40766 TIP3     5483     TIP3     H1       HT       0.417000       1.00800           0
     40767 TIP3     5483     TIP3     H2       HT       0.417000       1.00800           0
     40768 TIP3     5484     TIP3     OH2      OT      -0.834000       15.9994           0
     40769 TIP3     5484     TIP3     H1       HT       0.417000       1.00800           0
     40770 TIP3     5484     TIP3     H2       HT       0.417000       1.00800           0
     40771 TIP3     5485     TIP3     OH2      OT      -0.834000       15.9994           0
     40772 TIP3     5485     TIP3     H1       HT       0.417000       1.00800           0
     40773 TIP3     5485     TIP3     H2       HT       0.417000       1.00800           0
     40774 TIP3     5486     TIP3     OH2      OT      -0.834000       15.9994           0
     40775 TIP3     5486     TIP3     H1       HT       0.417000       1.00800           0
     40776 TIP3     5486     TIP3     H2       HT       0.417000       1.00800           0
     40777 TIP3     5487     TIP3     OH2      OT      -0.834000       15.9994           0
     40778 TIP3     5487     TIP3     H1       HT       0.417000       1.00800           0
     40779 TIP3     5487     TIP3     H2       HT       0.417000       1.00800           0
     40780 TIP3     5488     TIP3     OH2      OT      -0.834000       15.9994           0
     40781 TIP3     5488     TIP3     H1       HT       0.417000       1.00800           0
     40782 TIP3     5488     TIP3     H2       HT       0.417000       1.00800           0
     40783 TIP3     5489     TIP3     OH2      OT      -0.834000       15.9994           0
     40784 TIP3     5489     TIP3     H1       HT       0.417000       1.00800           0
     40785 TIP3     5489     TIP3     H2       HT       0.417000       1.00800           0
     40786 TIP3     5490     TIP3     OH2      OT      -0.834000       15.9994           0
     40787 TIP3     5490     TIP3     H1       HT       0.417000       1.00800           0
     40788 TIP3     5490     TIP3     H2       HT       0.417000       1.00800           0
     40789 TIP3     5491     TIP3     OH2      OT      -0.834000       15.9994           0
     40790 TIP3     5491     TIP3     H1       HT       0.417000       1.00800           0
     40791 TIP3     5491     TIP3     H2       HT       0.417000       1.00800           0
     40792 TIP3     5492     TIP3     OH2      OT      -0.834000       15.9994           0
     40793 TIP3     5492     TIP3     H1       HT       0.417000       1.00800           0
     40794 TIP3     5492     TIP3     H2       HT       0.417000       1.00800           0
     40795 TIP3     5493     TIP3     OH2      OT      -0.834000       15.9994           0
     40796 TIP3     5493     TIP3     H1       HT       0.417000       1.00800           0
     40797 TIP3     5493     TIP3     H2       HT       0.417000       1.00800           0
     40798 TIP3     5494     TIP3     OH2      OT      -0.834000       15.9994           0
     40799 TIP3     5494     TIP3     H1       HT       0.417000       1.00800           0
     40800 TIP3     5494     TIP3     H2       HT       0.417000       1.00800           0
     40801 TIP3     5495     TIP3     OH2      OT      -0.834000       15.9994           0
     40802 TIP3     5495     TIP3     H1       HT       0.417000       1.00800           0
     40803 TIP3     5495     TIP3     H2       HT       0.417000       1.00800           0
     40804 TIP3     5496     TIP3     OH2      OT      -0.834000       15.9994           0
     40805 TIP3     5496     TIP3     H1       HT       0.417000       1.00800           0
     40806 TIP3     5496     TIP3     H2       HT       0.417000       1.00800           0
     40807 TIP3     5497     TIP3     OH2      OT      -0.834000       15.9994           0
     40808 TIP3     5497     TIP3     H1       HT       0.417000       1.00800           0
     40809 TIP3     5497     TIP3     H2       HT       0.417000       1.00800           0
     40810 TIP3     5498     TIP3     OH2      OT      -0.834000       15.9994           0
     40811 TIP3     5498     TIP3     H1       HT       0.417000       1.00800           0
     40812 TIP3     5498     TIP3     H2       HT       0.417000       1.00800           0
     40813 TIP3     5499     TIP3     OH2      OT      -0.834000       15.9994           0
     40814 TIP3     5499     TIP3     H1       HT       0.417000       1.00800           0
     40815 TIP3     5499     TIP3     H2       HT       0.417000       1.00800           0
     40816 TIP3     5500     TIP3     OH2      OT      -0.834000       15.9994           0
     40817 TIP3     5500     TIP3     H1       HT       0.417000       1.00800           0
     40818 TIP3     5500     TIP3     H2       HT       0.417000       1.00800           0
     40819 TIP3     5501     TIP3     OH2      OT      -0.834000       15.9994           0
     40820 TIP3     5501     TIP3     H1       HT       0.417000       1.00800           0
     40821 TIP3     5501     TIP3     H2       HT       0.417000       1.00800           0
     40822 TIP3     5502     TIP3     OH2      OT      -0.834000       15.9994           0
     40823 TIP3     5502     TIP3     H1       HT       0.417000       1.00800           0
     40824 TIP3     5502     TIP3     H2       HT       0.417000       1.00800           0
     40825 TIP3     5503     TIP3     OH2      OT      -0.834000       15.9994           0
     40826 TIP3     5503     TIP3     H1       HT       0.417000       1.00800           0
     40827 TIP3     5503     TIP3     H2       HT       0.417000       1.00800           0
     40828 TIP3     5504     TIP3     OH2      OT      -0.834000       15.9994           0
     40829 TIP3     5504     TIP3     H1       HT       0.417000       1.00800           0
     40830 TIP3     5504     TIP3     H2       HT       0.417000       1.00800           0
     40831 TIP3     5505     TIP3     OH2      OT      -0.834000       15.9994           0
     40832 TIP3     5505     TIP3     H1       HT       0.417000       1.00800           0
     40833 TIP3     5505     TIP3     H2       HT       0.417000       1.00800           0
     40834 TIP3     5506     TIP3     OH2      OT      -0.834000       15.9994           0
     40835 TIP3     5506     TIP3     H1       HT       0.417000       1.00800           0
     40836 TIP3     5506     TIP3     H2       HT       0.417000       1.00800           0
     40837 TIP3     5507     TIP3     OH2      OT      -0.834000       15.9994           0
     40838 TIP3     5507     TIP3     H1       HT       0.417000       1.00800           0
     40839 TIP3     5507     TIP3     H2       HT       0.417000       1.00800           0
     40840 TIP3     5508     TIP3     OH2      OT      -0.834000       15.9994           0
     40841 TIP3     5508     TIP3     H1       HT       0.417000       1.00800           0
     40842 TIP3     5508     TIP3     H2       HT       0.417000       1.00800           0
     40843 TIP3     5509     TIP3     OH2      OT      -0.834000       15.9994           0
     40844 TIP3     5509     TIP3     H1       HT       0.417000       1.00800           0
     40845 TIP3     5509     TIP3     H2       HT       0.417000       1.00800           0
     40846 TIP3     5510     TIP3     OH2      OT      -0.834000       15.9994           0
     40847 TIP3     5510     TIP3     H1       HT       0.417000       1.00800           0
     40848 TIP3     5510     TIP3     H2       HT       0.417000       1.00800           0
     40849 TIP3     5511     TIP3     OH2      OT      -0.834000       15.9994           0
     40850 TIP3     5511     TIP3     H1       HT       0.417000       1.00800           0
     40851 TIP3     5511     TIP3     H2       HT       0.417000       1.00800           0
     40852 TIP3     5512     TIP3     OH2      OT      -0.834000       15.9994           0
     40853 TIP3     5512     TIP3     H1       HT       0.417000       1.00800           0
     40854 TIP3     5512     TIP3     H2       HT       0.417000       1.00800           0
     40855 TIP3     5513     TIP3     OH2      OT      -0.834000       15.9994           0
     40856 TIP3     5513     TIP3     H1       HT       0.417000       1.00800           0
     40857 TIP3     5513     TIP3     H2       HT       0.417000       1.00800           0
     40858 TIP3     5514     TIP3     OH2      OT      -0.834000       15.9994           0
     40859 TIP3     5514     TIP3     H1       HT       0.417000       1.00800           0
     40860 TIP3     5514     TIP3     H2       HT       0.417000       1.00800           0
     40861 TIP3     5515     TIP3     OH2      OT      -0.834000       15.9994           0
     40862 TIP3     5515     TIP3     H1       HT       0.417000       1.00800           0
     40863 TIP3     5515     TIP3     H2       HT       0.417000       1.00800           0
     40864 TIP3     5516     TIP3     OH2      OT      -0.834000       15.9994           0
     40865 TIP3     5516     TIP3     H1       HT       0.417000       1.00800           0
     40866 TIP3     5516     TIP3     H2       HT       0.417000       1.00800           0
     40867 TIP3     5517     TIP3     OH2      OT      -0.834000       15.9994           0
     40868 TIP3     5517     TIP3     H1       HT       0.417000       1.00800           0
     40869 TIP3     5517     TIP3     H2       HT       0.417000       1.00800           0
     40870 TIP3     5518     TIP3     OH2      OT      -0.834000       15.9994           0
     40871 TIP3     5518     TIP3     H1       HT       0.417000       1.00800           0
     40872 TIP3     5518     TIP3     H2       HT       0.417000       1.00800           0
     40873 TIP3     5519     TIP3     OH2      OT      -0.834000       15.9994           0
     40874 TIP3     5519     TIP3     H1       HT       0.417000       1.00800           0
     40875 TIP3     5519     TIP3     H2       HT       0.417000       1.00800           0
     40876 TIP3     5520     TIP3     OH2      OT      -0.834000       15.9994           0
     40877 TIP3     5520     TIP3     H1       HT       0.417000       1.00800           0
     40878 TIP3     5520     TIP3     H2       HT       0.417000       1.00800           0
     40879 TIP3     5521     TIP3     OH2      OT      -0.834000       15.9994           0
     40880 TIP3     5521     TIP3     H1       HT       0.417000       1.00800           0
     40881 TIP3     5521     TIP3     H2       HT       0.417000       1.00800           0
     40882 TIP3     5522     TIP3     OH2      OT      -0.834000       15.9994           0
     40883 TIP3     5522     TIP3     H1       HT       0.417000       1.00800           0
     40884 TIP3     5522     TIP3     H2       HT       0.417000       1.00800           0
     40885 TIP3     5523     TIP3     OH2      OT      -0.834000       15.9994           0
     40886 TIP3     5523     TIP3     H1       HT       0.417000       1.00800           0
     40887 TIP3     5523     TIP3     H2       HT       0.417000       1.00800           0
     40888 TIP3     5524     TIP3     OH2      OT      -0.834000       15.9994           0
     40889 TIP3     5524     TIP3     H1       HT       0.417000       1.00800           0
     40890 TIP3     5524     TIP3     H2       HT       0.417000       1.00800           0
     40891 TIP3     5525     TIP3     OH2      OT      -0.834000       15.9994           0
     40892 TIP3     5525     TIP3     H1       HT       0.417000       1.00800           0
     40893 TIP3     5525     TIP3     H2       HT       0.417000       1.00800           0
     40894 TIP3     5526     TIP3     OH2      OT      -0.834000       15.9994           0
     40895 TIP3     5526     TIP3     H1       HT       0.417000       1.00800           0
     40896 TIP3     5526     TIP3     H2       HT       0.417000       1.00800           0
     40897 TIP3     5527     TIP3     OH2      OT      -0.834000       15.9994           0
     40898 TIP3     5527     TIP3     H1       HT       0.417000       1.00800           0
     40899 TIP3     5527     TIP3     H2       HT       0.417000       1.00800           0
     40900 TIP3     5528     TIP3     OH2      OT      -0.834000       15.9994           0
     40901 TIP3     5528     TIP3     H1       HT       0.417000       1.00800           0
     40902 TIP3     5528     TIP3     H2       HT       0.417000       1.00800           0
     40903 TIP3     5529     TIP3     OH2      OT      -0.834000       15.9994           0
     40904 TIP3     5529     TIP3     H1       HT       0.417000       1.00800           0
     40905 TIP3     5529     TIP3     H2       HT       0.417000       1.00800           0
     40906 TIP3     5530     TIP3     OH2      OT      -0.834000       15.9994           0
     40907 TIP3     5530     TIP3     H1       HT       0.417000       1.00800           0
     40908 TIP3     5530     TIP3     H2       HT       0.417000       1.00800           0
     40909 TIP3     5531     TIP3     OH2      OT      -0.834000       15.9994           0
     40910 TIP3     5531     TIP3     H1       HT       0.417000       1.00800           0
     40911 TIP3     5531     TIP3     H2       HT       0.417000       1.00800           0
     40912 TIP3     5532     TIP3     OH2      OT      -0.834000       15.9994           0
     40913 TIP3     5532     TIP3     H1       HT       0.417000       1.00800           0
     40914 TIP3     5532     TIP3     H2       HT       0.417000       1.00800           0
     40915 TIP3     5533     TIP3     OH2      OT      -0.834000       15.9994           0
     40916 TIP3     5533     TIP3     H1       HT       0.417000       1.00800           0
     40917 TIP3     5533     TIP3     H2       HT       0.417000       1.00800           0
     40918 TIP3     5534     TIP3     OH2      OT      -0.834000       15.9994           0
     40919 TIP3     5534     TIP3     H1       HT       0.417000       1.00800           0
     40920 TIP3     5534     TIP3     H2       HT       0.417000       1.00800           0
     40921 TIP3     5535     TIP3     OH2      OT      -0.834000       15.9994           0
     40922 TIP3     5535     TIP3     H1       HT       0.417000       1.00800           0
     40923 TIP3     5535     TIP3     H2       HT       0.417000       1.00800           0
     40924 TIP3     5536     TIP3     OH2      OT      -0.834000       15.9994           0
     40925 TIP3     5536     TIP3     H1       HT       0.417000       1.00800           0
     40926 TIP3     5536     TIP3     H2       HT       0.417000       1.00800           0
     40927 TIP3     5537     TIP3     OH2      OT      -0.834000       15.9994           0
     40928 TIP3     5537     TIP3     H1       HT       0.417000       1.00800           0
     40929 TIP3     5537     TIP3     H2       HT       0.417000       1.00800           0
     40930 TIP3     5538     TIP3     OH2      OT      -0.834000       15.9994           0
     40931 TIP3     5538     TIP3     H1       HT       0.417000       1.00800           0
     40932 TIP3     5538     TIP3     H2       HT       0.417000       1.00800           0
     40933 TIP3     5539     TIP3     OH2      OT      -0.834000       15.9994           0
     40934 TIP3     5539     TIP3     H1       HT       0.417000       1.00800           0
     40935 TIP3     5539     TIP3     H2       HT       0.417000       1.00800           0
     40936 TIP3     5540     TIP3     OH2      OT      -0.834000       15.9994           0
     40937 TIP3     5540     TIP3     H1       HT       0.417000       1.00800           0
     40938 TIP3     5540     TIP3     H2       HT       0.417000       1.00800           0
     40939 TIP3     5541     TIP3     OH2      OT      -0.834000       15.9994           0
     40940 TIP3     5541     TIP3     H1       HT       0.417000       1.00800           0
     40941 TIP3     5541     TIP3     H2       HT       0.417000       1.00800           0
     40942 TIP3     5542     TIP3     OH2      OT      -0.834000       15.9994           0
     40943 TIP3     5542     TIP3     H1       HT       0.417000       1.00800           0
     40944 TIP3     5542     TIP3     H2       HT       0.417000       1.00800           0
     40945 TIP3     5543     TIP3     OH2      OT      -0.834000       15.9994           0
     40946 TIP3     5543     TIP3     H1       HT       0.417000       1.00800           0
     40947 TIP3     5543     TIP3     H2       HT       0.417000       1.00800           0
     40948 TIP3     5544     TIP3     OH2      OT      -0.834000       15.9994           0
     40949 TIP3     5544     TIP3     H1       HT       0.417000       1.00800           0
     40950 TIP3     5544     TIP3     H2       HT       0.417000       1.00800           0
     40951 TIP3     5545     TIP3     OH2      OT      -0.834000       15.9994           0
     40952 TIP3     5545     TIP3     H1       HT       0.417000       1.00800           0
     40953 TIP3     5545     TIP3     H2       HT       0.417000       1.00800           0
     40954 TIP3     5546     TIP3     OH2      OT      -0.834000       15.9994           0
     40955 TIP3     5546     TIP3     H1       HT       0.417000       1.00800           0
     40956 TIP3     5546     TIP3     H2       HT       0.417000       1.00800           0
     40957 TIP3     5547     TIP3     OH2      OT      -0.834000       15.9994           0
     40958 TIP3     5547     TIP3     H1       HT       0.417000       1.00800           0
     40959 TIP3     5547     TIP3     H2       HT       0.417000       1.00800           0
     40960 TIP3     5548     TIP3     OH2      OT      -0.834000       15.9994           0
     40961 TIP3     5548     TIP3     H1       HT       0.417000       1.00800           0
     40962 TIP3     5548     TIP3     H2       HT       0.417000       1.00800           0
     40963 TIP3     5549     TIP3     OH2      OT      -0.834000       15.9994           0
     40964 TIP3     5549     TIP3     H1       HT       0.417000       1.00800           0
     40965 TIP3     5549     TIP3     H2       HT       0.417000       1.00800           0
     40966 TIP3     5550     TIP3     OH2      OT      -0.834000       15.9994           0
     40967 TIP3     5550     TIP3     H1       HT       0.417000       1.00800           0
     40968 TIP3     5550     TIP3     H2       HT       0.417000       1.00800           0
     40969 TIP3     5551     TIP3     OH2      OT      -0.834000       15.9994           0
     40970 TIP3     5551     TIP3     H1       HT       0.417000       1.00800           0
     40971 TIP3     5551     TIP3     H2       HT       0.417000       1.00800           0
     40972 TIP3     5552     TIP3     OH2      OT      -0.834000       15.9994           0
     40973 TIP3     5552     TIP3     H1       HT       0.417000       1.00800           0
     40974 TIP3     5552     TIP3     H2       HT       0.417000       1.00800           0
     40975 TIP3     5553     TIP3     OH2      OT      -0.834000       15.9994           0
     40976 TIP3     5553     TIP3     H1       HT       0.417000       1.00800           0
     40977 TIP3     5553     TIP3     H2       HT       0.417000       1.00800           0
     40978 TIP3     5554     TIP3     OH2      OT      -0.834000       15.9994           0
     40979 TIP3     5554     TIP3     H1       HT       0.417000       1.00800           0
     40980 TIP3     5554     TIP3     H2       HT       0.417000       1.00800           0
     40981 TIP3     5555     TIP3     OH2      OT      -0.834000       15.9994           0
     40982 TIP3     5555     TIP3     H1       HT       0.417000       1.00800           0
     40983 TIP3     5555     TIP3     H2       HT       0.417000       1.00800           0
     40984 TIP3     5556     TIP3     OH2      OT      -0.834000       15.9994           0
     40985 TIP3     5556     TIP3     H1       HT       0.417000       1.00800           0
     40986 TIP3     5556     TIP3     H2       HT       0.417000       1.00800           0
     40987 TIP3     5557     TIP3     OH2      OT      -0.834000       15.9994           0
     40988 TIP3     5557     TIP3     H1       HT       0.417000       1.00800           0
     40989 TIP3     5557     TIP3     H2       HT       0.417000       1.00800           0
     40990 TIP3     5558     TIP3     OH2      OT      -0.834000       15.9994           0
     40991 TIP3     5558     TIP3     H1       HT       0.417000       1.00800           0
     40992 TIP3     5558     TIP3     H2       HT       0.417000       1.00800           0
     40993 TIP3     5559     TIP3     OH2      OT      -0.834000       15.9994           0
     40994 TIP3     5559     TIP3     H1       HT       0.417000       1.00800           0
     40995 TIP3     5559     TIP3     H2       HT       0.417000       1.00800           0
     40996 TIP3     5560     TIP3     OH2      OT      -0.834000       15.9994           0
     40997 TIP3     5560     TIP3     H1       HT       0.417000       1.00800           0
     40998 TIP3     5560     TIP3     H2       HT       0.417000       1.00800           0
     40999 TIP3     5561     TIP3     OH2      OT      -0.834000       15.9994           0
     41000 TIP3     5561     TIP3     H1       HT       0.417000       1.00800           0
     41001 TIP3     5561     TIP3     H2       HT       0.417000       1.00800           0
     41002 TIP3     5562     TIP3     OH2      OT      -0.834000       15.9994           0
     41003 TIP3     5562     TIP3     H1       HT       0.417000       1.00800           0
     41004 TIP3     5562     TIP3     H2       HT       0.417000       1.00800           0
     41005 TIP3     5563     TIP3     OH2      OT      -0.834000       15.9994           0
     41006 TIP3     5563     TIP3     H1       HT       0.417000       1.00800           0
     41007 TIP3     5563     TIP3     H2       HT       0.417000       1.00800           0
     41008 TIP3     5564     TIP3     OH2      OT      -0.834000       15.9994           0
     41009 TIP3     5564     TIP3     H1       HT       0.417000       1.00800           0
     41010 TIP3     5564     TIP3     H2       HT       0.417000       1.00800           0
     41011 TIP3     5565     TIP3     OH2      OT      -0.834000       15.9994           0
     41012 TIP3     5565     TIP3     H1       HT       0.417000       1.00800           0
     41013 TIP3     5565     TIP3     H2       HT       0.417000       1.00800           0
     41014 TIP3     5566     TIP3     OH2      OT      -0.834000       15.9994           0
     41015 TIP3     5566     TIP3     H1       HT       0.417000       1.00800           0
     41016 TIP3     5566     TIP3     H2       HT       0.417000       1.00800           0
     41017 TIP3     5567     TIP3     OH2      OT      -0.834000       15.9994           0
     41018 TIP3     5567     TIP3     H1       HT       0.417000       1.00800           0
     41019 TIP3     5567     TIP3     H2       HT       0.417000       1.00800           0
     41020 TIP3     5568     TIP3     OH2      OT      -0.834000       15.9994           0
     41021 TIP3     5568     TIP3     H1       HT       0.417000       1.00800           0
     41022 TIP3     5568     TIP3     H2       HT       0.417000       1.00800           0
     41023 TIP3     5569     TIP3     OH2      OT      -0.834000       15.9994           0
     41024 TIP3     5569     TIP3     H1       HT       0.417000       1.00800           0
     41025 TIP3     5569     TIP3     H2       HT       0.417000       1.00800           0
     41026 TIP3     5570     TIP3     OH2      OT      -0.834000       15.9994           0
     41027 TIP3     5570     TIP3     H1       HT       0.417000       1.00800           0
     41028 TIP3     5570     TIP3     H2       HT       0.417000       1.00800           0
     41029 TIP3     5571     TIP3     OH2      OT      -0.834000       15.9994           0
     41030 TIP3     5571     TIP3     H1       HT       0.417000       1.00800           0
     41031 TIP3     5571     TIP3     H2       HT       0.417000       1.00800           0
     41032 TIP3     5572     TIP3     OH2      OT      -0.834000       15.9994           0
     41033 TIP3     5572     TIP3     H1       HT       0.417000       1.00800           0
     41034 TIP3     5572     TIP3     H2       HT       0.417000       1.00800           0
     41035 TIP3     5573     TIP3     OH2      OT      -0.834000       15.9994           0
     41036 TIP3     5573     TIP3     H1       HT       0.417000       1.00800           0
     41037 TIP3     5573     TIP3     H2       HT       0.417000       1.00800           0
     41038 TIP3     5574     TIP3     OH2      OT      -0.834000       15.9994           0
     41039 TIP3     5574     TIP3     H1       HT       0.417000       1.00800           0
     41040 TIP3     5574     TIP3     H2       HT       0.417000       1.00800           0
     41041 TIP3     5575     TIP3     OH2      OT      -0.834000       15.9994           0
     41042 TIP3     5575     TIP3     H1       HT       0.417000       1.00800           0
     41043 TIP3     5575     TIP3     H2       HT       0.417000       1.00800           0
     41044 TIP3     5576     TIP3     OH2      OT      -0.834000       15.9994           0
     41045 TIP3     5576     TIP3     H1       HT       0.417000       1.00800           0
     41046 TIP3     5576     TIP3     H2       HT       0.417000       1.00800           0
     41047 TIP3     5577     TIP3     OH2      OT      -0.834000       15.9994           0
     41048 TIP3     5577     TIP3     H1       HT       0.417000       1.00800           0
     41049 TIP3     5577     TIP3     H2       HT       0.417000       1.00800           0
     41050 TIP3     5578     TIP3     OH2      OT      -0.834000       15.9994           0
     41051 TIP3     5578     TIP3     H1       HT       0.417000       1.00800           0
     41052 TIP3     5578     TIP3     H2       HT       0.417000       1.00800           0
     41053 TIP3     5579     TIP3     OH2      OT      -0.834000       15.9994           0
     41054 TIP3     5579     TIP3     H1       HT       0.417000       1.00800           0
     41055 TIP3     5579     TIP3     H2       HT       0.417000       1.00800           0
     41056 TIP3     5580     TIP3     OH2      OT      -0.834000       15.9994           0
     41057 TIP3     5580     TIP3     H1       HT       0.417000       1.00800           0
     41058 TIP3     5580     TIP3     H2       HT       0.417000       1.00800           0
     41059 TIP3     5581     TIP3     OH2      OT      -0.834000       15.9994           0
     41060 TIP3     5581     TIP3     H1       HT       0.417000       1.00800           0
     41061 TIP3     5581     TIP3     H2       HT       0.417000       1.00800           0
     41062 TIP3     5582     TIP3     OH2      OT      -0.834000       15.9994           0
     41063 TIP3     5582     TIP3     H1       HT       0.417000       1.00800           0
     41064 TIP3     5582     TIP3     H2       HT       0.417000       1.00800           0
     41065 TIP3     5583     TIP3     OH2      OT      -0.834000       15.9994           0
     41066 TIP3     5583     TIP3     H1       HT       0.417000       1.00800           0
     41067 TIP3     5583     TIP3     H2       HT       0.417000       1.00800           0
     41068 TIP3     5584     TIP3     OH2      OT      -0.834000       15.9994           0
     41069 TIP3     5584     TIP3     H1       HT       0.417000       1.00800           0
     41070 TIP3     5584     TIP3     H2       HT       0.417000       1.00800           0
     41071 TIP3     5585     TIP3     OH2      OT      -0.834000       15.9994           0
     41072 TIP3     5585     TIP3     H1       HT       0.417000       1.00800           0
     41073 TIP3     5585     TIP3     H2       HT       0.417000       1.00800           0
     41074 TIP3     5586     TIP3     OH2      OT      -0.834000       15.9994           0
     41075 TIP3     5586     TIP3     H1       HT       0.417000       1.00800           0
     41076 TIP3     5586     TIP3     H2       HT       0.417000       1.00800           0
     41077 TIP3     5587     TIP3     OH2      OT      -0.834000       15.9994           0
     41078 TIP3     5587     TIP3     H1       HT       0.417000       1.00800           0
     41079 TIP3     5587     TIP3     H2       HT       0.417000       1.00800           0
     41080 TIP3     5588     TIP3     OH2      OT      -0.834000       15.9994           0
     41081 TIP3     5588     TIP3     H1       HT       0.417000       1.00800           0
     41082 TIP3     5588     TIP3     H2       HT       0.417000       1.00800           0
     41083 TIP3     5589     TIP3     OH2      OT      -0.834000       15.9994           0
     41084 TIP3     5589     TIP3     H1       HT       0.417000       1.00800           0
     41085 TIP3     5589     TIP3     H2       HT       0.417000       1.00800           0
     41086 TIP3     5590     TIP3     OH2      OT      -0.834000       15.9994           0
     41087 TIP3     5590     TIP3     H1       HT       0.417000       1.00800           0
     41088 TIP3     5590     TIP3     H2       HT       0.417000       1.00800           0
     41089 TIP3     5591     TIP3     OH2      OT      -0.834000       15.9994           0
     41090 TIP3     5591     TIP3     H1       HT       0.417000       1.00800           0
     41091 TIP3     5591     TIP3     H2       HT       0.417000       1.00800           0
     41092 TIP3     5592     TIP3     OH2      OT      -0.834000       15.9994           0
     41093 TIP3     5592     TIP3     H1       HT       0.417000       1.00800           0
     41094 TIP3     5592     TIP3     H2       HT       0.417000       1.00800           0
     41095 TIP3     5593     TIP3     OH2      OT      -0.834000       15.9994           0
     41096 TIP3     5593     TIP3     H1       HT       0.417000       1.00800           0
     41097 TIP3     5593     TIP3     H2       HT       0.417000       1.00800           0
     41098 TIP3     5594     TIP3     OH2      OT      -0.834000       15.9994           0
     41099 TIP3     5594     TIP3     H1       HT       0.417000       1.00800           0
     41100 TIP3     5594     TIP3     H2       HT       0.417000       1.00800           0
     41101 TIP3     5595     TIP3     OH2      OT      -0.834000       15.9994           0
     41102 TIP3     5595     TIP3     H1       HT       0.417000       1.00800           0
     41103 TIP3     5595     TIP3     H2       HT       0.417000       1.00800           0
     41104 TIP3     5596     TIP3     OH2      OT      -0.834000       15.9994           0
     41105 TIP3     5596     TIP3     H1       HT       0.417000       1.00800           0
     41106 TIP3     5596     TIP3     H2       HT       0.417000       1.00800           0
     41107 TIP3     5597     TIP3     OH2      OT      -0.834000       15.9994           0
     41108 TIP3     5597     TIP3     H1       HT       0.417000       1.00800           0
     41109 TIP3     5597     TIP3     H2       HT       0.417000       1.00800           0
     41110 TIP3     5598     TIP3     OH2      OT      -0.834000       15.9994           0
     41111 TIP3     5598     TIP3     H1       HT       0.417000       1.00800           0
     41112 TIP3     5598     TIP3     H2       HT       0.417000       1.00800           0
     41113 TIP3     5599     TIP3     OH2      OT      -0.834000       15.9994           0
     41114 TIP3     5599     TIP3     H1       HT       0.417000       1.00800           0
     41115 TIP3     5599     TIP3     H2       HT       0.417000       1.00800           0
     41116 TIP3     5600     TIP3     OH2      OT      -0.834000       15.9994           0
     41117 TIP3     5600     TIP3     H1       HT       0.417000       1.00800           0
     41118 TIP3     5600     TIP3     H2       HT       0.417000       1.00800           0
     41119 TIP3     5601     TIP3     OH2      OT      -0.834000       15.9994           0
     41120 TIP3     5601     TIP3     H1       HT       0.417000       1.00800           0
     41121 TIP3     5601     TIP3     H2       HT       0.417000       1.00800           0
     41122 TIP3     5602     TIP3     OH2      OT      -0.834000       15.9994           0
     41123 TIP3     5602     TIP3     H1       HT       0.417000       1.00800           0
     41124 TIP3     5602     TIP3     H2       HT       0.417000       1.00800           0
     41125 TIP3     5603     TIP3     OH2      OT      -0.834000       15.9994           0
     41126 TIP3     5603     TIP3     H1       HT       0.417000       1.00800           0
     41127 TIP3     5603     TIP3     H2       HT       0.417000       1.00800           0
     41128 TIP3     5604     TIP3     OH2      OT      -0.834000       15.9994           0
     41129 TIP3     5604     TIP3     H1       HT       0.417000       1.00800           0
     41130 TIP3     5604     TIP3     H2       HT       0.417000       1.00800           0
     41131 TIP3     5605     TIP3     OH2      OT      -0.834000       15.9994           0
     41132 TIP3     5605     TIP3     H1       HT       0.417000       1.00800           0
     41133 TIP3     5605     TIP3     H2       HT       0.417000       1.00800           0
     41134 TIP3     5606     TIP3     OH2      OT      -0.834000       15.9994           0
     41135 TIP3     5606     TIP3     H1       HT       0.417000       1.00800           0
     41136 TIP3     5606     TIP3     H2       HT       0.417000       1.00800           0
     41137 TIP3     5607     TIP3     OH2      OT      -0.834000       15.9994           0
     41138 TIP3     5607     TIP3     H1       HT       0.417000       1.00800           0
     41139 TIP3     5607     TIP3     H2       HT       0.417000       1.00800           0
     41140 TIP3     5608     TIP3     OH2      OT      -0.834000       15.9994           0
     41141 TIP3     5608     TIP3     H1       HT       0.417000       1.00800           0
     41142 TIP3     5608     TIP3     H2       HT       0.417000       1.00800           0
     41143 TIP3     5609     TIP3     OH2      OT      -0.834000       15.9994           0
     41144 TIP3     5609     TIP3     H1       HT       0.417000       1.00800           0
     41145 TIP3     5609     TIP3     H2       HT       0.417000       1.00800           0
     41146 TIP3     5610     TIP3     OH2      OT      -0.834000       15.9994           0
     41147 TIP3     5610     TIP3     H1       HT       0.417000       1.00800           0
     41148 TIP3     5610     TIP3     H2       HT       0.417000       1.00800           0
     41149 TIP3     5611     TIP3     OH2      OT      -0.834000       15.9994           0
     41150 TIP3     5611     TIP3     H1       HT       0.417000       1.00800           0
     41151 TIP3     5611     TIP3     H2       HT       0.417000       1.00800           0
     41152 TIP3     5612     TIP3     OH2      OT      -0.834000       15.9994           0
     41153 TIP3     5612     TIP3     H1       HT       0.417000       1.00800           0
     41154 TIP3     5612     TIP3     H2       HT       0.417000       1.00800           0
     41155 TIP3     5613     TIP3     OH2      OT      -0.834000       15.9994           0
     41156 TIP3     5613     TIP3     H1       HT       0.417000       1.00800           0
     41157 TIP3     5613     TIP3     H2       HT       0.417000       1.00800           0
     41158 TIP3     5614     TIP3     OH2      OT      -0.834000       15.9994           0
     41159 TIP3     5614     TIP3     H1       HT       0.417000       1.00800           0
     41160 TIP3     5614     TIP3     H2       HT       0.417000       1.00800           0
     41161 TIP3     5615     TIP3     OH2      OT      -0.834000       15.9994           0
     41162 TIP3     5615     TIP3     H1       HT       0.417000       1.00800           0
     41163 TIP3     5615     TIP3     H2       HT       0.417000       1.00800           0
     41164 TIP3     5616     TIP3     OH2      OT      -0.834000       15.9994           0
     41165 TIP3     5616     TIP3     H1       HT       0.417000       1.00800           0
     41166 TIP3     5616     TIP3     H2       HT       0.417000       1.00800           0
     41167 TIP3     5617     TIP3     OH2      OT      -0.834000       15.9994           0
     41168 TIP3     5617     TIP3     H1       HT       0.417000       1.00800           0
     41169 TIP3     5617     TIP3     H2       HT       0.417000       1.00800           0
     41170 TIP3     5618     TIP3     OH2      OT      -0.834000       15.9994           0
     41171 TIP3     5618     TIP3     H1       HT       0.417000       1.00800           0
     41172 TIP3     5618     TIP3     H2       HT       0.417000       1.00800           0
     41173 TIP3     5619     TIP3     OH2      OT      -0.834000       15.9994           0
     41174 TIP3     5619     TIP3     H1       HT       0.417000       1.00800           0
     41175 TIP3     5619     TIP3     H2       HT       0.417000       1.00800           0
     41176 TIP3     5620     TIP3     OH2      OT      -0.834000       15.9994           0
     41177 TIP3     5620     TIP3     H1       HT       0.417000       1.00800           0
     41178 TIP3     5620     TIP3     H2       HT       0.417000       1.00800           0
     41179 TIP3     5621     TIP3     OH2      OT      -0.834000       15.9994           0
     41180 TIP3     5621     TIP3     H1       HT       0.417000       1.00800           0
     41181 TIP3     5621     TIP3     H2       HT       0.417000       1.00800           0
     41182 TIP3     5622     TIP3     OH2      OT      -0.834000       15.9994           0
     41183 TIP3     5622     TIP3     H1       HT       0.417000       1.00800           0
     41184 TIP3     5622     TIP3     H2       HT       0.417000       1.00800           0
     41185 TIP3     5623     TIP3     OH2      OT      -0.834000       15.9994           0
     41186 TIP3     5623     TIP3     H1       HT       0.417000       1.00800           0
     41187 TIP3     5623     TIP3     H2       HT       0.417000       1.00800           0
     41188 TIP3     5624     TIP3     OH2      OT      -0.834000       15.9994           0
     41189 TIP3     5624     TIP3     H1       HT       0.417000       1.00800           0
     41190 TIP3     5624     TIP3     H2       HT       0.417000       1.00800           0
     41191 TIP3     5625     TIP3     OH2      OT      -0.834000       15.9994           0
     41192 TIP3     5625     TIP3     H1       HT       0.417000       1.00800           0
     41193 TIP3     5625     TIP3     H2       HT       0.417000       1.00800           0
     41194 TIP3     5626     TIP3     OH2      OT      -0.834000       15.9994           0
     41195 TIP3     5626     TIP3     H1       HT       0.417000       1.00800           0
     41196 TIP3     5626     TIP3     H2       HT       0.417000       1.00800           0
     41197 TIP3     5627     TIP3     OH2      OT      -0.834000       15.9994           0
     41198 TIP3     5627     TIP3     H1       HT       0.417000       1.00800           0
     41199 TIP3     5627     TIP3     H2       HT       0.417000       1.00800           0
     41200 TIP3     5628     TIP3     OH2      OT      -0.834000       15.9994           0
     41201 TIP3     5628     TIP3     H1       HT       0.417000       1.00800           0
     41202 TIP3     5628     TIP3     H2       HT       0.417000       1.00800           0
     41203 TIP3     5629     TIP3     OH2      OT      -0.834000       15.9994           0
     41204 TIP3     5629     TIP3     H1       HT       0.417000       1.00800           0
     41205 TIP3     5629     TIP3     H2       HT       0.417000       1.00800           0
     41206 TIP3     5630     TIP3     OH2      OT      -0.834000       15.9994           0
     41207 TIP3     5630     TIP3     H1       HT       0.417000       1.00800           0
     41208 TIP3     5630     TIP3     H2       HT       0.417000       1.00800           0
     41209 TIP3     5631     TIP3     OH2      OT      -0.834000       15.9994           0
     41210 TIP3     5631     TIP3     H1       HT       0.417000       1.00800           0
     41211 TIP3     5631     TIP3     H2       HT       0.417000       1.00800           0
     41212 TIP3     5632     TIP3     OH2      OT      -0.834000       15.9994           0
     41213 TIP3     5632     TIP3     H1       HT       0.417000       1.00800           0
     41214 TIP3     5632     TIP3     H2       HT       0.417000       1.00800           0
     41215 TIP3     5633     TIP3     OH2      OT      -0.834000       15.9994           0
     41216 TIP3     5633     TIP3     H1       HT       0.417000       1.00800           0
     41217 TIP3     5633     TIP3     H2       HT       0.417000       1.00800           0
     41218 TIP3     5634     TIP3     OH2      OT      -0.834000       15.9994           0
     41219 TIP3     5634     TIP3     H1       HT       0.417000       1.00800           0
     41220 TIP3     5634     TIP3     H2       HT       0.417000       1.00800           0
     41221 TIP3     5635     TIP3     OH2      OT      -0.834000       15.9994           0
     41222 TIP3     5635     TIP3     H1       HT       0.417000       1.00800           0
     41223 TIP3     5635     TIP3     H2       HT       0.417000       1.00800           0
     41224 TIP3     5636     TIP3     OH2      OT      -0.834000       15.9994           0
     41225 TIP3     5636     TIP3     H1       HT       0.417000       1.00800           0
     41226 TIP3     5636     TIP3     H2       HT       0.417000       1.00800           0
     41227 TIP3     5637     TIP3     OH2      OT      -0.834000       15.9994           0
     41228 TIP3     5637     TIP3     H1       HT       0.417000       1.00800           0
     41229 TIP3     5637     TIP3     H2       HT       0.417000       1.00800           0
     41230 TIP3     5638     TIP3     OH2      OT      -0.834000       15.9994           0
     41231 TIP3     5638     TIP3     H1       HT       0.417000       1.00800           0
     41232 TIP3     5638     TIP3     H2       HT       0.417000       1.00800           0
     41233 TIP3     5639     TIP3     OH2      OT      -0.834000       15.9994           0
     41234 TIP3     5639     TIP3     H1       HT       0.417000       1.00800           0
     41235 TIP3     5639     TIP3     H2       HT       0.417000       1.00800           0
     41236 TIP3     5640     TIP3     OH2      OT      -0.834000       15.9994           0
     41237 TIP3     5640     TIP3     H1       HT       0.417000       1.00800           0
     41238 TIP3     5640     TIP3     H2       HT       0.417000       1.00800           0
     41239 TIP3     5641     TIP3     OH2      OT      -0.834000       15.9994           0
     41240 TIP3     5641     TIP3     H1       HT       0.417000       1.00800           0
     41241 TIP3     5641     TIP3     H2       HT       0.417000       1.00800           0
     41242 TIP3     5642     TIP3     OH2      OT      -0.834000       15.9994           0
     41243 TIP3     5642     TIP3     H1       HT       0.417000       1.00800           0
     41244 TIP3     5642     TIP3     H2       HT       0.417000       1.00800           0
     41245 TIP3     5643     TIP3     OH2      OT      -0.834000       15.9994           0
     41246 TIP3     5643     TIP3     H1       HT       0.417000       1.00800           0
     41247 TIP3     5643     TIP3     H2       HT       0.417000       1.00800           0
     41248 TIP3     5644     TIP3     OH2      OT      -0.834000       15.9994           0
     41249 TIP3     5644     TIP3     H1       HT       0.417000       1.00800           0
     41250 TIP3     5644     TIP3     H2       HT       0.417000       1.00800           0
     41251 TIP3     5645     TIP3     OH2      OT      -0.834000       15.9994           0
     41252 TIP3     5645     TIP3     H1       HT       0.417000       1.00800           0
     41253 TIP3     5645     TIP3     H2       HT       0.417000       1.00800           0
     41254 TIP3     5646     TIP3     OH2      OT      -0.834000       15.9994           0
     41255 TIP3     5646     TIP3     H1       HT       0.417000       1.00800           0
     41256 TIP3     5646     TIP3     H2       HT       0.417000       1.00800           0
     41257 TIP3     5647     TIP3     OH2      OT      -0.834000       15.9994           0
     41258 TIP3     5647     TIP3     H1       HT       0.417000       1.00800           0
     41259 TIP3     5647     TIP3     H2       HT       0.417000       1.00800           0
     41260 TIP3     5648     TIP3     OH2      OT      -0.834000       15.9994           0
     41261 TIP3     5648     TIP3     H1       HT       0.417000       1.00800           0
     41262 TIP3     5648     TIP3     H2       HT       0.417000       1.00800           0
     41263 TIP3     5649     TIP3     OH2      OT      -0.834000       15.9994           0
     41264 TIP3     5649     TIP3     H1       HT       0.417000       1.00800           0
     41265 TIP3     5649     TIP3     H2       HT       0.417000       1.00800           0
     41266 TIP3     5650     TIP3     OH2      OT      -0.834000       15.9994           0
     41267 TIP3     5650     TIP3     H1       HT       0.417000       1.00800           0
     41268 TIP3     5650     TIP3     H2       HT       0.417000       1.00800           0
     41269 TIP3     5651     TIP3     OH2      OT      -0.834000       15.9994           0
     41270 TIP3     5651     TIP3     H1       HT       0.417000       1.00800           0
     41271 TIP3     5651     TIP3     H2       HT       0.417000       1.00800           0
     41272 TIP3     5652     TIP3     OH2      OT      -0.834000       15.9994           0
     41273 TIP3     5652     TIP3     H1       HT       0.417000       1.00800           0
     41274 TIP3     5652     TIP3     H2       HT       0.417000       1.00800           0
     41275 TIP3     5653     TIP3     OH2      OT      -0.834000       15.9994           0
     41276 TIP3     5653     TIP3     H1       HT       0.417000       1.00800           0
     41277 TIP3     5653     TIP3     H2       HT       0.417000       1.00800           0
     41278 TIP3     5654     TIP3     OH2      OT      -0.834000       15.9994           0
     41279 TIP3     5654     TIP3     H1       HT       0.417000       1.00800           0
     41280 TIP3     5654     TIP3     H2       HT       0.417000       1.00800           0
     41281 TIP3     5655     TIP3     OH2      OT      -0.834000       15.9994           0
     41282 TIP3     5655     TIP3     H1       HT       0.417000       1.00800           0
     41283 TIP3     5655     TIP3     H2       HT       0.417000       1.00800           0
     41284 TIP3     5656     TIP3     OH2      OT      -0.834000       15.9994           0
     41285 TIP3     5656     TIP3     H1       HT       0.417000       1.00800           0
     41286 TIP3     5656     TIP3     H2       HT       0.417000       1.00800           0
     41287 TIP3     5657     TIP3     OH2      OT      -0.834000       15.9994           0
     41288 TIP3     5657     TIP3     H1       HT       0.417000       1.00800           0
     41289 TIP3     5657     TIP3     H2       HT       0.417000       1.00800           0
     41290 TIP3     5658     TIP3     OH2      OT      -0.834000       15.9994           0
     41291 TIP3     5658     TIP3     H1       HT       0.417000       1.00800           0
     41292 TIP3     5658     TIP3     H2       HT       0.417000       1.00800           0
     41293 TIP3     5659     TIP3     OH2      OT      -0.834000       15.9994           0
     41294 TIP3     5659     TIP3     H1       HT       0.417000       1.00800           0
     41295 TIP3     5659     TIP3     H2       HT       0.417000       1.00800           0
     41296 TIP3     5660     TIP3     OH2      OT      -0.834000       15.9994           0
     41297 TIP3     5660     TIP3     H1       HT       0.417000       1.00800           0
     41298 TIP3     5660     TIP3     H2       HT       0.417000       1.00800           0
     41299 TIP3     5661     TIP3     OH2      OT      -0.834000       15.9994           0
     41300 TIP3     5661     TIP3     H1       HT       0.417000       1.00800           0
     41301 TIP3     5661     TIP3     H2       HT       0.417000       1.00800           0
     41302 TIP3     5662     TIP3     OH2      OT      -0.834000       15.9994           0
     41303 TIP3     5662     TIP3     H1       HT       0.417000       1.00800           0
     41304 TIP3     5662     TIP3     H2       HT       0.417000       1.00800           0
     41305 TIP3     5663     TIP3     OH2      OT      -0.834000       15.9994           0
     41306 TIP3     5663     TIP3     H1       HT       0.417000       1.00800           0
     41307 TIP3     5663     TIP3     H2       HT       0.417000       1.00800           0
     41308 TIP3     5664     TIP3     OH2      OT      -0.834000       15.9994           0
     41309 TIP3     5664     TIP3     H1       HT       0.417000       1.00800           0
     41310 TIP3     5664     TIP3     H2       HT       0.417000       1.00800           0
     41311 TIP3     5665     TIP3     OH2      OT      -0.834000       15.9994           0
     41312 TIP3     5665     TIP3     H1       HT       0.417000       1.00800           0
     41313 TIP3     5665     TIP3     H2       HT       0.417000       1.00800           0
     41314 TIP3     5666     TIP3     OH2      OT      -0.834000       15.9994           0
     41315 TIP3     5666     TIP3     H1       HT       0.417000       1.00800           0
     41316 TIP3     5666     TIP3     H2       HT       0.417000       1.00800           0
     41317 TIP3     5667     TIP3     OH2      OT      -0.834000       15.9994           0
     41318 TIP3     5667     TIP3     H1       HT       0.417000       1.00800           0
     41319 TIP3     5667     TIP3     H2       HT       0.417000       1.00800           0
     41320 TIP3     5668     TIP3     OH2      OT      -0.834000       15.9994           0
     41321 TIP3     5668     TIP3     H1       HT       0.417000       1.00800           0
     41322 TIP3     5668     TIP3     H2       HT       0.417000       1.00800           0
     41323 TIP3     5669     TIP3     OH2      OT      -0.834000       15.9994           0
     41324 TIP3     5669     TIP3     H1       HT       0.417000       1.00800           0
     41325 TIP3     5669     TIP3     H2       HT       0.417000       1.00800           0
     41326 TIP3     5670     TIP3     OH2      OT      -0.834000       15.9994           0
     41327 TIP3     5670     TIP3     H1       HT       0.417000       1.00800           0
     41328 TIP3     5670     TIP3     H2       HT       0.417000       1.00800           0
     41329 TIP3     5671     TIP3     OH2      OT      -0.834000       15.9994           0
     41330 TIP3     5671     TIP3     H1       HT       0.417000       1.00800           0
     41331 TIP3     5671     TIP3     H2       HT       0.417000       1.00800           0
     41332 TIP3     5672     TIP3     OH2      OT      -0.834000       15.9994           0
     41333 TIP3     5672     TIP3     H1       HT       0.417000       1.00800           0
     41334 TIP3     5672     TIP3     H2       HT       0.417000       1.00800           0
     41335 TIP3     5673     TIP3     OH2      OT      -0.834000       15.9994           0
     41336 TIP3     5673     TIP3     H1       HT       0.417000       1.00800           0
     41337 TIP3     5673     TIP3     H2       HT       0.417000       1.00800           0
     41338 TIP3     5674     TIP3     OH2      OT      -0.834000       15.9994           0
     41339 TIP3     5674     TIP3     H1       HT       0.417000       1.00800           0
     41340 TIP3     5674     TIP3     H2       HT       0.417000       1.00800           0
     41341 TIP3     5675     TIP3     OH2      OT      -0.834000       15.9994           0
     41342 TIP3     5675     TIP3     H1       HT       0.417000       1.00800           0
     41343 TIP3     5675     TIP3     H2       HT       0.417000       1.00800           0
     41344 TIP3     5676     TIP3     OH2      OT      -0.834000       15.9994           0
     41345 TIP3     5676     TIP3     H1       HT       0.417000       1.00800           0
     41346 TIP3     5676     TIP3     H2       HT       0.417000       1.00800           0
     41347 TIP3     5677     TIP3     OH2      OT      -0.834000       15.9994           0
     41348 TIP3     5677     TIP3     H1       HT       0.417000       1.00800           0
     41349 TIP3     5677     TIP3     H2       HT       0.417000       1.00800           0
     41350 TIP3     5678     TIP3     OH2      OT      -0.834000       15.9994           0
     41351 TIP3     5678     TIP3     H1       HT       0.417000       1.00800           0
     41352 TIP3     5678     TIP3     H2       HT       0.417000       1.00800           0
     41353 TIP3     5679     TIP3     OH2      OT      -0.834000       15.9994           0
     41354 TIP3     5679     TIP3     H1       HT       0.417000       1.00800           0
     41355 TIP3     5679     TIP3     H2       HT       0.417000       1.00800           0
     41356 TIP3     5680     TIP3     OH2      OT      -0.834000       15.9994           0
     41357 TIP3     5680     TIP3     H1       HT       0.417000       1.00800           0
     41358 TIP3     5680     TIP3     H2       HT       0.417000       1.00800           0
     41359 TIP3     5681     TIP3     OH2      OT      -0.834000       15.9994           0
     41360 TIP3     5681     TIP3     H1       HT       0.417000       1.00800           0
     41361 TIP3     5681     TIP3     H2       HT       0.417000       1.00800           0
     41362 TIP3     5682     TIP3     OH2      OT      -0.834000       15.9994           0
     41363 TIP3     5682     TIP3     H1       HT       0.417000       1.00800           0
     41364 TIP3     5682     TIP3     H2       HT       0.417000       1.00800           0
     41365 TIP3     5683     TIP3     OH2      OT      -0.834000       15.9994           0
     41366 TIP3     5683     TIP3     H1       HT       0.417000       1.00800           0
     41367 TIP3     5683     TIP3     H2       HT       0.417000       1.00800           0
     41368 TIP3     5684     TIP3     OH2      OT      -0.834000       15.9994           0
     41369 TIP3     5684     TIP3     H1       HT       0.417000       1.00800           0
     41370 TIP3     5684     TIP3     H2       HT       0.417000       1.00800           0
     41371 TIP3     5685     TIP3     OH2      OT      -0.834000       15.9994           0
     41372 TIP3     5685     TIP3     H1       HT       0.417000       1.00800           0
     41373 TIP3     5685     TIP3     H2       HT       0.417000       1.00800           0
     41374 TIP3     5686     TIP3     OH2      OT      -0.834000       15.9994           0
     41375 TIP3     5686     TIP3     H1       HT       0.417000       1.00800           0
     41376 TIP3     5686     TIP3     H2       HT       0.417000       1.00800           0
     41377 TIP3     5687     TIP3     OH2      OT      -0.834000       15.9994           0
     41378 TIP3     5687     TIP3     H1       HT       0.417000       1.00800           0
     41379 TIP3     5687     TIP3     H2       HT       0.417000       1.00800           0
     41380 TIP3     5688     TIP3     OH2      OT      -0.834000       15.9994           0
     41381 TIP3     5688     TIP3     H1       HT       0.417000       1.00800           0
     41382 TIP3     5688     TIP3     H2       HT       0.417000       1.00800           0
     41383 TIP3     5689     TIP3     OH2      OT      -0.834000       15.9994           0
     41384 TIP3     5689     TIP3     H1       HT       0.417000       1.00800           0
     41385 TIP3     5689     TIP3     H2       HT       0.417000       1.00800           0
     41386 TIP3     5690     TIP3     OH2      OT      -0.834000       15.9994           0
     41387 TIP3     5690     TIP3     H1       HT       0.417000       1.00800           0
     41388 TIP3     5690     TIP3     H2       HT       0.417000       1.00800           0
     41389 TIP3     5691     TIP3     OH2      OT      -0.834000       15.9994           0
     41390 TIP3     5691     TIP3     H1       HT       0.417000       1.00800           0
     41391 TIP3     5691     TIP3     H2       HT       0.417000       1.00800           0
     41392 TIP3     5692     TIP3     OH2      OT      -0.834000       15.9994           0
     41393 TIP3     5692     TIP3     H1       HT       0.417000       1.00800           0
     41394 TIP3     5692     TIP3     H2       HT       0.417000       1.00800           0
     41395 TIP3     5693     TIP3     OH2      OT      -0.834000       15.9994           0
     41396 TIP3     5693     TIP3     H1       HT       0.417000       1.00800           0
     41397 TIP3     5693     TIP3     H2       HT       0.417000       1.00800           0
     41398 TIP3     5694     TIP3     OH2      OT      -0.834000       15.9994           0
     41399 TIP3     5694     TIP3     H1       HT       0.417000       1.00800           0
     41400 TIP3     5694     TIP3     H2       HT       0.417000       1.00800           0
     41401 TIP3     5695     TIP3     OH2      OT      -0.834000       15.9994           0
     41402 TIP3     5695     TIP3     H1       HT       0.417000       1.00800           0
     41403 TIP3     5695     TIP3     H2       HT       0.417000       1.00800           0
     41404 TIP3     5696     TIP3     OH2      OT      -0.834000       15.9994           0
     41405 TIP3     5696     TIP3     H1       HT       0.417000       1.00800           0
     41406 TIP3     5696     TIP3     H2       HT       0.417000       1.00800           0
     41407 TIP3     5697     TIP3     OH2      OT      -0.834000       15.9994           0
     41408 TIP3     5697     TIP3     H1       HT       0.417000       1.00800           0
     41409 TIP3     5697     TIP3     H2       HT       0.417000       1.00800           0
     41410 TIP3     5698     TIP3     OH2      OT      -0.834000       15.9994           0
     41411 TIP3     5698     TIP3     H1       HT       0.417000       1.00800           0
     41412 TIP3     5698     TIP3     H2       HT       0.417000       1.00800           0
     41413 TIP3     5699     TIP3     OH2      OT      -0.834000       15.9994           0
     41414 TIP3     5699     TIP3     H1       HT       0.417000       1.00800           0
     41415 TIP3     5699     TIP3     H2       HT       0.417000       1.00800           0
     41416 TIP3     5700     TIP3     OH2      OT      -0.834000       15.9994           0
     41417 TIP3     5700     TIP3     H1       HT       0.417000       1.00800           0
     41418 TIP3     5700     TIP3     H2       HT       0.417000       1.00800           0
     41419 TIP3     5701     TIP3     OH2      OT      -0.834000       15.9994           0
     41420 TIP3     5701     TIP3     H1       HT       0.417000       1.00800           0
     41421 TIP3     5701     TIP3     H2       HT       0.417000       1.00800           0
     41422 TIP3     5702     TIP3     OH2      OT      -0.834000       15.9994           0
     41423 TIP3     5702     TIP3     H1       HT       0.417000       1.00800           0
     41424 TIP3     5702     TIP3     H2       HT       0.417000       1.00800           0
     41425 TIP3     5703     TIP3     OH2      OT      -0.834000       15.9994           0
     41426 TIP3     5703     TIP3     H1       HT       0.417000       1.00800           0
     41427 TIP3     5703     TIP3     H2       HT       0.417000       1.00800           0
     41428 TIP3     5704     TIP3     OH2      OT      -0.834000       15.9994           0
     41429 TIP3     5704     TIP3     H1       HT       0.417000       1.00800           0
     41430 TIP3     5704     TIP3     H2       HT       0.417000       1.00800           0
     41431 TIP3     5705     TIP3     OH2      OT      -0.834000       15.9994           0
     41432 TIP3     5705     TIP3     H1       HT       0.417000       1.00800           0
     41433 TIP3     5705     TIP3     H2       HT       0.417000       1.00800           0
     41434 TIP3     5706     TIP3     OH2      OT      -0.834000       15.9994           0
     41435 TIP3     5706     TIP3     H1       HT       0.417000       1.00800           0
     41436 TIP3     5706     TIP3     H2       HT       0.417000       1.00800           0
     41437 TIP3     5707     TIP3     OH2      OT      -0.834000       15.9994           0
     41438 TIP3     5707     TIP3     H1       HT       0.417000       1.00800           0
     41439 TIP3     5707     TIP3     H2       HT       0.417000       1.00800           0
     41440 TIP3     5708     TIP3     OH2      OT      -0.834000       15.9994           0
     41441 TIP3     5708     TIP3     H1       HT       0.417000       1.00800           0
     41442 TIP3     5708     TIP3     H2       HT       0.417000       1.00800           0
     41443 TIP3     5709     TIP3     OH2      OT      -0.834000       15.9994           0
     41444 TIP3     5709     TIP3     H1       HT       0.417000       1.00800           0
     41445 TIP3     5709     TIP3     H2       HT       0.417000       1.00800           0
     41446 TIP3     5710     TIP3     OH2      OT      -0.834000       15.9994           0
     41447 TIP3     5710     TIP3     H1       HT       0.417000       1.00800           0
     41448 TIP3     5710     TIP3     H2       HT       0.417000       1.00800           0
     41449 TIP3     5711     TIP3     OH2      OT      -0.834000       15.9994           0
     41450 TIP3     5711     TIP3     H1       HT       0.417000       1.00800           0
     41451 TIP3     5711     TIP3     H2       HT       0.417000       1.00800           0
     41452 TIP3     5712     TIP3     OH2      OT      -0.834000       15.9994           0
     41453 TIP3     5712     TIP3     H1       HT       0.417000       1.00800           0
     41454 TIP3     5712     TIP3     H2       HT       0.417000       1.00800           0
     41455 TIP3     5713     TIP3     OH2      OT      -0.834000       15.9994           0
     41456 TIP3     5713     TIP3     H1       HT       0.417000       1.00800           0
     41457 TIP3     5713     TIP3     H2       HT       0.417000       1.00800           0
     41458 TIP3     5714     TIP3     OH2      OT      -0.834000       15.9994           0
     41459 TIP3     5714     TIP3     H1       HT       0.417000       1.00800           0
     41460 TIP3     5714     TIP3     H2       HT       0.417000       1.00800           0
     41461 TIP3     5715     TIP3     OH2      OT      -0.834000       15.9994           0
     41462 TIP3     5715     TIP3     H1       HT       0.417000       1.00800           0
     41463 TIP3     5715     TIP3     H2       HT       0.417000       1.00800           0
     41464 TIP3     5716     TIP3     OH2      OT      -0.834000       15.9994           0
     41465 TIP3     5716     TIP3     H1       HT       0.417000       1.00800           0
     41466 TIP3     5716     TIP3     H2       HT       0.417000       1.00800           0
     41467 TIP3     5717     TIP3     OH2      OT      -0.834000       15.9994           0
     41468 TIP3     5717     TIP3     H1       HT       0.417000       1.00800           0
     41469 TIP3     5717     TIP3     H2       HT       0.417000       1.00800           0
     41470 TIP3     5718     TIP3     OH2      OT      -0.834000       15.9994           0
     41471 TIP3     5718     TIP3     H1       HT       0.417000       1.00800           0
     41472 TIP3     5718     TIP3     H2       HT       0.417000       1.00800           0
     41473 TIP3     5719     TIP3     OH2      OT      -0.834000       15.9994           0
     41474 TIP3     5719     TIP3     H1       HT       0.417000       1.00800           0
     41475 TIP3     5719     TIP3     H2       HT       0.417000       1.00800           0
     41476 TIP3     5720     TIP3     OH2      OT      -0.834000       15.9994           0
     41477 TIP3     5720     TIP3     H1       HT       0.417000       1.00800           0
     41478 TIP3     5720     TIP3     H2       HT       0.417000       1.00800           0
     41479 TIP3     5721     TIP3     OH2      OT      -0.834000       15.9994           0
     41480 TIP3     5721     TIP3     H1       HT       0.417000       1.00800           0
     41481 TIP3     5721     TIP3     H2       HT       0.417000       1.00800           0
     41482 TIP3     5722     TIP3     OH2      OT      -0.834000       15.9994           0
     41483 TIP3     5722     TIP3     H1       HT       0.417000       1.00800           0
     41484 TIP3     5722     TIP3     H2       HT       0.417000       1.00800           0
     41485 TIP3     5723     TIP3     OH2      OT      -0.834000       15.9994           0
     41486 TIP3     5723     TIP3     H1       HT       0.417000       1.00800           0
     41487 TIP3     5723     TIP3     H2       HT       0.417000       1.00800           0
     41488 TIP3     5724     TIP3     OH2      OT      -0.834000       15.9994           0
     41489 TIP3     5724     TIP3     H1       HT       0.417000       1.00800           0
     41490 TIP3     5724     TIP3     H2       HT       0.417000       1.00800           0
     41491 TIP3     5725     TIP3     OH2      OT      -0.834000       15.9994           0
     41492 TIP3     5725     TIP3     H1       HT       0.417000       1.00800           0
     41493 TIP3     5725     TIP3     H2       HT       0.417000       1.00800           0
     41494 TIP3     5726     TIP3     OH2      OT      -0.834000       15.9994           0
     41495 TIP3     5726     TIP3     H1       HT       0.417000       1.00800           0
     41496 TIP3     5726     TIP3     H2       HT       0.417000       1.00800           0
     41497 TIP3     5727     TIP3     OH2      OT      -0.834000       15.9994           0
     41498 TIP3     5727     TIP3     H1       HT       0.417000       1.00800           0
     41499 TIP3     5727     TIP3     H2       HT       0.417000       1.00800           0
     41500 TIP3     5728     TIP3     OH2      OT      -0.834000       15.9994           0
     41501 TIP3     5728     TIP3     H1       HT       0.417000       1.00800           0
     41502 TIP3     5728     TIP3     H2       HT       0.417000       1.00800           0
     41503 TIP3     5729     TIP3     OH2      OT      -0.834000       15.9994           0
     41504 TIP3     5729     TIP3     H1       HT       0.417000       1.00800           0
     41505 TIP3     5729     TIP3     H2       HT       0.417000       1.00800           0
     41506 TIP3     5730     TIP3     OH2      OT      -0.834000       15.9994           0
     41507 TIP3     5730     TIP3     H1       HT       0.417000       1.00800           0
     41508 TIP3     5730     TIP3     H2       HT       0.417000       1.00800           0
     41509 TIP3     5731     TIP3     OH2      OT      -0.834000       15.9994           0
     41510 TIP3     5731     TIP3     H1       HT       0.417000       1.00800           0
     41511 TIP3     5731     TIP3     H2       HT       0.417000       1.00800           0
     41512 TIP3     5732     TIP3     OH2      OT      -0.834000       15.9994           0
     41513 TIP3     5732     TIP3     H1       HT       0.417000       1.00800           0
     41514 TIP3     5732     TIP3     H2       HT       0.417000       1.00800           0
     41515 TIP3     5733     TIP3     OH2      OT      -0.834000       15.9994           0
     41516 TIP3     5733     TIP3     H1       HT       0.417000       1.00800           0
     41517 TIP3     5733     TIP3     H2       HT       0.417000       1.00800           0
     41518 TIP3     5734     TIP3     OH2      OT      -0.834000       15.9994           0
     41519 TIP3     5734     TIP3     H1       HT       0.417000       1.00800           0
     41520 TIP3     5734     TIP3     H2       HT       0.417000       1.00800           0
     41521 TIP3     5735     TIP3     OH2      OT      -0.834000       15.9994           0
     41522 TIP3     5735     TIP3     H1       HT       0.417000       1.00800           0
     41523 TIP3     5735     TIP3     H2       HT       0.417000       1.00800           0
     41524 TIP3     5736     TIP3     OH2      OT      -0.834000       15.9994           0
     41525 TIP3     5736     TIP3     H1       HT       0.417000       1.00800           0
     41526 TIP3     5736     TIP3     H2       HT       0.417000       1.00800           0
     41527 TIP3     5737     TIP3     OH2      OT      -0.834000       15.9994           0
     41528 TIP3     5737     TIP3     H1       HT       0.417000       1.00800           0
     41529 TIP3     5737     TIP3     H2       HT       0.417000       1.00800           0
     41530 TIP3     5738     TIP3     OH2      OT      -0.834000       15.9994           0
     41531 TIP3     5738     TIP3     H1       HT       0.417000       1.00800           0
     41532 TIP3     5738     TIP3     H2       HT       0.417000       1.00800           0
     41533 TIP3     5739     TIP3     OH2      OT      -0.834000       15.9994           0
     41534 TIP3     5739     TIP3     H1       HT       0.417000       1.00800           0
     41535 TIP3     5739     TIP3     H2       HT       0.417000       1.00800           0
     41536 TIP3     5740     TIP3     OH2      OT      -0.834000       15.9994           0
     41537 TIP3     5740     TIP3     H1       HT       0.417000       1.00800           0
     41538 TIP3     5740     TIP3     H2       HT       0.417000       1.00800           0
     41539 TIP3     5741     TIP3     OH2      OT      -0.834000       15.9994           0
     41540 TIP3     5741     TIP3     H1       HT       0.417000       1.00800           0
     41541 TIP3     5741     TIP3     H2       HT       0.417000       1.00800           0
     41542 TIP3     5742     TIP3     OH2      OT      -0.834000       15.9994           0
     41543 TIP3     5742     TIP3     H1       HT       0.417000       1.00800           0
     41544 TIP3     5742     TIP3     H2       HT       0.417000       1.00800           0
     41545 TIP3     5743     TIP3     OH2      OT      -0.834000       15.9994           0
     41546 TIP3     5743     TIP3     H1       HT       0.417000       1.00800           0
     41547 TIP3     5743     TIP3     H2       HT       0.417000       1.00800           0
     41548 TIP3     5744     TIP3     OH2      OT      -0.834000       15.9994           0
     41549 TIP3     5744     TIP3     H1       HT       0.417000       1.00800           0
     41550 TIP3     5744     TIP3     H2       HT       0.417000       1.00800           0
     41551 TIP3     5745     TIP3     OH2      OT      -0.834000       15.9994           0
     41552 TIP3     5745     TIP3     H1       HT       0.417000       1.00800           0
     41553 TIP3     5745     TIP3     H2       HT       0.417000       1.00800           0
     41554 TIP3     5746     TIP3     OH2      OT      -0.834000       15.9994           0
     41555 TIP3     5746     TIP3     H1       HT       0.417000       1.00800           0
     41556 TIP3     5746     TIP3     H2       HT       0.417000       1.00800           0
     41557 TIP3     5747     TIP3     OH2      OT      -0.834000       15.9994           0
     41558 TIP3     5747     TIP3     H1       HT       0.417000       1.00800           0
     41559 TIP3     5747     TIP3     H2       HT       0.417000       1.00800           0
     41560 TIP3     5748     TIP3     OH2      OT      -0.834000       15.9994           0
     41561 TIP3     5748     TIP3     H1       HT       0.417000       1.00800           0
     41562 TIP3     5748     TIP3     H2       HT       0.417000       1.00800           0
     41563 TIP3     5749     TIP3     OH2      OT      -0.834000       15.9994           0
     41564 TIP3     5749     TIP3     H1       HT       0.417000       1.00800           0
     41565 TIP3     5749     TIP3     H2       HT       0.417000       1.00800           0
     41566 TIP3     5750     TIP3     OH2      OT      -0.834000       15.9994           0
     41567 TIP3     5750     TIP3     H1       HT       0.417000       1.00800           0
     41568 TIP3     5750     TIP3     H2       HT       0.417000       1.00800           0
     41569 TIP3     5751     TIP3     OH2      OT      -0.834000       15.9994           0
     41570 TIP3     5751     TIP3     H1       HT       0.417000       1.00800           0
     41571 TIP3     5751     TIP3     H2       HT       0.417000       1.00800           0
     41572 TIP3     5752     TIP3     OH2      OT      -0.834000       15.9994           0
     41573 TIP3     5752     TIP3     H1       HT       0.417000       1.00800           0
     41574 TIP3     5752     TIP3     H2       HT       0.417000       1.00800           0
     41575 TIP3     5753     TIP3     OH2      OT      -0.834000       15.9994           0
     41576 TIP3     5753     TIP3     H1       HT       0.417000       1.00800           0
     41577 TIP3     5753     TIP3     H2       HT       0.417000       1.00800           0
     41578 TIP3     5754     TIP3     OH2      OT      -0.834000       15.9994           0
     41579 TIP3     5754     TIP3     H1       HT       0.417000       1.00800           0
     41580 TIP3     5754     TIP3     H2       HT       0.417000       1.00800           0
     41581 TIP3     5755     TIP3     OH2      OT      -0.834000       15.9994           0
     41582 TIP3     5755     TIP3     H1       HT       0.417000       1.00800           0
     41583 TIP3     5755     TIP3     H2       HT       0.417000       1.00800           0
     41584 TIP3     5756     TIP3     OH2      OT      -0.834000       15.9994           0
     41585 TIP3     5756     TIP3     H1       HT       0.417000       1.00800           0
     41586 TIP3     5756     TIP3     H2       HT       0.417000       1.00800           0
     41587 TIP3     5757     TIP3     OH2      OT      -0.834000       15.9994           0
     41588 TIP3     5757     TIP3     H1       HT       0.417000       1.00800           0
     41589 TIP3     5757     TIP3     H2       HT       0.417000       1.00800           0
     41590 TIP3     5758     TIP3     OH2      OT      -0.834000       15.9994           0
     41591 TIP3     5758     TIP3     H1       HT       0.417000       1.00800           0
     41592 TIP3     5758     TIP3     H2       HT       0.417000       1.00800           0
     41593 TIP3     5759     TIP3     OH2      OT      -0.834000       15.9994           0
     41594 TIP3     5759     TIP3     H1       HT       0.417000       1.00800           0
     41595 TIP3     5759     TIP3     H2       HT       0.417000       1.00800           0
     41596 TIP3     5760     TIP3     OH2      OT      -0.834000       15.9994           0
     41597 TIP3     5760     TIP3     H1       HT       0.417000       1.00800           0
     41598 TIP3     5760     TIP3     H2       HT       0.417000       1.00800           0
     41599 TIP3     5761     TIP3     OH2      OT      -0.834000       15.9994           0
     41600 TIP3     5761     TIP3     H1       HT       0.417000       1.00800           0
     41601 TIP3     5761     TIP3     H2       HT       0.417000       1.00800           0
     41602 TIP3     5762     TIP3     OH2      OT      -0.834000       15.9994           0
     41603 TIP3     5762     TIP3     H1       HT       0.417000       1.00800           0
     41604 TIP3     5762     TIP3     H2       HT       0.417000       1.00800           0
     41605 TIP3     5763     TIP3     OH2      OT      -0.834000       15.9994           0
     41606 TIP3     5763     TIP3     H1       HT       0.417000       1.00800           0
     41607 TIP3     5763     TIP3     H2       HT       0.417000       1.00800           0
     41608 TIP3     5764     TIP3     OH2      OT      -0.834000       15.9994           0
     41609 TIP3     5764     TIP3     H1       HT       0.417000       1.00800           0
     41610 TIP3     5764     TIP3     H2       HT       0.417000       1.00800           0
     41611 TIP3     5765     TIP3     OH2      OT      -0.834000       15.9994           0
     41612 TIP3     5765     TIP3     H1       HT       0.417000       1.00800           0
     41613 TIP3     5765     TIP3     H2       HT       0.417000       1.00800           0
     41614 TIP3     5766     TIP3     OH2      OT      -0.834000       15.9994           0
     41615 TIP3     5766     TIP3     H1       HT       0.417000       1.00800           0
     41616 TIP3     5766     TIP3     H2       HT       0.417000       1.00800           0
     41617 TIP3     5767     TIP3     OH2      OT      -0.834000       15.9994           0
     41618 TIP3     5767     TIP3     H1       HT       0.417000       1.00800           0
     41619 TIP3     5767     TIP3     H2       HT       0.417000       1.00800           0
     41620 TIP3     5768     TIP3     OH2      OT      -0.834000       15.9994           0
     41621 TIP3     5768     TIP3     H1       HT       0.417000       1.00800           0
     41622 TIP3     5768     TIP3     H2       HT       0.417000       1.00800           0
     41623 TIP3     5769     TIP3     OH2      OT      -0.834000       15.9994           0
     41624 TIP3     5769     TIP3     H1       HT       0.417000       1.00800           0
     41625 TIP3     5769     TIP3     H2       HT       0.417000       1.00800           0
     41626 TIP3     5770     TIP3     OH2      OT      -0.834000       15.9994           0
     41627 TIP3     5770     TIP3     H1       HT       0.417000       1.00800           0
     41628 TIP3     5770     TIP3     H2       HT       0.417000       1.00800           0
     41629 TIP3     5771     TIP3     OH2      OT      -0.834000       15.9994           0
     41630 TIP3     5771     TIP3     H1       HT       0.417000       1.00800           0
     41631 TIP3     5771     TIP3     H2       HT       0.417000       1.00800           0
     41632 TIP3     5772     TIP3     OH2      OT      -0.834000       15.9994           0
     41633 TIP3     5772     TIP3     H1       HT       0.417000       1.00800           0
     41634 TIP3     5772     TIP3     H2       HT       0.417000       1.00800           0
     41635 TIP3     5773     TIP3     OH2      OT      -0.834000       15.9994           0
     41636 TIP3     5773     TIP3     H1       HT       0.417000       1.00800           0
     41637 TIP3     5773     TIP3     H2       HT       0.417000       1.00800           0
     41638 TIP3     5774     TIP3     OH2      OT      -0.834000       15.9994           0
     41639 TIP3     5774     TIP3     H1       HT       0.417000       1.00800           0
     41640 TIP3     5774     TIP3     H2       HT       0.417000       1.00800           0
     41641 TIP3     5775     TIP3     OH2      OT      -0.834000       15.9994           0
     41642 TIP3     5775     TIP3     H1       HT       0.417000       1.00800           0
     41643 TIP3     5775     TIP3     H2       HT       0.417000       1.00800           0
     41644 TIP3     5776     TIP3     OH2      OT      -0.834000       15.9994           0
     41645 TIP3     5776     TIP3     H1       HT       0.417000       1.00800           0
     41646 TIP3     5776     TIP3     H2       HT       0.417000       1.00800           0
     41647 TIP3     5777     TIP3     OH2      OT      -0.834000       15.9994           0
     41648 TIP3     5777     TIP3     H1       HT       0.417000       1.00800           0
     41649 TIP3     5777     TIP3     H2       HT       0.417000       1.00800           0
     41650 TIP3     5778     TIP3     OH2      OT      -0.834000       15.9994           0
     41651 TIP3     5778     TIP3     H1       HT       0.417000       1.00800           0
     41652 TIP3     5778     TIP3     H2       HT       0.417000       1.00800           0
     41653 TIP3     5779     TIP3     OH2      OT      -0.834000       15.9994           0
     41654 TIP3     5779     TIP3     H1       HT       0.417000       1.00800           0
     41655 TIP3     5779     TIP3     H2       HT       0.417000       1.00800           0
     41656 TIP3     5780     TIP3     OH2      OT      -0.834000       15.9994           0
     41657 TIP3     5780     TIP3     H1       HT       0.417000       1.00800           0
     41658 TIP3     5780     TIP3     H2       HT       0.417000       1.00800           0
     41659 TIP3     5781     TIP3     OH2      OT      -0.834000       15.9994           0
     41660 TIP3     5781     TIP3     H1       HT       0.417000       1.00800           0
     41661 TIP3     5781     TIP3     H2       HT       0.417000       1.00800           0
     41662 TIP3     5782     TIP3     OH2      OT      -0.834000       15.9994           0
     41663 TIP3     5782     TIP3     H1       HT       0.417000       1.00800           0
     41664 TIP3     5782     TIP3     H2       HT       0.417000       1.00800           0
     41665 TIP3     5783     TIP3     OH2      OT      -0.834000       15.9994           0
     41666 TIP3     5783     TIP3     H1       HT       0.417000       1.00800           0
     41667 TIP3     5783     TIP3     H2       HT       0.417000       1.00800           0
     41668 TIP3     5784     TIP3     OH2      OT      -0.834000       15.9994           0
     41669 TIP3     5784     TIP3     H1       HT       0.417000       1.00800           0
     41670 TIP3     5784     TIP3     H2       HT       0.417000       1.00800           0
     41671 TIP3     5785     TIP3     OH2      OT      -0.834000       15.9994           0
     41672 TIP3     5785     TIP3     H1       HT       0.417000       1.00800           0
     41673 TIP3     5785     TIP3     H2       HT       0.417000       1.00800           0
     41674 TIP3     5786     TIP3     OH2      OT      -0.834000       15.9994           0
     41675 TIP3     5786     TIP3     H1       HT       0.417000       1.00800           0
     41676 TIP3     5786     TIP3     H2       HT       0.417000       1.00800           0
     41677 TIP3     5787     TIP3     OH2      OT      -0.834000       15.9994           0
     41678 TIP3     5787     TIP3     H1       HT       0.417000       1.00800           0
     41679 TIP3     5787     TIP3     H2       HT       0.417000       1.00800           0
     41680 TIP3     5788     TIP3     OH2      OT      -0.834000       15.9994           0
     41681 TIP3     5788     TIP3     H1       HT       0.417000       1.00800           0
     41682 TIP3     5788     TIP3     H2       HT       0.417000       1.00800           0
     41683 TIP3     5789     TIP3     OH2      OT      -0.834000       15.9994           0
     41684 TIP3     5789     TIP3     H1       HT       0.417000       1.00800           0
     41685 TIP3     5789     TIP3     H2       HT       0.417000       1.00800           0
     41686 TIP3     5790     TIP3     OH2      OT      -0.834000       15.9994           0
     41687 TIP3     5790     TIP3     H1       HT       0.417000       1.00800           0
     41688 TIP3     5790     TIP3     H2       HT       0.417000       1.00800           0
     41689 TIP3     5791     TIP3     OH2      OT      -0.834000       15.9994           0
     41690 TIP3     5791     TIP3     H1       HT       0.417000       1.00800           0
     41691 TIP3     5791     TIP3     H2       HT       0.417000       1.00800           0
     41692 TIP3     5792     TIP3     OH2      OT      -0.834000       15.9994           0
     41693 TIP3     5792     TIP3     H1       HT       0.417000       1.00800           0
     41694 TIP3     5792     TIP3     H2       HT       0.417000       1.00800           0
     41695 TIP3     5793     TIP3     OH2      OT      -0.834000       15.9994           0
     41696 TIP3     5793     TIP3     H1       HT       0.417000       1.00800           0
     41697 TIP3     5793     TIP3     H2       HT       0.417000       1.00800           0
     41698 TIP3     5794     TIP3     OH2      OT      -0.834000       15.9994           0
     41699 TIP3     5794     TIP3     H1       HT       0.417000       1.00800           0
     41700 TIP3     5794     TIP3     H2       HT       0.417000       1.00800           0
     41701 TIP3     5795     TIP3     OH2      OT      -0.834000       15.9994           0
     41702 TIP3     5795     TIP3     H1       HT       0.417000       1.00800           0
     41703 TIP3     5795     TIP3     H2       HT       0.417000       1.00800           0
     41704 TIP3     5796     TIP3     OH2      OT      -0.834000       15.9994           0
     41705 TIP3     5796     TIP3     H1       HT       0.417000       1.00800           0
     41706 TIP3     5796     TIP3     H2       HT       0.417000       1.00800           0
     41707 TIP3     5797     TIP3     OH2      OT      -0.834000       15.9994           0
     41708 TIP3     5797     TIP3     H1       HT       0.417000       1.00800           0
     41709 TIP3     5797     TIP3     H2       HT       0.417000       1.00800           0
     41710 TIP3     5798     TIP3     OH2      OT      -0.834000       15.9994           0
     41711 TIP3     5798     TIP3     H1       HT       0.417000       1.00800           0
     41712 TIP3     5798     TIP3     H2       HT       0.417000       1.00800           0
     41713 TIP3     5799     TIP3     OH2      OT      -0.834000       15.9994           0
     41714 TIP3     5799     TIP3     H1       HT       0.417000       1.00800           0
     41715 TIP3     5799     TIP3     H2       HT       0.417000       1.00800           0
     41716 TIP3     5800     TIP3     OH2      OT      -0.834000       15.9994           0
     41717 TIP3     5800     TIP3     H1       HT       0.417000       1.00800           0
     41718 TIP3     5800     TIP3     H2       HT       0.417000       1.00800           0
     41719 TIP3     5801     TIP3     OH2      OT      -0.834000       15.9994           0
     41720 TIP3     5801     TIP3     H1       HT       0.417000       1.00800           0
     41721 TIP3     5801     TIP3     H2       HT       0.417000       1.00800           0
     41722 TIP3     5802     TIP3     OH2      OT      -0.834000       15.9994           0
     41723 TIP3     5802     TIP3     H1       HT       0.417000       1.00800           0
     41724 TIP3     5802     TIP3     H2       HT       0.417000       1.00800           0
     41725 TIP3     5803     TIP3     OH2      OT      -0.834000       15.9994           0
     41726 TIP3     5803     TIP3     H1       HT       0.417000       1.00800           0
     41727 TIP3     5803     TIP3     H2       HT       0.417000       1.00800           0
     41728 TIP3     5804     TIP3     OH2      OT      -0.834000       15.9994           0
     41729 TIP3     5804     TIP3     H1       HT       0.417000       1.00800           0
     41730 TIP3     5804     TIP3     H2       HT       0.417000       1.00800           0
     41731 TIP3     5805     TIP3     OH2      OT      -0.834000       15.9994           0
     41732 TIP3     5805     TIP3     H1       HT       0.417000       1.00800           0
     41733 TIP3     5805     TIP3     H2       HT       0.417000       1.00800           0
     41734 TIP3     5806     TIP3     OH2      OT      -0.834000       15.9994           0
     41735 TIP3     5806     TIP3     H1       HT       0.417000       1.00800           0
     41736 TIP3     5806     TIP3     H2       HT       0.417000       1.00800           0
     41737 TIP3     5807     TIP3     OH2      OT      -0.834000       15.9994           0
     41738 TIP3     5807     TIP3     H1       HT       0.417000       1.00800           0
     41739 TIP3     5807     TIP3     H2       HT       0.417000       1.00800           0
     41740 TIP3     5808     TIP3     OH2      OT      -0.834000       15.9994           0
     41741 TIP3     5808     TIP3     H1       HT       0.417000       1.00800           0
     41742 TIP3     5808     TIP3     H2       HT       0.417000       1.00800           0
     41743 TIP3     5809     TIP3     OH2      OT      -0.834000       15.9994           0
     41744 TIP3     5809     TIP3     H1       HT       0.417000       1.00800           0
     41745 TIP3     5809     TIP3     H2       HT       0.417000       1.00800           0
     41746 TIP3     5810     TIP3     OH2      OT      -0.834000       15.9994           0
     41747 TIP3     5810     TIP3     H1       HT       0.417000       1.00800           0
     41748 TIP3     5810     TIP3     H2       HT       0.417000       1.00800           0
     41749 TIP3     5811     TIP3     OH2      OT      -0.834000       15.9994           0
     41750 TIP3     5811     TIP3     H1       HT       0.417000       1.00800           0
     41751 TIP3     5811     TIP3     H2       HT       0.417000       1.00800           0
     41752 TIP3     5812     TIP3     OH2      OT      -0.834000       15.9994           0
     41753 TIP3     5812     TIP3     H1       HT       0.417000       1.00800           0
     41754 TIP3     5812     TIP3     H2       HT       0.417000       1.00800           0
     41755 TIP3     5813     TIP3     OH2      OT      -0.834000       15.9994           0
     41756 TIP3     5813     TIP3     H1       HT       0.417000       1.00800           0
     41757 TIP3     5813     TIP3     H2       HT       0.417000       1.00800           0
     41758 TIP3     5814     TIP3     OH2      OT      -0.834000       15.9994           0
     41759 TIP3     5814     TIP3     H1       HT       0.417000       1.00800           0
     41760 TIP3     5814     TIP3     H2       HT       0.417000       1.00800           0
     41761 TIP3     5815     TIP3     OH2      OT      -0.834000       15.9994           0
     41762 TIP3     5815     TIP3     H1       HT       0.417000       1.00800           0
     41763 TIP3     5815     TIP3     H2       HT       0.417000       1.00800           0
     41764 TIP3     5816     TIP3     OH2      OT      -0.834000       15.9994           0
     41765 TIP3     5816     TIP3     H1       HT       0.417000       1.00800           0
     41766 TIP3     5816     TIP3     H2       HT       0.417000       1.00800           0
     41767 TIP3     5817     TIP3     OH2      OT      -0.834000       15.9994           0
     41768 TIP3     5817     TIP3     H1       HT       0.417000       1.00800           0
     41769 TIP3     5817     TIP3     H2       HT       0.417000       1.00800           0
     41770 TIP3     5818     TIP3     OH2      OT      -0.834000       15.9994           0
     41771 TIP3     5818     TIP3     H1       HT       0.417000       1.00800           0
     41772 TIP3     5818     TIP3     H2       HT       0.417000       1.00800           0
     41773 TIP3     5819     TIP3     OH2      OT      -0.834000       15.9994           0
     41774 TIP3     5819     TIP3     H1       HT       0.417000       1.00800           0
     41775 TIP3     5819     TIP3     H2       HT       0.417000       1.00800           0
     41776 TIP3     5820     TIP3     OH2      OT      -0.834000       15.9994           0
     41777 TIP3     5820     TIP3     H1       HT       0.417000       1.00800           0
     41778 TIP3     5820     TIP3     H2       HT       0.417000       1.00800           0
     41779 TIP3     5821     TIP3     OH2      OT      -0.834000       15.9994           0
     41780 TIP3     5821     TIP3     H1       HT       0.417000       1.00800           0
     41781 TIP3     5821     TIP3     H2       HT       0.417000       1.00800           0
     41782 TIP3     5822     TIP3     OH2      OT      -0.834000       15.9994           0
     41783 TIP3     5822     TIP3     H1       HT       0.417000       1.00800           0
     41784 TIP3     5822     TIP3     H2       HT       0.417000       1.00800           0
     41785 TIP3     5823     TIP3     OH2      OT      -0.834000       15.9994           0
     41786 TIP3     5823     TIP3     H1       HT       0.417000       1.00800           0
     41787 TIP3     5823     TIP3     H2       HT       0.417000       1.00800           0
     41788 TIP3     5824     TIP3     OH2      OT      -0.834000       15.9994           0
     41789 TIP3     5824     TIP3     H1       HT       0.417000       1.00800           0
     41790 TIP3     5824     TIP3     H2       HT       0.417000       1.00800           0
     41791 TIP3     5825     TIP3     OH2      OT      -0.834000       15.9994           0
     41792 TIP3     5825     TIP3     H1       HT       0.417000       1.00800           0
     41793 TIP3     5825     TIP3     H2       HT       0.417000       1.00800           0
     41794 TIP3     5826     TIP3     OH2      OT      -0.834000       15.9994           0
     41795 TIP3     5826     TIP3     H1       HT       0.417000       1.00800           0
     41796 TIP3     5826     TIP3     H2       HT       0.417000       1.00800           0
     41797 TIP3     5827     TIP3     OH2      OT      -0.834000       15.9994           0
     41798 TIP3     5827     TIP3     H1       HT       0.417000       1.00800           0
     41799 TIP3     5827     TIP3     H2       HT       0.417000       1.00800           0
     41800 TIP3     5828     TIP3     OH2      OT      -0.834000       15.9994           0
     41801 TIP3     5828     TIP3     H1       HT       0.417000       1.00800           0
     41802 TIP3     5828     TIP3     H2       HT       0.417000       1.00800           0
     41803 TIP3     5829     TIP3     OH2      OT      -0.834000       15.9994           0
     41804 TIP3     5829     TIP3     H1       HT       0.417000       1.00800           0
     41805 TIP3     5829     TIP3     H2       HT       0.417000       1.00800           0
     41806 TIP3     5830     TIP3     OH2      OT      -0.834000       15.9994           0
     41807 TIP3     5830     TIP3     H1       HT       0.417000       1.00800           0
     41808 TIP3     5830     TIP3     H2       HT       0.417000       1.00800           0
     41809 TIP3     5831     TIP3     OH2      OT      -0.834000       15.9994           0
     41810 TIP3     5831     TIP3     H1       HT       0.417000       1.00800           0
     41811 TIP3     5831     TIP3     H2       HT       0.417000       1.00800           0
     41812 TIP3     5832     TIP3     OH2      OT      -0.834000       15.9994           0
     41813 TIP3     5832     TIP3     H1       HT       0.417000       1.00800           0
     41814 TIP3     5832     TIP3     H2       HT       0.417000       1.00800           0
     41815 TIP3     5833     TIP3     OH2      OT      -0.834000       15.9994           0
     41816 TIP3     5833     TIP3     H1       HT       0.417000       1.00800           0
     41817 TIP3     5833     TIP3     H2       HT       0.417000       1.00800           0
     41818 TIP3     5834     TIP3     OH2      OT      -0.834000       15.9994           0
     41819 TIP3     5834     TIP3     H1       HT       0.417000       1.00800           0
     41820 TIP3     5834     TIP3     H2       HT       0.417000       1.00800           0
     41821 TIP3     5835     TIP3     OH2      OT      -0.834000       15.9994           0
     41822 TIP3     5835     TIP3     H1       HT       0.417000       1.00800           0
     41823 TIP3     5835     TIP3     H2       HT       0.417000       1.00800           0
     41824 TIP3     5836     TIP3     OH2      OT      -0.834000       15.9994           0
     41825 TIP3     5836     TIP3     H1       HT       0.417000       1.00800           0
     41826 TIP3     5836     TIP3     H2       HT       0.417000       1.00800           0
     41827 TIP3     5837     TIP3     OH2      OT      -0.834000       15.9994           0
     41828 TIP3     5837     TIP3     H1       HT       0.417000       1.00800           0
     41829 TIP3     5837     TIP3     H2       HT       0.417000       1.00800           0
     41830 TIP3     5838     TIP3     OH2      OT      -0.834000       15.9994           0
     41831 TIP3     5838     TIP3     H1       HT       0.417000       1.00800           0
     41832 TIP3     5838     TIP3     H2       HT       0.417000       1.00800           0
     41833 TIP3     5839     TIP3     OH2      OT      -0.834000       15.9994           0
     41834 TIP3     5839     TIP3     H1       HT       0.417000       1.00800           0
     41835 TIP3     5839     TIP3     H2       HT       0.417000       1.00800           0
     41836 TIP3     5840     TIP3     OH2      OT      -0.834000       15.9994           0
     41837 TIP3     5840     TIP3     H1       HT       0.417000       1.00800           0
     41838 TIP3     5840     TIP3     H2       HT       0.417000       1.00800           0
     41839 TIP3     5841     TIP3     OH2      OT      -0.834000       15.9994           0
     41840 TIP3     5841     TIP3     H1       HT       0.417000       1.00800           0
     41841 TIP3     5841     TIP3     H2       HT       0.417000       1.00800           0
     41842 TIP3     5842     TIP3     OH2      OT      -0.834000       15.9994           0
     41843 TIP3     5842     TIP3     H1       HT       0.417000       1.00800           0
     41844 TIP3     5842     TIP3     H2       HT       0.417000       1.00800           0
     41845 TIP3     5843     TIP3     OH2      OT      -0.834000       15.9994           0
     41846 TIP3     5843     TIP3     H1       HT       0.417000       1.00800           0
     41847 TIP3     5843     TIP3     H2       HT       0.417000       1.00800           0
     41848 TIP3     5844     TIP3     OH2      OT      -0.834000       15.9994           0
     41849 TIP3     5844     TIP3     H1       HT       0.417000       1.00800           0
     41850 TIP3     5844     TIP3     H2       HT       0.417000       1.00800           0
     41851 TIP3     5845     TIP3     OH2      OT      -0.834000       15.9994           0
     41852 TIP3     5845     TIP3     H1       HT       0.417000       1.00800           0
     41853 TIP3     5845     TIP3     H2       HT       0.417000       1.00800           0
     41854 TIP3     5846     TIP3     OH2      OT      -0.834000       15.9994           0
     41855 TIP3     5846     TIP3     H1       HT       0.417000       1.00800           0
     41856 TIP3     5846     TIP3     H2       HT       0.417000       1.00800           0
     41857 TIP3     5847     TIP3     OH2      OT      -0.834000       15.9994           0
     41858 TIP3     5847     TIP3     H1       HT       0.417000       1.00800           0
     41859 TIP3     5847     TIP3     H2       HT       0.417000       1.00800           0
     41860 TIP3     5848     TIP3     OH2      OT      -0.834000       15.9994           0
     41861 TIP3     5848     TIP3     H1       HT       0.417000       1.00800           0
     41862 TIP3     5848     TIP3     H2       HT       0.417000       1.00800           0
     41863 TIP3     5849     TIP3     OH2      OT      -0.834000       15.9994           0
     41864 TIP3     5849     TIP3     H1       HT       0.417000       1.00800           0
     41865 TIP3     5849     TIP3     H2       HT       0.417000       1.00800           0
     41866 TIP3     5850     TIP3     OH2      OT      -0.834000       15.9994           0
     41867 TIP3     5850     TIP3     H1       HT       0.417000       1.00800           0
     41868 TIP3     5850     TIP3     H2       HT       0.417000       1.00800           0
     41869 TIP3     5851     TIP3     OH2      OT      -0.834000       15.9994           0
     41870 TIP3     5851     TIP3     H1       HT       0.417000       1.00800           0
     41871 TIP3     5851     TIP3     H2       HT       0.417000       1.00800           0
     41872 TIP3     5852     TIP3     OH2      OT      -0.834000       15.9994           0
     41873 TIP3     5852     TIP3     H1       HT       0.417000       1.00800           0
     41874 TIP3     5852     TIP3     H2       HT       0.417000       1.00800           0
     41875 TIP3     5853     TIP3     OH2      OT      -0.834000       15.9994           0
     41876 TIP3     5853     TIP3     H1       HT       0.417000       1.00800           0
     41877 TIP3     5853     TIP3     H2       HT       0.417000       1.00800           0
     41878 TIP3     5854     TIP3     OH2      OT      -0.834000       15.9994           0
     41879 TIP3     5854     TIP3     H1       HT       0.417000       1.00800           0
     41880 TIP3     5854     TIP3     H2       HT       0.417000       1.00800           0
     41881 TIP3     5855     TIP3     OH2      OT      -0.834000       15.9994           0
     41882 TIP3     5855     TIP3     H1       HT       0.417000       1.00800           0
     41883 TIP3     5855     TIP3     H2       HT       0.417000       1.00800           0
     41884 TIP3     5856     TIP3     OH2      OT      -0.834000       15.9994           0
     41885 TIP3     5856     TIP3     H1       HT       0.417000       1.00800           0
     41886 TIP3     5856     TIP3     H2       HT       0.417000       1.00800           0
     41887 TIP3     5857     TIP3     OH2      OT      -0.834000       15.9994           0
     41888 TIP3     5857     TIP3     H1       HT       0.417000       1.00800           0
     41889 TIP3     5857     TIP3     H2       HT       0.417000       1.00800           0
     41890 TIP3     5858     TIP3     OH2      OT      -0.834000       15.9994           0
     41891 TIP3     5858     TIP3     H1       HT       0.417000       1.00800           0
     41892 TIP3     5858     TIP3     H2       HT       0.417000       1.00800           0
     41893 TIP3     5859     TIP3     OH2      OT      -0.834000       15.9994           0
     41894 TIP3     5859     TIP3     H1       HT       0.417000       1.00800           0
     41895 TIP3     5859     TIP3     H2       HT       0.417000       1.00800           0
     41896 TIP3     5860     TIP3     OH2      OT      -0.834000       15.9994           0
     41897 TIP3     5860     TIP3     H1       HT       0.417000       1.00800           0
     41898 TIP3     5860     TIP3     H2       HT       0.417000       1.00800           0
     41899 TIP3     5861     TIP3     OH2      OT      -0.834000       15.9994           0
     41900 TIP3     5861     TIP3     H1       HT       0.417000       1.00800           0
     41901 TIP3     5861     TIP3     H2       HT       0.417000       1.00800           0
     41902 TIP3     5862     TIP3     OH2      OT      -0.834000       15.9994           0
     41903 TIP3     5862     TIP3     H1       HT       0.417000       1.00800           0
     41904 TIP3     5862     TIP3     H2       HT       0.417000       1.00800           0
     41905 TIP3     5863     TIP3     OH2      OT      -0.834000       15.9994           0
     41906 TIP3     5863     TIP3     H1       HT       0.417000       1.00800           0
     41907 TIP3     5863     TIP3     H2       HT       0.417000       1.00800           0
     41908 TIP3     5864     TIP3     OH2      OT      -0.834000       15.9994           0
     41909 TIP3     5864     TIP3     H1       HT       0.417000       1.00800           0
     41910 TIP3     5864     TIP3     H2       HT       0.417000       1.00800           0
     41911 TIP3     5865     TIP3     OH2      OT      -0.834000       15.9994           0
     41912 TIP3     5865     TIP3     H1       HT       0.417000       1.00800           0
     41913 TIP3     5865     TIP3     H2       HT       0.417000       1.00800           0
     41914 TIP3     5866     TIP3     OH2      OT      -0.834000       15.9994           0
     41915 TIP3     5866     TIP3     H1       HT       0.417000       1.00800           0
     41916 TIP3     5866     TIP3     H2       HT       0.417000       1.00800           0
     41917 TIP3     5867     TIP3     OH2      OT      -0.834000       15.9994           0
     41918 TIP3     5867     TIP3     H1       HT       0.417000       1.00800           0
     41919 TIP3     5867     TIP3     H2       HT       0.417000       1.00800           0
     41920 TIP3     5868     TIP3     OH2      OT      -0.834000       15.9994           0
     41921 TIP3     5868     TIP3     H1       HT       0.417000       1.00800           0
     41922 TIP3     5868     TIP3     H2       HT       0.417000       1.00800           0
     41923 TIP3     5869     TIP3     OH2      OT      -0.834000       15.9994           0
     41924 TIP3     5869     TIP3     H1       HT       0.417000       1.00800           0
     41925 TIP3     5869     TIP3     H2       HT       0.417000       1.00800           0
     41926 TIP3     5870     TIP3     OH2      OT      -0.834000       15.9994           0
     41927 TIP3     5870     TIP3     H1       HT       0.417000       1.00800           0
     41928 TIP3     5870     TIP3     H2       HT       0.417000       1.00800           0
     41929 TIP3     5871     TIP3     OH2      OT      -0.834000       15.9994           0
     41930 TIP3     5871     TIP3     H1       HT       0.417000       1.00800           0
     41931 TIP3     5871     TIP3     H2       HT       0.417000       1.00800           0
     41932 TIP3     5872     TIP3     OH2      OT      -0.834000       15.9994           0
     41933 TIP3     5872     TIP3     H1       HT       0.417000       1.00800           0
     41934 TIP3     5872     TIP3     H2       HT       0.417000       1.00800           0
     41935 TIP3     5873     TIP3     OH2      OT      -0.834000       15.9994           0
     41936 TIP3     5873     TIP3     H1       HT       0.417000       1.00800           0
     41937 TIP3     5873     TIP3     H2       HT       0.417000       1.00800           0
     41938 TIP3     5874     TIP3     OH2      OT      -0.834000       15.9994           0
     41939 TIP3     5874     TIP3     H1       HT       0.417000       1.00800           0
     41940 TIP3     5874     TIP3     H2       HT       0.417000       1.00800           0
     41941 TIP3     5875     TIP3     OH2      OT      -0.834000       15.9994           0
     41942 TIP3     5875     TIP3     H1       HT       0.417000       1.00800           0
     41943 TIP3     5875     TIP3     H2       HT       0.417000       1.00800           0
     41944 TIP3     5876     TIP3     OH2      OT      -0.834000       15.9994           0
     41945 TIP3     5876     TIP3     H1       HT       0.417000       1.00800           0
     41946 TIP3     5876     TIP3     H2       HT       0.417000       1.00800           0
     41947 TIP3     5877     TIP3     OH2      OT      -0.834000       15.9994           0
     41948 TIP3     5877     TIP3     H1       HT       0.417000       1.00800           0
     41949 TIP3     5877     TIP3     H2       HT       0.417000       1.00800           0
     41950 TIP3     5878     TIP3     OH2      OT      -0.834000       15.9994           0
     41951 TIP3     5878     TIP3     H1       HT       0.417000       1.00800           0
     41952 TIP3     5878     TIP3     H2       HT       0.417000       1.00800           0
     41953 TIP3     5879     TIP3     OH2      OT      -0.834000       15.9994           0
     41954 TIP3     5879     TIP3     H1       HT       0.417000       1.00800           0
     41955 TIP3     5879     TIP3     H2       HT       0.417000       1.00800           0
     41956 TIP3     5880     TIP3     OH2      OT      -0.834000       15.9994           0
     41957 TIP3     5880     TIP3     H1       HT       0.417000       1.00800           0
     41958 TIP3     5880     TIP3     H2       HT       0.417000       1.00800           0
     41959 TIP3     5881     TIP3     OH2      OT      -0.834000       15.9994           0
     41960 TIP3     5881     TIP3     H1       HT       0.417000       1.00800           0
     41961 TIP3     5881     TIP3     H2       HT       0.417000       1.00800           0
     41962 TIP3     5882     TIP3     OH2      OT      -0.834000       15.9994           0
     41963 TIP3     5882     TIP3     H1       HT       0.417000       1.00800           0
     41964 TIP3     5882     TIP3     H2       HT       0.417000       1.00800           0
     41965 TIP3     5883     TIP3     OH2      OT      -0.834000       15.9994           0
     41966 TIP3     5883     TIP3     H1       HT       0.417000       1.00800           0
     41967 TIP3     5883     TIP3     H2       HT       0.417000       1.00800           0
     41968 TIP3     5884     TIP3     OH2      OT      -0.834000       15.9994           0
     41969 TIP3     5884     TIP3     H1       HT       0.417000       1.00800           0
     41970 TIP3     5884     TIP3     H2       HT       0.417000       1.00800           0
     41971 TIP3     5885     TIP3     OH2      OT      -0.834000       15.9994           0
     41972 TIP3     5885     TIP3     H1       HT       0.417000       1.00800           0
     41973 TIP3     5885     TIP3     H2       HT       0.417000       1.00800           0
     41974 TIP3     5886     TIP3     OH2      OT      -0.834000       15.9994           0
     41975 TIP3     5886     TIP3     H1       HT       0.417000       1.00800           0
     41976 TIP3     5886     TIP3     H2       HT       0.417000       1.00800           0
     41977 TIP3     5887     TIP3     OH2      OT      -0.834000       15.9994           0
     41978 TIP3     5887     TIP3     H1       HT       0.417000       1.00800           0
     41979 TIP3     5887     TIP3     H2       HT       0.417000       1.00800           0
     41980 TIP3     5888     TIP3     OH2      OT      -0.834000       15.9994           0
     41981 TIP3     5888     TIP3     H1       HT       0.417000       1.00800           0
     41982 TIP3     5888     TIP3     H2       HT       0.417000       1.00800           0
     41983 TIP3     5889     TIP3     OH2      OT      -0.834000       15.9994           0
     41984 TIP3     5889     TIP3     H1       HT       0.417000       1.00800           0
     41985 TIP3     5889     TIP3     H2       HT       0.417000       1.00800           0
     41986 TIP3     5890     TIP3     OH2      OT      -0.834000       15.9994           0
     41987 TIP3     5890     TIP3     H1       HT       0.417000       1.00800           0
     41988 TIP3     5890     TIP3     H2       HT       0.417000       1.00800           0
     41989 TIP3     5891     TIP3     OH2      OT      -0.834000       15.9994           0
     41990 TIP3     5891     TIP3     H1       HT       0.417000       1.00800           0
     41991 TIP3     5891     TIP3     H2       HT       0.417000       1.00800           0
     41992 TIP3     5892     TIP3     OH2      OT      -0.834000       15.9994           0
     41993 TIP3     5892     TIP3     H1       HT       0.417000       1.00800           0
     41994 TIP3     5892     TIP3     H2       HT       0.417000       1.00800           0
     41995 TIP3     5893     TIP3     OH2      OT      -0.834000       15.9994           0
     41996 TIP3     5893     TIP3     H1       HT       0.417000       1.00800           0
     41997 TIP3     5893     TIP3     H2       HT       0.417000       1.00800           0
     41998 TIP3     5894     TIP3     OH2      OT      -0.834000       15.9994           0
     41999 TIP3     5894     TIP3     H1       HT       0.417000       1.00800           0
     42000 TIP3     5894     TIP3     H2       HT       0.417000       1.00800           0
     42001 TIP3     5895     TIP3     OH2      OT      -0.834000       15.9994           0
     42002 TIP3     5895     TIP3     H1       HT       0.417000       1.00800           0
     42003 TIP3     5895     TIP3     H2       HT       0.417000       1.00800           0
     42004 TIP3     5896     TIP3     OH2      OT      -0.834000       15.9994           0
     42005 TIP3     5896     TIP3     H1       HT       0.417000       1.00800           0
     42006 TIP3     5896     TIP3     H2       HT       0.417000       1.00800           0
     42007 TIP3     5897     TIP3     OH2      OT      -0.834000       15.9994           0
     42008 TIP3     5897     TIP3     H1       HT       0.417000       1.00800           0
     42009 TIP3     5897     TIP3     H2       HT       0.417000       1.00800           0
     42010 TIP3     5898     TIP3     OH2      OT      -0.834000       15.9994           0
     42011 TIP3     5898     TIP3     H1       HT       0.417000       1.00800           0
     42012 TIP3     5898     TIP3     H2       HT       0.417000       1.00800           0
     42013 TIP3     5899     TIP3     OH2      OT      -0.834000       15.9994           0
     42014 TIP3     5899     TIP3     H1       HT       0.417000       1.00800           0
     42015 TIP3     5899     TIP3     H2       HT       0.417000       1.00800           0
     42016 TIP3     5900     TIP3     OH2      OT      -0.834000       15.9994           0
     42017 TIP3     5900     TIP3     H1       HT       0.417000       1.00800           0
     42018 TIP3     5900     TIP3     H2       HT       0.417000       1.00800           0
     42019 TIP3     5901     TIP3     OH2      OT      -0.834000       15.9994           0
     42020 TIP3     5901     TIP3     H1       HT       0.417000       1.00800           0
     42021 TIP3     5901     TIP3     H2       HT       0.417000       1.00800           0
     42022 TIP3     5902     TIP3     OH2      OT      -0.834000       15.9994           0
     42023 TIP3     5902     TIP3     H1       HT       0.417000       1.00800           0
     42024 TIP3     5902     TIP3     H2       HT       0.417000       1.00800           0
     42025 TIP3     5903     TIP3     OH2      OT      -0.834000       15.9994           0
     42026 TIP3     5903     TIP3     H1       HT       0.417000       1.00800           0
     42027 TIP3     5903     TIP3     H2       HT       0.417000       1.00800           0
     42028 TIP3     5904     TIP3     OH2      OT      -0.834000       15.9994           0
     42029 TIP3     5904     TIP3     H1       HT       0.417000       1.00800           0
     42030 TIP3     5904     TIP3     H2       HT       0.417000       1.00800           0
     42031 TIP3     5905     TIP3     OH2      OT      -0.834000       15.9994           0
     42032 TIP3     5905     TIP3     H1       HT       0.417000       1.00800           0
     42033 TIP3     5905     TIP3     H2       HT       0.417000       1.00800           0
     42034 TIP3     5906     TIP3     OH2      OT      -0.834000       15.9994           0
     42035 TIP3     5906     TIP3     H1       HT       0.417000       1.00800           0
     42036 TIP3     5906     TIP3     H2       HT       0.417000       1.00800           0
     42037 TIP3     5907     TIP3     OH2      OT      -0.834000       15.9994           0
     42038 TIP3     5907     TIP3     H1       HT       0.417000       1.00800           0
     42039 TIP3     5907     TIP3     H2       HT       0.417000       1.00800           0
     42040 TIP3     5908     TIP3     OH2      OT      -0.834000       15.9994           0
     42041 TIP3     5908     TIP3     H1       HT       0.417000       1.00800           0
     42042 TIP3     5908     TIP3     H2       HT       0.417000       1.00800           0
     42043 TIP3     5909     TIP3     OH2      OT      -0.834000       15.9994           0
     42044 TIP3     5909     TIP3     H1       HT       0.417000       1.00800           0
     42045 TIP3     5909     TIP3     H2       HT       0.417000       1.00800           0
     42046 TIP3     5910     TIP3     OH2      OT      -0.834000       15.9994           0
     42047 TIP3     5910     TIP3     H1       HT       0.417000       1.00800           0
     42048 TIP3     5910     TIP3     H2       HT       0.417000       1.00800           0
     42049 TIP3     5911     TIP3     OH2      OT      -0.834000       15.9994           0
     42050 TIP3     5911     TIP3     H1       HT       0.417000       1.00800           0
     42051 TIP3     5911     TIP3     H2       HT       0.417000       1.00800           0
     42052 TIP3     5912     TIP3     OH2      OT      -0.834000       15.9994           0
     42053 TIP3     5912     TIP3     H1       HT       0.417000       1.00800           0
     42054 TIP3     5912     TIP3     H2       HT       0.417000       1.00800           0
     42055 TIP3     5913     TIP3     OH2      OT      -0.834000       15.9994           0
     42056 TIP3     5913     TIP3     H1       HT       0.417000       1.00800           0
     42057 TIP3     5913     TIP3     H2       HT       0.417000       1.00800           0
     42058 TIP3     5914     TIP3     OH2      OT      -0.834000       15.9994           0
     42059 TIP3     5914     TIP3     H1       HT       0.417000       1.00800           0
     42060 TIP3     5914     TIP3     H2       HT       0.417000       1.00800           0
     42061 TIP3     5915     TIP3     OH2      OT      -0.834000       15.9994           0
     42062 TIP3     5915     TIP3     H1       HT       0.417000       1.00800           0
     42063 TIP3     5915     TIP3     H2       HT       0.417000       1.00800           0
     42064 TIP3     5916     TIP3     OH2      OT      -0.834000       15.9994           0
     42065 TIP3     5916     TIP3     H1       HT       0.417000       1.00800           0
     42066 TIP3     5916     TIP3     H2       HT       0.417000       1.00800           0
     42067 TIP3     5917     TIP3     OH2      OT      -0.834000       15.9994           0
     42068 TIP3     5917     TIP3     H1       HT       0.417000       1.00800           0
     42069 TIP3     5917     TIP3     H2       HT       0.417000       1.00800           0
     42070 TIP3     5918     TIP3     OH2      OT      -0.834000       15.9994           0
     42071 TIP3     5918     TIP3     H1       HT       0.417000       1.00800           0
     42072 TIP3     5918     TIP3     H2       HT       0.417000       1.00800           0
     42073 TIP3     5919     TIP3     OH2      OT      -0.834000       15.9994           0
     42074 TIP3     5919     TIP3     H1       HT       0.417000       1.00800           0
     42075 TIP3     5919     TIP3     H2       HT       0.417000       1.00800           0
     42076 TIP3     5920     TIP3     OH2      OT      -0.834000       15.9994           0
     42077 TIP3     5920     TIP3     H1       HT       0.417000       1.00800           0
     42078 TIP3     5920     TIP3     H2       HT       0.417000       1.00800           0
     42079 TIP3     5921     TIP3     OH2      OT      -0.834000       15.9994           0
     42080 TIP3     5921     TIP3     H1       HT       0.417000       1.00800           0
     42081 TIP3     5921     TIP3     H2       HT       0.417000       1.00800           0
     42082 TIP3     5922     TIP3     OH2      OT      -0.834000       15.9994           0
     42083 TIP3     5922     TIP3     H1       HT       0.417000       1.00800           0
     42084 TIP3     5922     TIP3     H2       HT       0.417000       1.00800           0
     42085 TIP3     5923     TIP3     OH2      OT      -0.834000       15.9994           0
     42086 TIP3     5923     TIP3     H1       HT       0.417000       1.00800           0
     42087 TIP3     5923     TIP3     H2       HT       0.417000       1.00800           0
     42088 TIP3     5924     TIP3     OH2      OT      -0.834000       15.9994           0
     42089 TIP3     5924     TIP3     H1       HT       0.417000       1.00800           0
     42090 TIP3     5924     TIP3     H2       HT       0.417000       1.00800           0
     42091 TIP3     5925     TIP3     OH2      OT      -0.834000       15.9994           0
     42092 TIP3     5925     TIP3     H1       HT       0.417000       1.00800           0
     42093 TIP3     5925     TIP3     H2       HT       0.417000       1.00800           0
     42094 TIP3     5926     TIP3     OH2      OT      -0.834000       15.9994           0
     42095 TIP3     5926     TIP3     H1       HT       0.417000       1.00800           0
     42096 TIP3     5926     TIP3     H2       HT       0.417000       1.00800           0
     42097 TIP3     5927     TIP3     OH2      OT      -0.834000       15.9994           0
     42098 TIP3     5927     TIP3     H1       HT       0.417000       1.00800           0
     42099 TIP3     5927     TIP3     H2       HT       0.417000       1.00800           0
     42100 TIP3     5928     TIP3     OH2      OT      -0.834000       15.9994           0
     42101 TIP3     5928     TIP3     H1       HT       0.417000       1.00800           0
     42102 TIP3     5928     TIP3     H2       HT       0.417000       1.00800           0
     42103 TIP3     5929     TIP3     OH2      OT      -0.834000       15.9994           0
     42104 TIP3     5929     TIP3     H1       HT       0.417000       1.00800           0
     42105 TIP3     5929     TIP3     H2       HT       0.417000       1.00800           0
     42106 TIP3     5930     TIP3     OH2      OT      -0.834000       15.9994           0
     42107 TIP3     5930     TIP3     H1       HT       0.417000       1.00800           0
     42108 TIP3     5930     TIP3     H2       HT       0.417000       1.00800           0
     42109 TIP3     5931     TIP3     OH2      OT      -0.834000       15.9994           0
     42110 TIP3     5931     TIP3     H1       HT       0.417000       1.00800           0
     42111 TIP3     5931     TIP3     H2       HT       0.417000       1.00800           0
     42112 TIP3     5932     TIP3     OH2      OT      -0.834000       15.9994           0
     42113 TIP3     5932     TIP3     H1       HT       0.417000       1.00800           0
     42114 TIP3     5932     TIP3     H2       HT       0.417000       1.00800           0
     42115 TIP3     5933     TIP3     OH2      OT      -0.834000       15.9994           0
     42116 TIP3     5933     TIP3     H1       HT       0.417000       1.00800           0
     42117 TIP3     5933     TIP3     H2       HT       0.417000       1.00800           0
     42118 TIP3     5934     TIP3     OH2      OT      -0.834000       15.9994           0
     42119 TIP3     5934     TIP3     H1       HT       0.417000       1.00800           0
     42120 TIP3     5934     TIP3     H2       HT       0.417000       1.00800           0
     42121 TIP3     5935     TIP3     OH2      OT      -0.834000       15.9994           0
     42122 TIP3     5935     TIP3     H1       HT       0.417000       1.00800           0
     42123 TIP3     5935     TIP3     H2       HT       0.417000       1.00800           0
     42124 TIP3     5936     TIP3     OH2      OT      -0.834000       15.9994           0
     42125 TIP3     5936     TIP3     H1       HT       0.417000       1.00800           0
     42126 TIP3     5936     TIP3     H2       HT       0.417000       1.00800           0
     42127 TIP3     5937     TIP3     OH2      OT      -0.834000       15.9994           0
     42128 TIP3     5937     TIP3     H1       HT       0.417000       1.00800           0
     42129 TIP3     5937     TIP3     H2       HT       0.417000       1.00800           0
     42130 TIP3     5938     TIP3     OH2      OT      -0.834000       15.9994           0
     42131 TIP3     5938     TIP3     H1       HT       0.417000       1.00800           0
     42132 TIP3     5938     TIP3     H2       HT       0.417000       1.00800           0
     42133 TIP3     5939     TIP3     OH2      OT      -0.834000       15.9994           0
     42134 TIP3     5939     TIP3     H1       HT       0.417000       1.00800           0
     42135 TIP3     5939     TIP3     H2       HT       0.417000       1.00800           0
     42136 TIP3     5940     TIP3     OH2      OT      -0.834000       15.9994           0
     42137 TIP3     5940     TIP3     H1       HT       0.417000       1.00800           0
     42138 TIP3     5940     TIP3     H2       HT       0.417000       1.00800           0
     42139 TIP3     5941     TIP3     OH2      OT      -0.834000       15.9994           0
     42140 TIP3     5941     TIP3     H1       HT       0.417000       1.00800           0
     42141 TIP3     5941     TIP3     H2       HT       0.417000       1.00800           0
     42142 TIP3     5942     TIP3     OH2      OT      -0.834000       15.9994           0
     42143 TIP3     5942     TIP3     H1       HT       0.417000       1.00800           0
     42144 TIP3     5942     TIP3     H2       HT       0.417000       1.00800           0
     42145 TIP3     5943     TIP3     OH2      OT      -0.834000       15.9994           0
     42146 TIP3     5943     TIP3     H1       HT       0.417000       1.00800           0
     42147 TIP3     5943     TIP3     H2       HT       0.417000       1.00800           0
     42148 TIP3     5944     TIP3     OH2      OT      -0.834000       15.9994           0
     42149 TIP3     5944     TIP3     H1       HT       0.417000       1.00800           0
     42150 TIP3     5944     TIP3     H2       HT       0.417000       1.00800           0
     42151 TIP3     5945     TIP3     OH2      OT      -0.834000       15.9994           0
     42152 TIP3     5945     TIP3     H1       HT       0.417000       1.00800           0
     42153 TIP3     5945     TIP3     H2       HT       0.417000       1.00800           0
     42154 TIP3     5946     TIP3     OH2      OT      -0.834000       15.9994           0
     42155 TIP3     5946     TIP3     H1       HT       0.417000       1.00800           0
     42156 TIP3     5946     TIP3     H2       HT       0.417000       1.00800           0
     42157 TIP3     5947     TIP3     OH2      OT      -0.834000       15.9994           0
     42158 TIP3     5947     TIP3     H1       HT       0.417000       1.00800           0
     42159 TIP3     5947     TIP3     H2       HT       0.417000       1.00800           0
     42160 TIP3     5948     TIP3     OH2      OT      -0.834000       15.9994           0
     42161 TIP3     5948     TIP3     H1       HT       0.417000       1.00800           0
     42162 TIP3     5948     TIP3     H2       HT       0.417000       1.00800           0
     42163 TIP3     5949     TIP3     OH2      OT      -0.834000       15.9994           0
     42164 TIP3     5949     TIP3     H1       HT       0.417000       1.00800           0
     42165 TIP3     5949     TIP3     H2       HT       0.417000       1.00800           0
     42166 TIP3     5950     TIP3     OH2      OT      -0.834000       15.9994           0
     42167 TIP3     5950     TIP3     H1       HT       0.417000       1.00800           0
     42168 TIP3     5950     TIP3     H2       HT       0.417000       1.00800           0
     42169 TIP3     5951     TIP3     OH2      OT      -0.834000       15.9994           0
     42170 TIP3     5951     TIP3     H1       HT       0.417000       1.00800           0
     42171 TIP3     5951     TIP3     H2       HT       0.417000       1.00800           0
     42172 TIP3     5952     TIP3     OH2      OT      -0.834000       15.9994           0
     42173 TIP3     5952     TIP3     H1       HT       0.417000       1.00800           0
     42174 TIP3     5952     TIP3     H2       HT       0.417000       1.00800           0
     42175 TIP3     5953     TIP3     OH2      OT      -0.834000       15.9994           0
     42176 TIP3     5953     TIP3     H1       HT       0.417000       1.00800           0
     42177 TIP3     5953     TIP3     H2       HT       0.417000       1.00800           0
     42178 TIP3     5954     TIP3     OH2      OT      -0.834000       15.9994           0
     42179 TIP3     5954     TIP3     H1       HT       0.417000       1.00800           0
     42180 TIP3     5954     TIP3     H2       HT       0.417000       1.00800           0
     42181 TIP3     5955     TIP3     OH2      OT      -0.834000       15.9994           0
     42182 TIP3     5955     TIP3     H1       HT       0.417000       1.00800           0
     42183 TIP3     5955     TIP3     H2       HT       0.417000       1.00800           0
     42184 TIP3     5956     TIP3     OH2      OT      -0.834000       15.9994           0
     42185 TIP3     5956     TIP3     H1       HT       0.417000       1.00800           0
     42186 TIP3     5956     TIP3     H2       HT       0.417000       1.00800           0
     42187 TIP3     5957     TIP3     OH2      OT      -0.834000       15.9994           0
     42188 TIP3     5957     TIP3     H1       HT       0.417000       1.00800           0
     42189 TIP3     5957     TIP3     H2       HT       0.417000       1.00800           0
     42190 TIP3     5958     TIP3     OH2      OT      -0.834000       15.9994           0
     42191 TIP3     5958     TIP3     H1       HT       0.417000       1.00800           0
     42192 TIP3     5958     TIP3     H2       HT       0.417000       1.00800           0
     42193 TIP3     5959     TIP3     OH2      OT      -0.834000       15.9994           0
     42194 TIP3     5959     TIP3     H1       HT       0.417000       1.00800           0
     42195 TIP3     5959     TIP3     H2       HT       0.417000       1.00800           0
     42196 TIP3     5960     TIP3     OH2      OT      -0.834000       15.9994           0
     42197 TIP3     5960     TIP3     H1       HT       0.417000       1.00800           0
     42198 TIP3     5960     TIP3     H2       HT       0.417000       1.00800           0
     42199 TIP3     5961     TIP3     OH2      OT      -0.834000       15.9994           0
     42200 TIP3     5961     TIP3     H1       HT       0.417000       1.00800           0
     42201 TIP3     5961     TIP3     H2       HT       0.417000       1.00800           0
     42202 TIP3     5962     TIP3     OH2      OT      -0.834000       15.9994           0
     42203 TIP3     5962     TIP3     H1       HT       0.417000       1.00800           0
     42204 TIP3     5962     TIP3     H2       HT       0.417000       1.00800           0
     42205 TIP3     5963     TIP3     OH2      OT      -0.834000       15.9994           0
     42206 TIP3     5963     TIP3     H1       HT       0.417000       1.00800           0
     42207 TIP3     5963     TIP3     H2       HT       0.417000       1.00800           0
     42208 TIP3     5964     TIP3     OH2      OT      -0.834000       15.9994           0
     42209 TIP3     5964     TIP3     H1       HT       0.417000       1.00800           0
     42210 TIP3     5964     TIP3     H2       HT       0.417000       1.00800           0
     42211 TIP3     5965     TIP3     OH2      OT      -0.834000       15.9994           0
     42212 TIP3     5965     TIP3     H1       HT       0.417000       1.00800           0
     42213 TIP3     5965     TIP3     H2       HT       0.417000       1.00800           0
     42214 TIP3     5966     TIP3     OH2      OT      -0.834000       15.9994           0
     42215 TIP3     5966     TIP3     H1       HT       0.417000       1.00800           0
     42216 TIP3     5966     TIP3     H2       HT       0.417000       1.00800           0
     42217 TIP3     5967     TIP3     OH2      OT      -0.834000       15.9994           0
     42218 TIP3     5967     TIP3     H1       HT       0.417000       1.00800           0
     42219 TIP3     5967     TIP3     H2       HT       0.417000       1.00800           0
     42220 TIP3     5968     TIP3     OH2      OT      -0.834000       15.9994           0
     42221 TIP3     5968     TIP3     H1       HT       0.417000       1.00800           0
     42222 TIP3     5968     TIP3     H2       HT       0.417000       1.00800           0
     42223 TIP3     5969     TIP3     OH2      OT      -0.834000       15.9994           0
     42224 TIP3     5969     TIP3     H1       HT       0.417000       1.00800           0
     42225 TIP3     5969     TIP3     H2       HT       0.417000       1.00800           0
     42226 TIP3     5970     TIP3     OH2      OT      -0.834000       15.9994           0
     42227 TIP3     5970     TIP3     H1       HT       0.417000       1.00800           0
     42228 TIP3     5970     TIP3     H2       HT       0.417000       1.00800           0
     42229 TIP3     5971     TIP3     OH2      OT      -0.834000       15.9994           0
     42230 TIP3     5971     TIP3     H1       HT       0.417000       1.00800           0
     42231 TIP3     5971     TIP3     H2       HT       0.417000       1.00800           0
     42232 TIP3     5972     TIP3     OH2      OT      -0.834000       15.9994           0
     42233 TIP3     5972     TIP3     H1       HT       0.417000       1.00800           0
     42234 TIP3     5972     TIP3     H2       HT       0.417000       1.00800           0
     42235 TIP3     5973     TIP3     OH2      OT      -0.834000       15.9994           0
     42236 TIP3     5973     TIP3     H1       HT       0.417000       1.00800           0
     42237 TIP3     5973     TIP3     H2       HT       0.417000       1.00800           0
     42238 TIP3     5974     TIP3     OH2      OT      -0.834000       15.9994           0
     42239 TIP3     5974     TIP3     H1       HT       0.417000       1.00800           0
     42240 TIP3     5974     TIP3     H2       HT       0.417000       1.00800           0
     42241 TIP3     5975     TIP3     OH2      OT      -0.834000       15.9994           0
     42242 TIP3     5975     TIP3     H1       HT       0.417000       1.00800           0
     42243 TIP3     5975     TIP3     H2       HT       0.417000       1.00800           0
     42244 TIP3     5976     TIP3     OH2      OT      -0.834000       15.9994           0
     42245 TIP3     5976     TIP3     H1       HT       0.417000       1.00800           0
     42246 TIP3     5976     TIP3     H2       HT       0.417000       1.00800           0
     42247 TIP3     5977     TIP3     OH2      OT      -0.834000       15.9994           0
     42248 TIP3     5977     TIP3     H1       HT       0.417000       1.00800           0
     42249 TIP3     5977     TIP3     H2       HT       0.417000       1.00800           0
     42250 TIP3     5978     TIP3     OH2      OT      -0.834000       15.9994           0
     42251 TIP3     5978     TIP3     H1       HT       0.417000       1.00800           0
     42252 TIP3     5978     TIP3     H2       HT       0.417000       1.00800           0
     42253 TIP3     5979     TIP3     OH2      OT      -0.834000       15.9994           0
     42254 TIP3     5979     TIP3     H1       HT       0.417000       1.00800           0
     42255 TIP3     5979     TIP3     H2       HT       0.417000       1.00800           0
     42256 TIP3     5980     TIP3     OH2      OT      -0.834000       15.9994           0
     42257 TIP3     5980     TIP3     H1       HT       0.417000       1.00800           0
     42258 TIP3     5980     TIP3     H2       HT       0.417000       1.00800           0
     42259 TIP3     5981     TIP3     OH2      OT      -0.834000       15.9994           0
     42260 TIP3     5981     TIP3     H1       HT       0.417000       1.00800           0
     42261 TIP3     5981     TIP3     H2       HT       0.417000       1.00800           0
     42262 TIP3     5982     TIP3     OH2      OT      -0.834000       15.9994           0
     42263 TIP3     5982     TIP3     H1       HT       0.417000       1.00800           0
     42264 TIP3     5982     TIP3     H2       HT       0.417000       1.00800           0
     42265 TIP3     5983     TIP3     OH2      OT      -0.834000       15.9994           0
     42266 TIP3     5983     TIP3     H1       HT       0.417000       1.00800           0
     42267 TIP3     5983     TIP3     H2       HT       0.417000       1.00800           0
     42268 TIP3     5984     TIP3     OH2      OT      -0.834000       15.9994           0
     42269 TIP3     5984     TIP3     H1       HT       0.417000       1.00800           0
     42270 TIP3     5984     TIP3     H2       HT       0.417000       1.00800           0
     42271 TIP3     5985     TIP3     OH2      OT      -0.834000       15.9994           0
     42272 TIP3     5985     TIP3     H1       HT       0.417000       1.00800           0
     42273 TIP3     5985     TIP3     H2       HT       0.417000       1.00800           0
     42274 TIP3     5986     TIP3     OH2      OT      -0.834000       15.9994           0
     42275 TIP3     5986     TIP3     H1       HT       0.417000       1.00800           0
     42276 TIP3     5986     TIP3     H2       HT       0.417000       1.00800           0
     42277 TIP3     5987     TIP3     OH2      OT      -0.834000       15.9994           0
     42278 TIP3     5987     TIP3     H1       HT       0.417000       1.00800           0
     42279 TIP3     5987     TIP3     H2       HT       0.417000       1.00800           0
     42280 TIP3     5988     TIP3     OH2      OT      -0.834000       15.9994           0
     42281 TIP3     5988     TIP3     H1       HT       0.417000       1.00800           0
     42282 TIP3     5988     TIP3     H2       HT       0.417000       1.00800           0
     42283 TIP3     5989     TIP3     OH2      OT      -0.834000       15.9994           0
     42284 TIP3     5989     TIP3     H1       HT       0.417000       1.00800           0
     42285 TIP3     5989     TIP3     H2       HT       0.417000       1.00800           0
     42286 TIP3     5990     TIP3     OH2      OT      -0.834000       15.9994           0
     42287 TIP3     5990     TIP3     H1       HT       0.417000       1.00800           0
     42288 TIP3     5990     TIP3     H2       HT       0.417000       1.00800           0
     42289 TIP3     5991     TIP3     OH2      OT      -0.834000       15.9994           0
     42290 TIP3     5991     TIP3     H1       HT       0.417000       1.00800           0
     42291 TIP3     5991     TIP3     H2       HT       0.417000       1.00800           0
     42292 TIP3     5992     TIP3     OH2      OT      -0.834000       15.9994           0
     42293 TIP3     5992     TIP3     H1       HT       0.417000       1.00800           0
     42294 TIP3     5992     TIP3     H2       HT       0.417000       1.00800           0
     42295 TIP3     5993     TIP3     OH2      OT      -0.834000       15.9994           0
     42296 TIP3     5993     TIP3     H1       HT       0.417000       1.00800           0
     42297 TIP3     5993     TIP3     H2       HT       0.417000       1.00800           0
     42298 TIP3     5994     TIP3     OH2      OT      -0.834000       15.9994           0
     42299 TIP3     5994     TIP3     H1       HT       0.417000       1.00800           0
     42300 TIP3     5994     TIP3     H2       HT       0.417000       1.00800           0
     42301 TIP3     5995     TIP3     OH2      OT      -0.834000       15.9994           0
     42302 TIP3     5995     TIP3     H1       HT       0.417000       1.00800           0
     42303 TIP3     5995     TIP3     H2       HT       0.417000       1.00800           0
     42304 TIP3     5996     TIP3     OH2      OT      -0.834000       15.9994           0
     42305 TIP3     5996     TIP3     H1       HT       0.417000       1.00800           0
     42306 TIP3     5996     TIP3     H2       HT       0.417000       1.00800           0
     42307 TIP3     5997     TIP3     OH2      OT      -0.834000       15.9994           0
     42308 TIP3     5997     TIP3     H1       HT       0.417000       1.00800           0
     42309 TIP3     5997     TIP3     H2       HT       0.417000       1.00800           0
     42310 TIP3     5998     TIP3     OH2      OT      -0.834000       15.9994           0
     42311 TIP3     5998     TIP3     H1       HT       0.417000       1.00800           0
     42312 TIP3     5998     TIP3     H2       HT       0.417000       1.00800           0
     42313 TIP3     5999     TIP3     OH2      OT      -0.834000       15.9994           0
     42314 TIP3     5999     TIP3     H1       HT       0.417000       1.00800           0
     42315 TIP3     5999     TIP3     H2       HT       0.417000       1.00800           0
     42316 TIP3     6000     TIP3     OH2      OT      -0.834000       15.9994           0
     42317 TIP3     6000     TIP3     H1       HT       0.417000       1.00800           0
     42318 TIP3     6000     TIP3     H2       HT       0.417000       1.00800           0
     42319 TIP3     6001     TIP3     OH2      OT      -0.834000       15.9994           0
     42320 TIP3     6001     TIP3     H1       HT       0.417000       1.00800           0
     42321 TIP3     6001     TIP3     H2       HT       0.417000       1.00800           0
     42322 TIP3     6002     TIP3     OH2      OT      -0.834000       15.9994           0
     42323 TIP3     6002     TIP3     H1       HT       0.417000       1.00800           0
     42324 TIP3     6002     TIP3     H2       HT       0.417000       1.00800           0
     42325 TIP3     6003     TIP3     OH2      OT      -0.834000       15.9994           0
     42326 TIP3     6003     TIP3     H1       HT       0.417000       1.00800           0
     42327 TIP3     6003     TIP3     H2       HT       0.417000       1.00800           0
     42328 TIP3     6004     TIP3     OH2      OT      -0.834000       15.9994           0
     42329 TIP3     6004     TIP3     H1       HT       0.417000       1.00800           0
     42330 TIP3     6004     TIP3     H2       HT       0.417000       1.00800           0
     42331 TIP3     6005     TIP3     OH2      OT      -0.834000       15.9994           0
     42332 TIP3     6005     TIP3     H1       HT       0.417000       1.00800           0
     42333 TIP3     6005     TIP3     H2       HT       0.417000       1.00800           0
     42334 TIP3     6006     TIP3     OH2      OT      -0.834000       15.9994           0
     42335 TIP3     6006     TIP3     H1       HT       0.417000       1.00800           0
     42336 TIP3     6006     TIP3     H2       HT       0.417000       1.00800           0
     42337 TIP3     6007     TIP3     OH2      OT      -0.834000       15.9994           0
     42338 TIP3     6007     TIP3     H1       HT       0.417000       1.00800           0
     42339 TIP3     6007     TIP3     H2       HT       0.417000       1.00800           0
     42340 TIP3     6008     TIP3     OH2      OT      -0.834000       15.9994           0
     42341 TIP3     6008     TIP3     H1       HT       0.417000       1.00800           0
     42342 TIP3     6008     TIP3     H2       HT       0.417000       1.00800           0
     42343 TIP3     6009     TIP3     OH2      OT      -0.834000       15.9994           0
     42344 TIP3     6009     TIP3     H1       HT       0.417000       1.00800           0
     42345 TIP3     6009     TIP3     H2       HT       0.417000       1.00800           0
     42346 TIP3     6010     TIP3     OH2      OT      -0.834000       15.9994           0
     42347 TIP3     6010     TIP3     H1       HT       0.417000       1.00800           0
     42348 TIP3     6010     TIP3     H2       HT       0.417000       1.00800           0
     42349 TIP3     6011     TIP3     OH2      OT      -0.834000       15.9994           0
     42350 TIP3     6011     TIP3     H1       HT       0.417000       1.00800           0
     42351 TIP3     6011     TIP3     H2       HT       0.417000       1.00800           0
     42352 TIP3     6012     TIP3     OH2      OT      -0.834000       15.9994           0
     42353 TIP3     6012     TIP3     H1       HT       0.417000       1.00800           0
     42354 TIP3     6012     TIP3     H2       HT       0.417000       1.00800           0
     42355 TIP3     6013     TIP3     OH2      OT      -0.834000       15.9994           0
     42356 TIP3     6013     TIP3     H1       HT       0.417000       1.00800           0
     42357 TIP3     6013     TIP3     H2       HT       0.417000       1.00800           0
     42358 TIP3     6014     TIP3     OH2      OT      -0.834000       15.9994           0
     42359 TIP3     6014     TIP3     H1       HT       0.417000       1.00800           0
     42360 TIP3     6014     TIP3     H2       HT       0.417000       1.00800           0
     42361 TIP3     6015     TIP3     OH2      OT      -0.834000       15.9994           0
     42362 TIP3     6015     TIP3     H1       HT       0.417000       1.00800           0
     42363 TIP3     6015     TIP3     H2       HT       0.417000       1.00800           0
     42364 TIP3     6016     TIP3     OH2      OT      -0.834000       15.9994           0
     42365 TIP3     6016     TIP3     H1       HT       0.417000       1.00800           0
     42366 TIP3     6016     TIP3     H2       HT       0.417000       1.00800           0
     42367 TIP3     6017     TIP3     OH2      OT      -0.834000       15.9994           0
     42368 TIP3     6017     TIP3     H1       HT       0.417000       1.00800           0
     42369 TIP3     6017     TIP3     H2       HT       0.417000       1.00800           0
     42370 TIP3     6018     TIP3     OH2      OT      -0.834000       15.9994           0
     42371 TIP3     6018     TIP3     H1       HT       0.417000       1.00800           0
     42372 TIP3     6018     TIP3     H2       HT       0.417000       1.00800           0
     42373 TIP3     6019     TIP3     OH2      OT      -0.834000       15.9994           0
     42374 TIP3     6019     TIP3     H1       HT       0.417000       1.00800           0
     42375 TIP3     6019     TIP3     H2       HT       0.417000       1.00800           0
     42376 TIP3     6020     TIP3     OH2      OT      -0.834000       15.9994           0
     42377 TIP3     6020     TIP3     H1       HT       0.417000       1.00800           0
     42378 TIP3     6020     TIP3     H2       HT       0.417000       1.00800           0
     42379 TIP3     6021     TIP3     OH2      OT      -0.834000       15.9994           0
     42380 TIP3     6021     TIP3     H1       HT       0.417000       1.00800           0
     42381 TIP3     6021     TIP3     H2       HT       0.417000       1.00800           0
     42382 TIP3     6022     TIP3     OH2      OT      -0.834000       15.9994           0
     42383 TIP3     6022     TIP3     H1       HT       0.417000       1.00800           0
     42384 TIP3     6022     TIP3     H2       HT       0.417000       1.00800           0
     42385 TIP3     6023     TIP3     OH2      OT      -0.834000       15.9994           0
     42386 TIP3     6023     TIP3     H1       HT       0.417000       1.00800           0
     42387 TIP3     6023     TIP3     H2       HT       0.417000       1.00800           0
     42388 TIP3     6024     TIP3     OH2      OT      -0.834000       15.9994           0
     42389 TIP3     6024     TIP3     H1       HT       0.417000       1.00800           0
     42390 TIP3     6024     TIP3     H2       HT       0.417000       1.00800           0
     42391 TIP3     6025     TIP3     OH2      OT      -0.834000       15.9994           0
     42392 TIP3     6025     TIP3     H1       HT       0.417000       1.00800           0
     42393 TIP3     6025     TIP3     H2       HT       0.417000       1.00800           0
     42394 TIP3     6026     TIP3     OH2      OT      -0.834000       15.9994           0
     42395 TIP3     6026     TIP3     H1       HT       0.417000       1.00800           0
     42396 TIP3     6026     TIP3     H2       HT       0.417000       1.00800           0
     42397 TIP3     6027     TIP3     OH2      OT      -0.834000       15.9994           0
     42398 TIP3     6027     TIP3     H1       HT       0.417000       1.00800           0
     42399 TIP3     6027     TIP3     H2       HT       0.417000       1.00800           0
     42400 TIP3     6028     TIP3     OH2      OT      -0.834000       15.9994           0
     42401 TIP3     6028     TIP3     H1       HT       0.417000       1.00800           0
     42402 TIP3     6028     TIP3     H2       HT       0.417000       1.00800           0
     42403 TIP3     6029     TIP3     OH2      OT      -0.834000       15.9994           0
     42404 TIP3     6029     TIP3     H1       HT       0.417000       1.00800           0
     42405 TIP3     6029     TIP3     H2       HT       0.417000       1.00800           0
     42406 TIP3     6030     TIP3     OH2      OT      -0.834000       15.9994           0
     42407 TIP3     6030     TIP3     H1       HT       0.417000       1.00800           0
     42408 TIP3     6030     TIP3     H2       HT       0.417000       1.00800           0
     42409 TIP3     6031     TIP3     OH2      OT      -0.834000       15.9994           0
     42410 TIP3     6031     TIP3     H1       HT       0.417000       1.00800           0
     42411 TIP3     6031     TIP3     H2       HT       0.417000       1.00800           0
     42412 TIP3     6032     TIP3     OH2      OT      -0.834000       15.9994           0
     42413 TIP3     6032     TIP3     H1       HT       0.417000       1.00800           0
     42414 TIP3     6032     TIP3     H2       HT       0.417000       1.00800           0
     42415 TIP3     6033     TIP3     OH2      OT      -0.834000       15.9994           0
     42416 TIP3     6033     TIP3     H1       HT       0.417000       1.00800           0
     42417 TIP3     6033     TIP3     H2       HT       0.417000       1.00800           0
     42418 TIP3     6034     TIP3     OH2      OT      -0.834000       15.9994           0
     42419 TIP3     6034     TIP3     H1       HT       0.417000       1.00800           0
     42420 TIP3     6034     TIP3     H2       HT       0.417000       1.00800           0
     42421 TIP3     6035     TIP3     OH2      OT      -0.834000       15.9994           0
     42422 TIP3     6035     TIP3     H1       HT       0.417000       1.00800           0
     42423 TIP3     6035     TIP3     H2       HT       0.417000       1.00800           0
     42424 TIP3     6036     TIP3     OH2      OT      -0.834000       15.9994           0
     42425 TIP3     6036     TIP3     H1       HT       0.417000       1.00800           0
     42426 TIP3     6036     TIP3     H2       HT       0.417000       1.00800           0
     42427 TIP3     6037     TIP3     OH2      OT      -0.834000       15.9994           0
     42428 TIP3     6037     TIP3     H1       HT       0.417000       1.00800           0
     42429 TIP3     6037     TIP3     H2       HT       0.417000       1.00800           0
     42430 TIP3     6038     TIP3     OH2      OT      -0.834000       15.9994           0
     42431 TIP3     6038     TIP3     H1       HT       0.417000       1.00800           0
     42432 TIP3     6038     TIP3     H2       HT       0.417000       1.00800           0
     42433 TIP3     6039     TIP3     OH2      OT      -0.834000       15.9994           0
     42434 TIP3     6039     TIP3     H1       HT       0.417000       1.00800           0
     42435 TIP3     6039     TIP3     H2       HT       0.417000       1.00800           0
     42436 TIP3     6040     TIP3     OH2      OT      -0.834000       15.9994           0
     42437 TIP3     6040     TIP3     H1       HT       0.417000       1.00800           0
     42438 TIP3     6040     TIP3     H2       HT       0.417000       1.00800           0
     42439 TIP3     6041     TIP3     OH2      OT      -0.834000       15.9994           0
     42440 TIP3     6041     TIP3     H1       HT       0.417000       1.00800           0
     42441 TIP3     6041     TIP3     H2       HT       0.417000       1.00800           0
     42442 TIP3     6042     TIP3     OH2      OT      -0.834000       15.9994           0
     42443 TIP3     6042     TIP3     H1       HT       0.417000       1.00800           0
     42444 TIP3     6042     TIP3     H2       HT       0.417000       1.00800           0
     42445 TIP3     6043     TIP3     OH2      OT      -0.834000       15.9994           0
     42446 TIP3     6043     TIP3     H1       HT       0.417000       1.00800           0
     42447 TIP3     6043     TIP3     H2       HT       0.417000       1.00800           0
     42448 TIP3     6044     TIP3     OH2      OT      -0.834000       15.9994           0
     42449 TIP3     6044     TIP3     H1       HT       0.417000       1.00800           0
     42450 TIP3     6044     TIP3     H2       HT       0.417000       1.00800           0
     42451 TIP3     6045     TIP3     OH2      OT      -0.834000       15.9994           0
     42452 TIP3     6045     TIP3     H1       HT       0.417000       1.00800           0
     42453 TIP3     6045     TIP3     H2       HT       0.417000       1.00800           0
     42454 TIP3     6046     TIP3     OH2      OT      -0.834000       15.9994           0
     42455 TIP3     6046     TIP3     H1       HT       0.417000       1.00800           0
     42456 TIP3     6046     TIP3     H2       HT       0.417000       1.00800           0
     42457 TIP3     6047     TIP3     OH2      OT      -0.834000       15.9994           0
     42458 TIP3     6047     TIP3     H1       HT       0.417000       1.00800           0
     42459 TIP3     6047     TIP3     H2       HT       0.417000       1.00800           0
     42460 TIP3     6048     TIP3     OH2      OT      -0.834000       15.9994           0
     42461 TIP3     6048     TIP3     H1       HT       0.417000       1.00800           0
     42462 TIP3     6048     TIP3     H2       HT       0.417000       1.00800           0
     42463 TIP3     6049     TIP3     OH2      OT      -0.834000       15.9994           0
     42464 TIP3     6049     TIP3     H1       HT       0.417000       1.00800           0
     42465 TIP3     6049     TIP3     H2       HT       0.417000       1.00800           0
     42466 TIP3     6050     TIP3     OH2      OT      -0.834000       15.9994           0
     42467 TIP3     6050     TIP3     H1       HT       0.417000       1.00800           0
     42468 TIP3     6050     TIP3     H2       HT       0.417000       1.00800           0
     42469 TIP3     6051     TIP3     OH2      OT      -0.834000       15.9994           0
     42470 TIP3     6051     TIP3     H1       HT       0.417000       1.00800           0
     42471 TIP3     6051     TIP3     H2       HT       0.417000       1.00800           0
     42472 TIP3     6052     TIP3     OH2      OT      -0.834000       15.9994           0
     42473 TIP3     6052     TIP3     H1       HT       0.417000       1.00800           0
     42474 TIP3     6052     TIP3     H2       HT       0.417000       1.00800           0
     42475 TIP3     6053     TIP3     OH2      OT      -0.834000       15.9994           0
     42476 TIP3     6053     TIP3     H1       HT       0.417000       1.00800           0
     42477 TIP3     6053     TIP3     H2       HT       0.417000       1.00800           0
     42478 TIP3     6054     TIP3     OH2      OT      -0.834000       15.9994           0
     42479 TIP3     6054     TIP3     H1       HT       0.417000       1.00800           0
     42480 TIP3     6054     TIP3     H2       HT       0.417000       1.00800           0
     42481 TIP3     6055     TIP3     OH2      OT      -0.834000       15.9994           0
     42482 TIP3     6055     TIP3     H1       HT       0.417000       1.00800           0
     42483 TIP3     6055     TIP3     H2       HT       0.417000       1.00800           0
     42484 TIP3     6056     TIP3     OH2      OT      -0.834000       15.9994           0
     42485 TIP3     6056     TIP3     H1       HT       0.417000       1.00800           0
     42486 TIP3     6056     TIP3     H2       HT       0.417000       1.00800           0
     42487 TIP3     6057     TIP3     OH2      OT      -0.834000       15.9994           0
     42488 TIP3     6057     TIP3     H1       HT       0.417000       1.00800           0
     42489 TIP3     6057     TIP3     H2       HT       0.417000       1.00800           0
     42490 TIP3     6058     TIP3     OH2      OT      -0.834000       15.9994           0
     42491 TIP3     6058     TIP3     H1       HT       0.417000       1.00800           0
     42492 TIP3     6058     TIP3     H2       HT       0.417000       1.00800           0
     42493 TIP3     6059     TIP3     OH2      OT      -0.834000       15.9994           0
     42494 TIP3     6059     TIP3     H1       HT       0.417000       1.00800           0
     42495 TIP3     6059     TIP3     H2       HT       0.417000       1.00800           0
     42496 TIP3     6060     TIP3     OH2      OT      -0.834000       15.9994           0
     42497 TIP3     6060     TIP3     H1       HT       0.417000       1.00800           0
     42498 TIP3     6060     TIP3     H2       HT       0.417000       1.00800           0
     42499 TIP3     6061     TIP3     OH2      OT      -0.834000       15.9994           0
     42500 TIP3     6061     TIP3     H1       HT       0.417000       1.00800           0
     42501 TIP3     6061     TIP3     H2       HT       0.417000       1.00800           0
     42502 TIP3     6062     TIP3     OH2      OT      -0.834000       15.9994           0
     42503 TIP3     6062     TIP3     H1       HT       0.417000       1.00800           0
     42504 TIP3     6062     TIP3     H2       HT       0.417000       1.00800           0
     42505 TIP3     6063     TIP3     OH2      OT      -0.834000       15.9994           0
     42506 TIP3     6063     TIP3     H1       HT       0.417000       1.00800           0
     42507 TIP3     6063     TIP3     H2       HT       0.417000       1.00800           0
     42508 TIP3     6064     TIP3     OH2      OT      -0.834000       15.9994           0
     42509 TIP3     6064     TIP3     H1       HT       0.417000       1.00800           0
     42510 TIP3     6064     TIP3     H2       HT       0.417000       1.00800           0
     42511 TIP3     6065     TIP3     OH2      OT      -0.834000       15.9994           0
     42512 TIP3     6065     TIP3     H1       HT       0.417000       1.00800           0
     42513 TIP3     6065     TIP3     H2       HT       0.417000       1.00800           0
     42514 TIP3     6066     TIP3     OH2      OT      -0.834000       15.9994           0
     42515 TIP3     6066     TIP3     H1       HT       0.417000       1.00800           0
     42516 TIP3     6066     TIP3     H2       HT       0.417000       1.00800           0
     42517 TIP3     6067     TIP3     OH2      OT      -0.834000       15.9994           0
     42518 TIP3     6067     TIP3     H1       HT       0.417000       1.00800           0
     42519 TIP3     6067     TIP3     H2       HT       0.417000       1.00800           0
     42520 TIP3     6068     TIP3     OH2      OT      -0.834000       15.9994           0
     42521 TIP3     6068     TIP3     H1       HT       0.417000       1.00800           0
     42522 TIP3     6068     TIP3     H2       HT       0.417000       1.00800           0
     42523 TIP3     6069     TIP3     OH2      OT      -0.834000       15.9994           0
     42524 TIP3     6069     TIP3     H1       HT       0.417000       1.00800           0
     42525 TIP3     6069     TIP3     H2       HT       0.417000       1.00800           0
     42526 TIP3     6070     TIP3     OH2      OT      -0.834000       15.9994           0
     42527 TIP3     6070     TIP3     H1       HT       0.417000       1.00800           0
     42528 TIP3     6070     TIP3     H2       HT       0.417000       1.00800           0
     42529 TIP3     6071     TIP3     OH2      OT      -0.834000       15.9994           0
     42530 TIP3     6071     TIP3     H1       HT       0.417000       1.00800           0
     42531 TIP3     6071     TIP3     H2       HT       0.417000       1.00800           0
     42532 TIP3     6072     TIP3     OH2      OT      -0.834000       15.9994           0
     42533 TIP3     6072     TIP3     H1       HT       0.417000       1.00800           0
     42534 TIP3     6072     TIP3     H2       HT       0.417000       1.00800           0
     42535 TIP3     6073     TIP3     OH2      OT      -0.834000       15.9994           0
     42536 TIP3     6073     TIP3     H1       HT       0.417000       1.00800           0
     42537 TIP3     6073     TIP3     H2       HT       0.417000       1.00800           0
     42538 TIP3     6074     TIP3     OH2      OT      -0.834000       15.9994           0
     42539 TIP3     6074     TIP3     H1       HT       0.417000       1.00800           0
     42540 TIP3     6074     TIP3     H2       HT       0.417000       1.00800           0
     42541 TIP3     6075     TIP3     OH2      OT      -0.834000       15.9994           0
     42542 TIP3     6075     TIP3     H1       HT       0.417000       1.00800           0
     42543 TIP3     6075     TIP3     H2       HT       0.417000       1.00800           0
     42544 TIP3     6076     TIP3     OH2      OT      -0.834000       15.9994           0
     42545 TIP3     6076     TIP3     H1       HT       0.417000       1.00800           0
     42546 TIP3     6076     TIP3     H2       HT       0.417000       1.00800           0
     42547 TIP3     6077     TIP3     OH2      OT      -0.834000       15.9994           0
     42548 TIP3     6077     TIP3     H1       HT       0.417000       1.00800           0
     42549 TIP3     6077     TIP3     H2       HT       0.417000       1.00800           0
     42550 TIP3     6078     TIP3     OH2      OT      -0.834000       15.9994           0
     42551 TIP3     6078     TIP3     H1       HT       0.417000       1.00800           0
     42552 TIP3     6078     TIP3     H2       HT       0.417000       1.00800           0
     42553 TIP3     6079     TIP3     OH2      OT      -0.834000       15.9994           0
     42554 TIP3     6079     TIP3     H1       HT       0.417000       1.00800           0
     42555 TIP3     6079     TIP3     H2       HT       0.417000       1.00800           0
     42556 TIP3     6080     TIP3     OH2      OT      -0.834000       15.9994           0
     42557 TIP3     6080     TIP3     H1       HT       0.417000       1.00800           0
     42558 TIP3     6080     TIP3     H2       HT       0.417000       1.00800           0
     42559 TIP3     6081     TIP3     OH2      OT      -0.834000       15.9994           0
     42560 TIP3     6081     TIP3     H1       HT       0.417000       1.00800           0
     42561 TIP3     6081     TIP3     H2       HT       0.417000       1.00800           0
     42562 TIP3     6082     TIP3     OH2      OT      -0.834000       15.9994           0
     42563 TIP3     6082     TIP3     H1       HT       0.417000       1.00800           0
     42564 TIP3     6082     TIP3     H2       HT       0.417000       1.00800           0
     42565 TIP3     6083     TIP3     OH2      OT      -0.834000       15.9994           0
     42566 TIP3     6083     TIP3     H1       HT       0.417000       1.00800           0
     42567 TIP3     6083     TIP3     H2       HT       0.417000       1.00800           0
     42568 TIP3     6084     TIP3     OH2      OT      -0.834000       15.9994           0
     42569 TIP3     6084     TIP3     H1       HT       0.417000       1.00800           0
     42570 TIP3     6084     TIP3     H2       HT       0.417000       1.00800           0
     42571 TIP3     6085     TIP3     OH2      OT      -0.834000       15.9994           0
     42572 TIP3     6085     TIP3     H1       HT       0.417000       1.00800           0
     42573 TIP3     6085     TIP3     H2       HT       0.417000       1.00800           0
     42574 TIP3     6086     TIP3     OH2      OT      -0.834000       15.9994           0
     42575 TIP3     6086     TIP3     H1       HT       0.417000       1.00800           0
     42576 TIP3     6086     TIP3     H2       HT       0.417000       1.00800           0
     42577 TIP3     6087     TIP3     OH2      OT      -0.834000       15.9994           0
     42578 TIP3     6087     TIP3     H1       HT       0.417000       1.00800           0
     42579 TIP3     6087     TIP3     H2       HT       0.417000       1.00800           0
     42580 TIP3     6088     TIP3     OH2      OT      -0.834000       15.9994           0
     42581 TIP3     6088     TIP3     H1       HT       0.417000       1.00800           0
     42582 TIP3     6088     TIP3     H2       HT       0.417000       1.00800           0
     42583 TIP3     6089     TIP3     OH2      OT      -0.834000       15.9994           0
     42584 TIP3     6089     TIP3     H1       HT       0.417000       1.00800           0
     42585 TIP3     6089     TIP3     H2       HT       0.417000       1.00800           0
     42586 TIP3     6090     TIP3     OH2      OT      -0.834000       15.9994           0
     42587 TIP3     6090     TIP3     H1       HT       0.417000       1.00800           0
     42588 TIP3     6090     TIP3     H2       HT       0.417000       1.00800           0
     42589 TIP3     6091     TIP3     OH2      OT      -0.834000       15.9994           0
     42590 TIP3     6091     TIP3     H1       HT       0.417000       1.00800           0
     42591 TIP3     6091     TIP3     H2       HT       0.417000       1.00800           0
     42592 TIP3     6092     TIP3     OH2      OT      -0.834000       15.9994           0
     42593 TIP3     6092     TIP3     H1       HT       0.417000       1.00800           0
     42594 TIP3     6092     TIP3     H2       HT       0.417000       1.00800           0
     42595 TIP3     6093     TIP3     OH2      OT      -0.834000       15.9994           0
     42596 TIP3     6093     TIP3     H1       HT       0.417000       1.00800           0
     42597 TIP3     6093     TIP3     H2       HT       0.417000       1.00800           0
     42598 TIP3     6094     TIP3     OH2      OT      -0.834000       15.9994           0
     42599 TIP3     6094     TIP3     H1       HT       0.417000       1.00800           0
     42600 TIP3     6094     TIP3     H2       HT       0.417000       1.00800           0
     42601 TIP3     6095     TIP3     OH2      OT      -0.834000       15.9994           0
     42602 TIP3     6095     TIP3     H1       HT       0.417000       1.00800           0
     42603 TIP3     6095     TIP3     H2       HT       0.417000       1.00800           0
     42604 TIP3     6096     TIP3     OH2      OT      -0.834000       15.9994           0
     42605 TIP3     6096     TIP3     H1       HT       0.417000       1.00800           0
     42606 TIP3     6096     TIP3     H2       HT       0.417000       1.00800           0
     42607 TIP3     6097     TIP3     OH2      OT      -0.834000       15.9994           0
     42608 TIP3     6097     TIP3     H1       HT       0.417000       1.00800           0
     42609 TIP3     6097     TIP3     H2       HT       0.417000       1.00800           0
     42610 TIP3     6098     TIP3     OH2      OT      -0.834000       15.9994           0
     42611 TIP3     6098     TIP3     H1       HT       0.417000       1.00800           0
     42612 TIP3     6098     TIP3     H2       HT       0.417000       1.00800           0
     42613 TIP3     6099     TIP3     OH2      OT      -0.834000       15.9994           0
     42614 TIP3     6099     TIP3     H1       HT       0.417000       1.00800           0
     42615 TIP3     6099     TIP3     H2       HT       0.417000       1.00800           0
     42616 TIP3     6100     TIP3     OH2      OT      -0.834000       15.9994           0
     42617 TIP3     6100     TIP3     H1       HT       0.417000       1.00800           0
     42618 TIP3     6100     TIP3     H2       HT       0.417000       1.00800           0
     42619 TIP3     6101     TIP3     OH2      OT      -0.834000       15.9994           0
     42620 TIP3     6101     TIP3     H1       HT       0.417000       1.00800           0
     42621 TIP3     6101     TIP3     H2       HT       0.417000       1.00800           0
     42622 TIP3     6102     TIP3     OH2      OT      -0.834000       15.9994           0
     42623 TIP3     6102     TIP3     H1       HT       0.417000       1.00800           0
     42624 TIP3     6102     TIP3     H2       HT       0.417000       1.00800           0
     42625 TIP3     6103     TIP3     OH2      OT      -0.834000       15.9994           0
     42626 TIP3     6103     TIP3     H1       HT       0.417000       1.00800           0
     42627 TIP3     6103     TIP3     H2       HT       0.417000       1.00800           0
     42628 TIP3     6104     TIP3     OH2      OT      -0.834000       15.9994           0
     42629 TIP3     6104     TIP3     H1       HT       0.417000       1.00800           0
     42630 TIP3     6104     TIP3     H2       HT       0.417000       1.00800           0
     42631 TIP3     6105     TIP3     OH2      OT      -0.834000       15.9994           0
     42632 TIP3     6105     TIP3     H1       HT       0.417000       1.00800           0
     42633 TIP3     6105     TIP3     H2       HT       0.417000       1.00800           0
     42634 TIP3     6106     TIP3     OH2      OT      -0.834000       15.9994           0
     42635 TIP3     6106     TIP3     H1       HT       0.417000       1.00800           0
     42636 TIP3     6106     TIP3     H2       HT       0.417000       1.00800           0
     42637 TIP3     6107     TIP3     OH2      OT      -0.834000       15.9994           0
     42638 TIP3     6107     TIP3     H1       HT       0.417000       1.00800           0
     42639 TIP3     6107     TIP3     H2       HT       0.417000       1.00800           0
     42640 TIP3     6108     TIP3     OH2      OT      -0.834000       15.9994           0
     42641 TIP3     6108     TIP3     H1       HT       0.417000       1.00800           0
     42642 TIP3     6108     TIP3     H2       HT       0.417000       1.00800           0
     42643 TIP3     6109     TIP3     OH2      OT      -0.834000       15.9994           0
     42644 TIP3     6109     TIP3     H1       HT       0.417000       1.00800           0
     42645 TIP3     6109     TIP3     H2       HT       0.417000       1.00800           0
     42646 TIP3     6110     TIP3     OH2      OT      -0.834000       15.9994           0
     42647 TIP3     6110     TIP3     H1       HT       0.417000       1.00800           0
     42648 TIP3     6110     TIP3     H2       HT       0.417000       1.00800           0
     42649 TIP3     6111     TIP3     OH2      OT      -0.834000       15.9994           0
     42650 TIP3     6111     TIP3     H1       HT       0.417000       1.00800           0
     42651 TIP3     6111     TIP3     H2       HT       0.417000       1.00800           0
     42652 TIP3     6112     TIP3     OH2      OT      -0.834000       15.9994           0
     42653 TIP3     6112     TIP3     H1       HT       0.417000       1.00800           0
     42654 TIP3     6112     TIP3     H2       HT       0.417000       1.00800           0
     42655 TIP3     6113     TIP3     OH2      OT      -0.834000       15.9994           0
     42656 TIP3     6113     TIP3     H1       HT       0.417000       1.00800           0
     42657 TIP3     6113     TIP3     H2       HT       0.417000       1.00800           0
     42658 TIP3     6114     TIP3     OH2      OT      -0.834000       15.9994           0
     42659 TIP3     6114     TIP3     H1       HT       0.417000       1.00800           0
     42660 TIP3     6114     TIP3     H2       HT       0.417000       1.00800           0
     42661 TIP3     6115     TIP3     OH2      OT      -0.834000       15.9994           0
     42662 TIP3     6115     TIP3     H1       HT       0.417000       1.00800           0
     42663 TIP3     6115     TIP3     H2       HT       0.417000       1.00800           0
     42664 TIP3     6116     TIP3     OH2      OT      -0.834000       15.9994           0
     42665 TIP3     6116     TIP3     H1       HT       0.417000       1.00800           0
     42666 TIP3     6116     TIP3     H2       HT       0.417000       1.00800           0
     42667 TIP3     6117     TIP3     OH2      OT      -0.834000       15.9994           0
     42668 TIP3     6117     TIP3     H1       HT       0.417000       1.00800           0
     42669 TIP3     6117     TIP3     H2       HT       0.417000       1.00800           0
     42670 TIP3     6118     TIP3     OH2      OT      -0.834000       15.9994           0
     42671 TIP3     6118     TIP3     H1       HT       0.417000       1.00800           0
     42672 TIP3     6118     TIP3     H2       HT       0.417000       1.00800           0
     42673 TIP3     6119     TIP3     OH2      OT      -0.834000       15.9994           0
     42674 TIP3     6119     TIP3     H1       HT       0.417000       1.00800           0
     42675 TIP3     6119     TIP3     H2       HT       0.417000       1.00800           0
     42676 TIP3     6120     TIP3     OH2      OT      -0.834000       15.9994           0
     42677 TIP3     6120     TIP3     H1       HT       0.417000       1.00800           0
     42678 TIP3     6120     TIP3     H2       HT       0.417000       1.00800           0
     42679 TIP3     6121     TIP3     OH2      OT      -0.834000       15.9994           0
     42680 TIP3     6121     TIP3     H1       HT       0.417000       1.00800           0
     42681 TIP3     6121     TIP3     H2       HT       0.417000       1.00800           0
     42682 TIP3     6122     TIP3     OH2      OT      -0.834000       15.9994           0
     42683 TIP3     6122     TIP3     H1       HT       0.417000       1.00800           0
     42684 TIP3     6122     TIP3     H2       HT       0.417000       1.00800           0
     42685 TIP3     6123     TIP3     OH2      OT      -0.834000       15.9994           0
     42686 TIP3     6123     TIP3     H1       HT       0.417000       1.00800           0
     42687 TIP3     6123     TIP3     H2       HT       0.417000       1.00800           0
     42688 TIP3     6124     TIP3     OH2      OT      -0.834000       15.9994           0
     42689 TIP3     6124     TIP3     H1       HT       0.417000       1.00800           0
     42690 TIP3     6124     TIP3     H2       HT       0.417000       1.00800           0
     42691 TIP3     6125     TIP3     OH2      OT      -0.834000       15.9994           0
     42692 TIP3     6125     TIP3     H1       HT       0.417000       1.00800           0
     42693 TIP3     6125     TIP3     H2       HT       0.417000       1.00800           0
     42694 TIP3     6126     TIP3     OH2      OT      -0.834000       15.9994           0
     42695 TIP3     6126     TIP3     H1       HT       0.417000       1.00800           0
     42696 TIP3     6126     TIP3     H2       HT       0.417000       1.00800           0
     42697 TIP3     6127     TIP3     OH2      OT      -0.834000       15.9994           0
     42698 TIP3     6127     TIP3     H1       HT       0.417000       1.00800           0
     42699 TIP3     6127     TIP3     H2       HT       0.417000       1.00800           0
     42700 TIP3     6128     TIP3     OH2      OT      -0.834000       15.9994           0
     42701 TIP3     6128     TIP3     H1       HT       0.417000       1.00800           0
     42702 TIP3     6128     TIP3     H2       HT       0.417000       1.00800           0
     42703 TIP3     6129     TIP3     OH2      OT      -0.834000       15.9994           0
     42704 TIP3     6129     TIP3     H1       HT       0.417000       1.00800           0
     42705 TIP3     6129     TIP3     H2       HT       0.417000       1.00800           0
     42706 TIP3     6130     TIP3     OH2      OT      -0.834000       15.9994           0
     42707 TIP3     6130     TIP3     H1       HT       0.417000       1.00800           0
     42708 TIP3     6130     TIP3     H2       HT       0.417000       1.00800           0
     42709 TIP3     6131     TIP3     OH2      OT      -0.834000       15.9994           0
     42710 TIP3     6131     TIP3     H1       HT       0.417000       1.00800           0
     42711 TIP3     6131     TIP3     H2       HT       0.417000       1.00800           0
     42712 TIP3     6132     TIP3     OH2      OT      -0.834000       15.9994           0
     42713 TIP3     6132     TIP3     H1       HT       0.417000       1.00800           0
     42714 TIP3     6132     TIP3     H2       HT       0.417000       1.00800           0
     42715 TIP3     6133     TIP3     OH2      OT      -0.834000       15.9994           0
     42716 TIP3     6133     TIP3     H1       HT       0.417000       1.00800           0
     42717 TIP3     6133     TIP3     H2       HT       0.417000       1.00800           0
     42718 TIP3     6134     TIP3     OH2      OT      -0.834000       15.9994           0
     42719 TIP3     6134     TIP3     H1       HT       0.417000       1.00800           0
     42720 TIP3     6134     TIP3     H2       HT       0.417000       1.00800           0
     42721 TIP3     6135     TIP3     OH2      OT      -0.834000       15.9994           0
     42722 TIP3     6135     TIP3     H1       HT       0.417000       1.00800           0
     42723 TIP3     6135     TIP3     H2       HT       0.417000       1.00800           0
     42724 TIP3     6136     TIP3     OH2      OT      -0.834000       15.9994           0
     42725 TIP3     6136     TIP3     H1       HT       0.417000       1.00800           0
     42726 TIP3     6136     TIP3     H2       HT       0.417000       1.00800           0
     42727 TIP3     6137     TIP3     OH2      OT      -0.834000       15.9994           0
     42728 TIP3     6137     TIP3     H1       HT       0.417000       1.00800           0
     42729 TIP3     6137     TIP3     H2       HT       0.417000       1.00800           0
     42730 TIP3     6138     TIP3     OH2      OT      -0.834000       15.9994           0
     42731 TIP3     6138     TIP3     H1       HT       0.417000       1.00800           0
     42732 TIP3     6138     TIP3     H2       HT       0.417000       1.00800           0
     42733 TIP3     6139     TIP3     OH2      OT      -0.834000       15.9994           0
     42734 TIP3     6139     TIP3     H1       HT       0.417000       1.00800           0
     42735 TIP3     6139     TIP3     H2       HT       0.417000       1.00800           0
     42736 TIP3     6140     TIP3     OH2      OT      -0.834000       15.9994           0
     42737 TIP3     6140     TIP3     H1       HT       0.417000       1.00800           0
     42738 TIP3     6140     TIP3     H2       HT       0.417000       1.00800           0
     42739 TIP3     6141     TIP3     OH2      OT      -0.834000       15.9994           0
     42740 TIP3     6141     TIP3     H1       HT       0.417000       1.00800           0
     42741 TIP3     6141     TIP3     H2       HT       0.417000       1.00800           0
     42742 TIP3     6142     TIP3     OH2      OT      -0.834000       15.9994           0
     42743 TIP3     6142     TIP3     H1       HT       0.417000       1.00800           0
     42744 TIP3     6142     TIP3     H2       HT       0.417000       1.00800           0
     42745 TIP3     6143     TIP3     OH2      OT      -0.834000       15.9994           0
     42746 TIP3     6143     TIP3     H1       HT       0.417000       1.00800           0
     42747 TIP3     6143     TIP3     H2       HT       0.417000       1.00800           0
     42748 TIP3     6144     TIP3     OH2      OT      -0.834000       15.9994           0
     42749 TIP3     6144     TIP3     H1       HT       0.417000       1.00800           0
     42750 TIP3     6144     TIP3     H2       HT       0.417000       1.00800           0
     42751 TIP3     6145     TIP3     OH2      OT      -0.834000       15.9994           0
     42752 TIP3     6145     TIP3     H1       HT       0.417000       1.00800           0
     42753 TIP3     6145     TIP3     H2       HT       0.417000       1.00800           0
     42754 TIP3     6146     TIP3     OH2      OT      -0.834000       15.9994           0
     42755 TIP3     6146     TIP3     H1       HT       0.417000       1.00800           0
     42756 TIP3     6146     TIP3     H2       HT       0.417000       1.00800           0
     42757 TIP3     6147     TIP3     OH2      OT      -0.834000       15.9994           0
     42758 TIP3     6147     TIP3     H1       HT       0.417000       1.00800           0
     42759 TIP3     6147     TIP3     H2       HT       0.417000       1.00800           0
     42760 TIP3     6148     TIP3     OH2      OT      -0.834000       15.9994           0
     42761 TIP3     6148     TIP3     H1       HT       0.417000       1.00800           0
     42762 TIP3     6148     TIP3     H2       HT       0.417000       1.00800           0
     42763 TIP3     6149     TIP3     OH2      OT      -0.834000       15.9994           0
     42764 TIP3     6149     TIP3     H1       HT       0.417000       1.00800           0
     42765 TIP3     6149     TIP3     H2       HT       0.417000       1.00800           0
     42766 TIP3     6150     TIP3     OH2      OT      -0.834000       15.9994           0
     42767 TIP3     6150     TIP3     H1       HT       0.417000       1.00800           0
     42768 TIP3     6150     TIP3     H2       HT       0.417000       1.00800           0
     42769 TIP3     6151     TIP3     OH2      OT      -0.834000       15.9994           0
     42770 TIP3     6151     TIP3     H1       HT       0.417000       1.00800           0
     42771 TIP3     6151     TIP3     H2       HT       0.417000       1.00800           0
     42772 TIP3     6152     TIP3     OH2      OT      -0.834000       15.9994           0
     42773 TIP3     6152     TIP3     H1       HT       0.417000       1.00800           0
     42774 TIP3     6152     TIP3     H2       HT       0.417000       1.00800           0
     42775 TIP3     6153     TIP3     OH2      OT      -0.834000       15.9994           0
     42776 TIP3     6153     TIP3     H1       HT       0.417000       1.00800           0
     42777 TIP3     6153     TIP3     H2       HT       0.417000       1.00800           0
     42778 TIP3     6154     TIP3     OH2      OT      -0.834000       15.9994           0
     42779 TIP3     6154     TIP3     H1       HT       0.417000       1.00800           0
     42780 TIP3     6154     TIP3     H2       HT       0.417000       1.00800           0
     42781 TIP3     6155     TIP3     OH2      OT      -0.834000       15.9994           0
     42782 TIP3     6155     TIP3     H1       HT       0.417000       1.00800           0
     42783 TIP3     6155     TIP3     H2       HT       0.417000       1.00800           0
     42784 TIP3     6156     TIP3     OH2      OT      -0.834000       15.9994           0
     42785 TIP3     6156     TIP3     H1       HT       0.417000       1.00800           0
     42786 TIP3     6156     TIP3     H2       HT       0.417000       1.00800           0
     42787 TIP3     6157     TIP3     OH2      OT      -0.834000       15.9994           0
     42788 TIP3     6157     TIP3     H1       HT       0.417000       1.00800           0
     42789 TIP3     6157     TIP3     H2       HT       0.417000       1.00800           0
     42790 TIP3     6158     TIP3     OH2      OT      -0.834000       15.9994           0
     42791 TIP3     6158     TIP3     H1       HT       0.417000       1.00800           0
     42792 TIP3     6158     TIP3     H2       HT       0.417000       1.00800           0
     42793 TIP3     6159     TIP3     OH2      OT      -0.834000       15.9994           0
     42794 TIP3     6159     TIP3     H1       HT       0.417000       1.00800           0
     42795 TIP3     6159     TIP3     H2       HT       0.417000       1.00800           0
     42796 TIP3     6160     TIP3     OH2      OT      -0.834000       15.9994           0
     42797 TIP3     6160     TIP3     H1       HT       0.417000       1.00800           0
     42798 TIP3     6160     TIP3     H2       HT       0.417000       1.00800           0
     42799 TIP3     6161     TIP3     OH2      OT      -0.834000       15.9994           0
     42800 TIP3     6161     TIP3     H1       HT       0.417000       1.00800           0
     42801 TIP3     6161     TIP3     H2       HT       0.417000       1.00800           0
     42802 TIP3     6162     TIP3     OH2      OT      -0.834000       15.9994           0
     42803 TIP3     6162     TIP3     H1       HT       0.417000       1.00800           0
     42804 TIP3     6162     TIP3     H2       HT       0.417000       1.00800           0
     42805 TIP3     6163     TIP3     OH2      OT      -0.834000       15.9994           0
     42806 TIP3     6163     TIP3     H1       HT       0.417000       1.00800           0
     42807 TIP3     6163     TIP3     H2       HT       0.417000       1.00800           0
     42808 TIP3     6164     TIP3     OH2      OT      -0.834000       15.9994           0
     42809 TIP3     6164     TIP3     H1       HT       0.417000       1.00800           0
     42810 TIP3     6164     TIP3     H2       HT       0.417000       1.00800           0
     42811 TIP3     6165     TIP3     OH2      OT      -0.834000       15.9994           0
     42812 TIP3     6165     TIP3     H1       HT       0.417000       1.00800           0
     42813 TIP3     6165     TIP3     H2       HT       0.417000       1.00800           0
     42814 TIP3     6166     TIP3     OH2      OT      -0.834000       15.9994           0
     42815 TIP3     6166     TIP3     H1       HT       0.417000       1.00800           0
     42816 TIP3     6166     TIP3     H2       HT       0.417000       1.00800           0
     42817 TIP3     6167     TIP3     OH2      OT      -0.834000       15.9994           0
     42818 TIP3     6167     TIP3     H1       HT       0.417000       1.00800           0
     42819 TIP3     6167     TIP3     H2       HT       0.417000       1.00800           0
     42820 TIP3     6168     TIP3     OH2      OT      -0.834000       15.9994           0
     42821 TIP3     6168     TIP3     H1       HT       0.417000       1.00800           0
     42822 TIP3     6168     TIP3     H2       HT       0.417000       1.00800           0
     42823 TIP3     6169     TIP3     OH2      OT      -0.834000       15.9994           0
     42824 TIP3     6169     TIP3     H1       HT       0.417000       1.00800           0
     42825 TIP3     6169     TIP3     H2       HT       0.417000       1.00800           0
     42826 TIP3     6170     TIP3     OH2      OT      -0.834000       15.9994           0
     42827 TIP3     6170     TIP3     H1       HT       0.417000       1.00800           0
     42828 TIP3     6170     TIP3     H2       HT       0.417000       1.00800           0
     42829 TIP3     6171     TIP3     OH2      OT      -0.834000       15.9994           0
     42830 TIP3     6171     TIP3     H1       HT       0.417000       1.00800           0
     42831 TIP3     6171     TIP3     H2       HT       0.417000       1.00800           0
     42832 TIP3     6172     TIP3     OH2      OT      -0.834000       15.9994           0
     42833 TIP3     6172     TIP3     H1       HT       0.417000       1.00800           0
     42834 TIP3     6172     TIP3     H2       HT       0.417000       1.00800           0
     42835 TIP3     6173     TIP3     OH2      OT      -0.834000       15.9994           0
     42836 TIP3     6173     TIP3     H1       HT       0.417000       1.00800           0
     42837 TIP3     6173     TIP3     H2       HT       0.417000       1.00800           0
     42838 TIP3     6174     TIP3     OH2      OT      -0.834000       15.9994           0
     42839 TIP3     6174     TIP3     H1       HT       0.417000       1.00800           0
     42840 TIP3     6174     TIP3     H2       HT       0.417000       1.00800           0
     42841 TIP3     6175     TIP3     OH2      OT      -0.834000       15.9994           0
     42842 TIP3     6175     TIP3     H1       HT       0.417000       1.00800           0
     42843 TIP3     6175     TIP3     H2       HT       0.417000       1.00800           0
     42844 TIP3     6176     TIP3     OH2      OT      -0.834000       15.9994           0
     42845 TIP3     6176     TIP3     H1       HT       0.417000       1.00800           0
     42846 TIP3     6176     TIP3     H2       HT       0.417000       1.00800           0
     42847 TIP3     6177     TIP3     OH2      OT      -0.834000       15.9994           0
     42848 TIP3     6177     TIP3     H1       HT       0.417000       1.00800           0
     42849 TIP3     6177     TIP3     H2       HT       0.417000       1.00800           0
     42850 TIP3     6178     TIP3     OH2      OT      -0.834000       15.9994           0
     42851 TIP3     6178     TIP3     H1       HT       0.417000       1.00800           0
     42852 TIP3     6178     TIP3     H2       HT       0.417000       1.00800           0
     42853 TIP3     6179     TIP3     OH2      OT      -0.834000       15.9994           0
     42854 TIP3     6179     TIP3     H1       HT       0.417000       1.00800           0
     42855 TIP3     6179     TIP3     H2       HT       0.417000       1.00800           0
     42856 TIP3     6180     TIP3     OH2      OT      -0.834000       15.9994           0
     42857 TIP3     6180     TIP3     H1       HT       0.417000       1.00800           0
     42858 TIP3     6180     TIP3     H2       HT       0.417000       1.00800           0
     42859 TIP3     6181     TIP3     OH2      OT      -0.834000       15.9994           0
     42860 TIP3     6181     TIP3     H1       HT       0.417000       1.00800           0
     42861 TIP3     6181     TIP3     H2       HT       0.417000       1.00800           0
     42862 TIP3     6182     TIP3     OH2      OT      -0.834000       15.9994           0
     42863 TIP3     6182     TIP3     H1       HT       0.417000       1.00800           0
     42864 TIP3     6182     TIP3     H2       HT       0.417000       1.00800           0
     42865 TIP3     6183     TIP3     OH2      OT      -0.834000       15.9994           0
     42866 TIP3     6183     TIP3     H1       HT       0.417000       1.00800           0
     42867 TIP3     6183     TIP3     H2       HT       0.417000       1.00800           0
     42868 TIP3     6184     TIP3     OH2      OT      -0.834000       15.9994           0
     42869 TIP3     6184     TIP3     H1       HT       0.417000       1.00800           0
     42870 TIP3     6184     TIP3     H2       HT       0.417000       1.00800           0
     42871 TIP3     6185     TIP3     OH2      OT      -0.834000       15.9994           0
     42872 TIP3     6185     TIP3     H1       HT       0.417000       1.00800           0
     42873 TIP3     6185     TIP3     H2       HT       0.417000       1.00800           0
     42874 TIP3     6186     TIP3     OH2      OT      -0.834000       15.9994           0
     42875 TIP3     6186     TIP3     H1       HT       0.417000       1.00800           0
     42876 TIP3     6186     TIP3     H2       HT       0.417000       1.00800           0
     42877 TIP3     6187     TIP3     OH2      OT      -0.834000       15.9994           0
     42878 TIP3     6187     TIP3     H1       HT       0.417000       1.00800           0
     42879 TIP3     6187     TIP3     H2       HT       0.417000       1.00800           0
     42880 TIP3     6188     TIP3     OH2      OT      -0.834000       15.9994           0
     42881 TIP3     6188     TIP3     H1       HT       0.417000       1.00800           0
     42882 TIP3     6188     TIP3     H2       HT       0.417000       1.00800           0
     42883 TIP3     6189     TIP3     OH2      OT      -0.834000       15.9994           0
     42884 TIP3     6189     TIP3     H1       HT       0.417000       1.00800           0
     42885 TIP3     6189     TIP3     H2       HT       0.417000       1.00800           0
     42886 TIP3     6190     TIP3     OH2      OT      -0.834000       15.9994           0
     42887 TIP3     6190     TIP3     H1       HT       0.417000       1.00800           0
     42888 TIP3     6190     TIP3     H2       HT       0.417000       1.00800           0
     42889 TIP3     6191     TIP3     OH2      OT      -0.834000       15.9994           0
     42890 TIP3     6191     TIP3     H1       HT       0.417000       1.00800           0
     42891 TIP3     6191     TIP3     H2       HT       0.417000       1.00800           0
     42892 TIP3     6192     TIP3     OH2      OT      -0.834000       15.9994           0
     42893 TIP3     6192     TIP3     H1       HT       0.417000       1.00800           0
     42894 TIP3     6192     TIP3     H2       HT       0.417000       1.00800           0
     42895 TIP3     6193     TIP3     OH2      OT      -0.834000       15.9994           0
     42896 TIP3     6193     TIP3     H1       HT       0.417000       1.00800           0
     42897 TIP3     6193     TIP3     H2       HT       0.417000       1.00800           0
     42898 TIP3     6194     TIP3     OH2      OT      -0.834000       15.9994           0
     42899 TIP3     6194     TIP3     H1       HT       0.417000       1.00800           0
     42900 TIP3     6194     TIP3     H2       HT       0.417000       1.00800           0
     42901 TIP3     6195     TIP3     OH2      OT      -0.834000       15.9994           0
     42902 TIP3     6195     TIP3     H1       HT       0.417000       1.00800           0
     42903 TIP3     6195     TIP3     H2       HT       0.417000       1.00800           0
     42904 TIP3     6196     TIP3     OH2      OT      -0.834000       15.9994           0
     42905 TIP3     6196     TIP3     H1       HT       0.417000       1.00800           0
     42906 TIP3     6196     TIP3     H2       HT       0.417000       1.00800           0
     42907 TIP3     6197     TIP3     OH2      OT      -0.834000       15.9994           0
     42908 TIP3     6197     TIP3     H1       HT       0.417000       1.00800           0
     42909 TIP3     6197     TIP3     H2       HT       0.417000       1.00800           0
     42910 TIP3     6198     TIP3     OH2      OT      -0.834000       15.9994           0
     42911 TIP3     6198     TIP3     H1       HT       0.417000       1.00800           0
     42912 TIP3     6198     TIP3     H2       HT       0.417000       1.00800           0
     42913 TIP3     6199     TIP3     OH2      OT      -0.834000       15.9994           0
     42914 TIP3     6199     TIP3     H1       HT       0.417000       1.00800           0
     42915 TIP3     6199     TIP3     H2       HT       0.417000       1.00800           0
     42916 TIP3     6200     TIP3     OH2      OT      -0.834000       15.9994           0
     42917 TIP3     6200     TIP3     H1       HT       0.417000       1.00800           0
     42918 TIP3     6200     TIP3     H2       HT       0.417000       1.00800           0
     42919 TIP3     6201     TIP3     OH2      OT      -0.834000       15.9994           0
     42920 TIP3     6201     TIP3     H1       HT       0.417000       1.00800           0
     42921 TIP3     6201     TIP3     H2       HT       0.417000       1.00800           0
     42922 TIP3     6202     TIP3     OH2      OT      -0.834000       15.9994           0
     42923 TIP3     6202     TIP3     H1       HT       0.417000       1.00800           0
     42924 TIP3     6202     TIP3     H2       HT       0.417000       1.00800           0
     42925 TIP3     6203     TIP3     OH2      OT      -0.834000       15.9994           0
     42926 TIP3     6203     TIP3     H1       HT       0.417000       1.00800           0
     42927 TIP3     6203     TIP3     H2       HT       0.417000       1.00800           0
     42928 TIP3     6204     TIP3     OH2      OT      -0.834000       15.9994           0
     42929 TIP3     6204     TIP3     H1       HT       0.417000       1.00800           0
     42930 TIP3     6204     TIP3     H2       HT       0.417000       1.00800           0
     42931 TIP3     6205     TIP3     OH2      OT      -0.834000       15.9994           0
     42932 TIP3     6205     TIP3     H1       HT       0.417000       1.00800           0
     42933 TIP3     6205     TIP3     H2       HT       0.417000       1.00800           0
     42934 TIP3     6206     TIP3     OH2      OT      -0.834000       15.9994           0
     42935 TIP3     6206     TIP3     H1       HT       0.417000       1.00800           0
     42936 TIP3     6206     TIP3     H2       HT       0.417000       1.00800           0
     42937 TIP3     6207     TIP3     OH2      OT      -0.834000       15.9994           0
     42938 TIP3     6207     TIP3     H1       HT       0.417000       1.00800           0
     42939 TIP3     6207     TIP3     H2       HT       0.417000       1.00800           0
     42940 TIP3     6208     TIP3     OH2      OT      -0.834000       15.9994           0
     42941 TIP3     6208     TIP3     H1       HT       0.417000       1.00800           0
     42942 TIP3     6208     TIP3     H2       HT       0.417000       1.00800           0
     42943 TIP3     6209     TIP3     OH2      OT      -0.834000       15.9994           0
     42944 TIP3     6209     TIP3     H1       HT       0.417000       1.00800           0
     42945 TIP3     6209     TIP3     H2       HT       0.417000       1.00800           0
     42946 TIP3     6210     TIP3     OH2      OT      -0.834000       15.9994           0
     42947 TIP3     6210     TIP3     H1       HT       0.417000       1.00800           0
     42948 TIP3     6210     TIP3     H2       HT       0.417000       1.00800           0
     42949 TIP3     6211     TIP3     OH2      OT      -0.834000       15.9994           0
     42950 TIP3     6211     TIP3     H1       HT       0.417000       1.00800           0
     42951 TIP3     6211     TIP3     H2       HT       0.417000       1.00800           0
     42952 TIP3     6212     TIP3     OH2      OT      -0.834000       15.9994           0
     42953 TIP3     6212     TIP3     H1       HT       0.417000       1.00800           0
     42954 TIP3     6212     TIP3     H2       HT       0.417000       1.00800           0
     42955 TIP3     6213     TIP3     OH2      OT      -0.834000       15.9994           0
     42956 TIP3     6213     TIP3     H1       HT       0.417000       1.00800           0
     42957 TIP3     6213     TIP3     H2       HT       0.417000       1.00800           0
     42958 TIP3     6214     TIP3     OH2      OT      -0.834000       15.9994           0
     42959 TIP3     6214     TIP3     H1       HT       0.417000       1.00800           0
     42960 TIP3     6214     TIP3     H2       HT       0.417000       1.00800           0
     42961 TIP3     6215     TIP3     OH2      OT      -0.834000       15.9994           0
     42962 TIP3     6215     TIP3     H1       HT       0.417000       1.00800           0
     42963 TIP3     6215     TIP3     H2       HT       0.417000       1.00800           0
     42964 TIP3     6216     TIP3     OH2      OT      -0.834000       15.9994           0
     42965 TIP3     6216     TIP3     H1       HT       0.417000       1.00800           0
     42966 TIP3     6216     TIP3     H2       HT       0.417000       1.00800           0
     42967 TIP3     6217     TIP3     OH2      OT      -0.834000       15.9994           0
     42968 TIP3     6217     TIP3     H1       HT       0.417000       1.00800           0
     42969 TIP3     6217     TIP3     H2       HT       0.417000       1.00800           0
     42970 TIP3     6218     TIP3     OH2      OT      -0.834000       15.9994           0
     42971 TIP3     6218     TIP3     H1       HT       0.417000       1.00800           0
     42972 TIP3     6218     TIP3     H2       HT       0.417000       1.00800           0
     42973 TIP3     6219     TIP3     OH2      OT      -0.834000       15.9994           0
     42974 TIP3     6219     TIP3     H1       HT       0.417000       1.00800           0
     42975 TIP3     6219     TIP3     H2       HT       0.417000       1.00800           0
     42976 TIP3     6220     TIP3     OH2      OT      -0.834000       15.9994           0
     42977 TIP3     6220     TIP3     H1       HT       0.417000       1.00800           0
     42978 TIP3     6220     TIP3     H2       HT       0.417000       1.00800           0
     42979 TIP3     6221     TIP3     OH2      OT      -0.834000       15.9994           0
     42980 TIP3     6221     TIP3     H1       HT       0.417000       1.00800           0
     42981 TIP3     6221     TIP3     H2       HT       0.417000       1.00800           0
     42982 TIP3     6222     TIP3     OH2      OT      -0.834000       15.9994           0
     42983 TIP3     6222     TIP3     H1       HT       0.417000       1.00800           0
     42984 TIP3     6222     TIP3     H2       HT       0.417000       1.00800           0
     42985 TIP3     6223     TIP3     OH2      OT      -0.834000       15.9994           0
     42986 TIP3     6223     TIP3     H1       HT       0.417000       1.00800           0
     42987 TIP3     6223     TIP3     H2       HT       0.417000       1.00800           0
     42988 TIP3     6224     TIP3     OH2      OT      -0.834000       15.9994           0
     42989 TIP3     6224     TIP3     H1       HT       0.417000       1.00800           0
     42990 TIP3     6224     TIP3     H2       HT       0.417000       1.00800           0
     42991 TIP3     6225     TIP3     OH2      OT      -0.834000       15.9994           0
     42992 TIP3     6225     TIP3     H1       HT       0.417000       1.00800           0
     42993 TIP3     6225     TIP3     H2       HT       0.417000       1.00800           0
     42994 TIP3     6226     TIP3     OH2      OT      -0.834000       15.9994           0
     42995 TIP3     6226     TIP3     H1       HT       0.417000       1.00800           0
     42996 TIP3     6226     TIP3     H2       HT       0.417000       1.00800           0
     42997 TIP3     6227     TIP3     OH2      OT      -0.834000       15.9994           0
     42998 TIP3     6227     TIP3     H1       HT       0.417000       1.00800           0
     42999 TIP3     6227     TIP3     H2       HT       0.417000       1.00800           0
     43000 TIP3     6228     TIP3     OH2      OT      -0.834000       15.9994           0
     43001 TIP3     6228     TIP3     H1       HT       0.417000       1.00800           0
     43002 TIP3     6228     TIP3     H2       HT       0.417000       1.00800           0
     43003 TIP3     6229     TIP3     OH2      OT      -0.834000       15.9994           0
     43004 TIP3     6229     TIP3     H1       HT       0.417000       1.00800           0
     43005 TIP3     6229     TIP3     H2       HT       0.417000       1.00800           0
     43006 TIP3     6230     TIP3     OH2      OT      -0.834000       15.9994           0
     43007 TIP3     6230     TIP3     H1       HT       0.417000       1.00800           0
     43008 TIP3     6230     TIP3     H2       HT       0.417000       1.00800           0
     43009 TIP3     6231     TIP3     OH2      OT      -0.834000       15.9994           0
     43010 TIP3     6231     TIP3     H1       HT       0.417000       1.00800           0
     43011 TIP3     6231     TIP3     H2       HT       0.417000       1.00800           0
     43012 TIP3     6232     TIP3     OH2      OT      -0.834000       15.9994           0
     43013 TIP3     6232     TIP3     H1       HT       0.417000       1.00800           0
     43014 TIP3     6232     TIP3     H2       HT       0.417000       1.00800           0
     43015 TIP3     6233     TIP3     OH2      OT      -0.834000       15.9994           0
     43016 TIP3     6233     TIP3     H1       HT       0.417000       1.00800           0
     43017 TIP3     6233     TIP3     H2       HT       0.417000       1.00800           0
     43018 TIP3     6234     TIP3     OH2      OT      -0.834000       15.9994           0
     43019 TIP3     6234     TIP3     H1       HT       0.417000       1.00800           0
     43020 TIP3     6234     TIP3     H2       HT       0.417000       1.00800           0
     43021 TIP3     6235     TIP3     OH2      OT      -0.834000       15.9994           0
     43022 TIP3     6235     TIP3     H1       HT       0.417000       1.00800           0
     43023 TIP3     6235     TIP3     H2       HT       0.417000       1.00800           0
     43024 TIP3     6236     TIP3     OH2      OT      -0.834000       15.9994           0
     43025 TIP3     6236     TIP3     H1       HT       0.417000       1.00800           0
     43026 TIP3     6236     TIP3     H2       HT       0.417000       1.00800           0
     43027 TIP3     6237     TIP3     OH2      OT      -0.834000       15.9994           0
     43028 TIP3     6237     TIP3     H1       HT       0.417000       1.00800           0
     43029 TIP3     6237     TIP3     H2       HT       0.417000       1.00800           0
     43030 TIP3     6238     TIP3     OH2      OT      -0.834000       15.9994           0
     43031 TIP3     6238     TIP3     H1       HT       0.417000       1.00800           0
     43032 TIP3     6238     TIP3     H2       HT       0.417000       1.00800           0
     43033 TIP3     6239     TIP3     OH2      OT      -0.834000       15.9994           0
     43034 TIP3     6239     TIP3     H1       HT       0.417000       1.00800           0
     43035 TIP3     6239     TIP3     H2       HT       0.417000       1.00800           0
     43036 TIP3     6240     TIP3     OH2      OT      -0.834000       15.9994           0
     43037 TIP3     6240     TIP3     H1       HT       0.417000       1.00800           0
     43038 TIP3     6240     TIP3     H2       HT       0.417000       1.00800           0
     43039 TIP3     6241     TIP3     OH2      OT      -0.834000       15.9994           0
     43040 TIP3     6241     TIP3     H1       HT       0.417000       1.00800           0
     43041 TIP3     6241     TIP3     H2       HT       0.417000       1.00800           0
     43042 TIP3     6242     TIP3     OH2      OT      -0.834000       15.9994           0
     43043 TIP3     6242     TIP3     H1       HT       0.417000       1.00800           0
     43044 TIP3     6242     TIP3     H2       HT       0.417000       1.00800           0
     43045 TIP3     6243     TIP3     OH2      OT      -0.834000       15.9994           0
     43046 TIP3     6243     TIP3     H1       HT       0.417000       1.00800           0
     43047 TIP3     6243     TIP3     H2       HT       0.417000       1.00800           0
     43048 TIP3     6244     TIP3     OH2      OT      -0.834000       15.9994           0
     43049 TIP3     6244     TIP3     H1       HT       0.417000       1.00800           0
     43050 TIP3     6244     TIP3     H2       HT       0.417000       1.00800           0
     43051 TIP3     6245     TIP3     OH2      OT      -0.834000       15.9994           0
     43052 TIP3     6245     TIP3     H1       HT       0.417000       1.00800           0
     43053 TIP3     6245     TIP3     H2       HT       0.417000       1.00800           0
     43054 TIP3     6246     TIP3     OH2      OT      -0.834000       15.9994           0
     43055 TIP3     6246     TIP3     H1       HT       0.417000       1.00800           0
     43056 TIP3     6246     TIP3     H2       HT       0.417000       1.00800           0
     43057 TIP3     6247     TIP3     OH2      OT      -0.834000       15.9994           0
     43058 TIP3     6247     TIP3     H1       HT       0.417000       1.00800           0
     43059 TIP3     6247     TIP3     H2       HT       0.417000       1.00800           0
     43060 TIP3     6248     TIP3     OH2      OT      -0.834000       15.9994           0
     43061 TIP3     6248     TIP3     H1       HT       0.417000       1.00800           0
     43062 TIP3     6248     TIP3     H2       HT       0.417000       1.00800           0
     43063 TIP3     6249     TIP3     OH2      OT      -0.834000       15.9994           0
     43064 TIP3     6249     TIP3     H1       HT       0.417000       1.00800           0
     43065 TIP3     6249     TIP3     H2       HT       0.417000       1.00800           0
     43066 TIP3     6250     TIP3     OH2      OT      -0.834000       15.9994           0
     43067 TIP3     6250     TIP3     H1       HT       0.417000       1.00800           0
     43068 TIP3     6250     TIP3     H2       HT       0.417000       1.00800           0
     43069 TIP3     6251     TIP3     OH2      OT      -0.834000       15.9994           0
     43070 TIP3     6251     TIP3     H1       HT       0.417000       1.00800           0
     43071 TIP3     6251     TIP3     H2       HT       0.417000       1.00800           0
     43072 TIP3     6252     TIP3     OH2      OT      -0.834000       15.9994           0
     43073 TIP3     6252     TIP3     H1       HT       0.417000       1.00800           0
     43074 TIP3     6252     TIP3     H2       HT       0.417000       1.00800           0
     43075 TIP3     6253     TIP3     OH2      OT      -0.834000       15.9994           0
     43076 TIP3     6253     TIP3     H1       HT       0.417000       1.00800           0
     43077 TIP3     6253     TIP3     H2       HT       0.417000       1.00800           0
     43078 TIP3     6254     TIP3     OH2      OT      -0.834000       15.9994           0
     43079 TIP3     6254     TIP3     H1       HT       0.417000       1.00800           0
     43080 TIP3     6254     TIP3     H2       HT       0.417000       1.00800           0
     43081 TIP3     6255     TIP3     OH2      OT      -0.834000       15.9994           0
     43082 TIP3     6255     TIP3     H1       HT       0.417000       1.00800           0
     43083 TIP3     6255     TIP3     H2       HT       0.417000       1.00800           0
     43084 TIP3     6256     TIP3     OH2      OT      -0.834000       15.9994           0
     43085 TIP3     6256     TIP3     H1       HT       0.417000       1.00800           0
     43086 TIP3     6256     TIP3     H2       HT       0.417000       1.00800           0
     43087 TIP3     6257     TIP3     OH2      OT      -0.834000       15.9994           0
     43088 TIP3     6257     TIP3     H1       HT       0.417000       1.00800           0
     43089 TIP3     6257     TIP3     H2       HT       0.417000       1.00800           0
     43090 TIP3     6258     TIP3     OH2      OT      -0.834000       15.9994           0
     43091 TIP3     6258     TIP3     H1       HT       0.417000       1.00800           0
     43092 TIP3     6258     TIP3     H2       HT       0.417000       1.00800           0
     43093 TIP3     6259     TIP3     OH2      OT      -0.834000       15.9994           0
     43094 TIP3     6259     TIP3     H1       HT       0.417000       1.00800           0
     43095 TIP3     6259     TIP3     H2       HT       0.417000       1.00800           0
     43096 TIP3     6260     TIP3     OH2      OT      -0.834000       15.9994           0
     43097 TIP3     6260     TIP3     H1       HT       0.417000       1.00800           0
     43098 TIP3     6260     TIP3     H2       HT       0.417000       1.00800           0
     43099 TIP3     6261     TIP3     OH2      OT      -0.834000       15.9994           0
     43100 TIP3     6261     TIP3     H1       HT       0.417000       1.00800           0
     43101 TIP3     6261     TIP3     H2       HT       0.417000       1.00800           0
     43102 TIP3     6262     TIP3     OH2      OT      -0.834000       15.9994           0
     43103 TIP3     6262     TIP3     H1       HT       0.417000       1.00800           0
     43104 TIP3     6262     TIP3     H2       HT       0.417000       1.00800           0
     43105 TIP3     6263     TIP3     OH2      OT      -0.834000       15.9994           0
     43106 TIP3     6263     TIP3     H1       HT       0.417000       1.00800           0
     43107 TIP3     6263     TIP3     H2       HT       0.417000       1.00800           0
     43108 TIP3     6264     TIP3     OH2      OT      -0.834000       15.9994           0
     43109 TIP3     6264     TIP3     H1       HT       0.417000       1.00800           0
     43110 TIP3     6264     TIP3     H2       HT       0.417000       1.00800           0
     43111 TIP3     6265     TIP3     OH2      OT      -0.834000       15.9994           0
     43112 TIP3     6265     TIP3     H1       HT       0.417000       1.00800           0
     43113 TIP3     6265     TIP3     H2       HT       0.417000       1.00800           0
     43114 TIP3     6266     TIP3     OH2      OT      -0.834000       15.9994           0
     43115 TIP3     6266     TIP3     H1       HT       0.417000       1.00800           0
     43116 TIP3     6266     TIP3     H2       HT       0.417000       1.00800           0
     43117 TIP3     6267     TIP3     OH2      OT      -0.834000       15.9994           0
     43118 TIP3     6267     TIP3     H1       HT       0.417000       1.00800           0
     43119 TIP3     6267     TIP3     H2       HT       0.417000       1.00800           0
     43120 TIP3     6268     TIP3     OH2      OT      -0.834000       15.9994           0
     43121 TIP3     6268     TIP3     H1       HT       0.417000       1.00800           0
     43122 TIP3     6268     TIP3     H2       HT       0.417000       1.00800           0
     43123 TIP3     6269     TIP3     OH2      OT      -0.834000       15.9994           0
     43124 TIP3     6269     TIP3     H1       HT       0.417000       1.00800           0
     43125 TIP3     6269     TIP3     H2       HT       0.417000       1.00800           0
     43126 TIP3     6270     TIP3     OH2      OT      -0.834000       15.9994           0
     43127 TIP3     6270     TIP3     H1       HT       0.417000       1.00800           0
     43128 TIP3     6270     TIP3     H2       HT       0.417000       1.00800           0
     43129 TIP3     6271     TIP3     OH2      OT      -0.834000       15.9994           0
     43130 TIP3     6271     TIP3     H1       HT       0.417000       1.00800           0
     43131 TIP3     6271     TIP3     H2       HT       0.417000       1.00800           0
     43132 TIP3     6272     TIP3     OH2      OT      -0.834000       15.9994           0
     43133 TIP3     6272     TIP3     H1       HT       0.417000       1.00800           0
     43134 TIP3     6272     TIP3     H2       HT       0.417000       1.00800           0
     43135 TIP3     6273     TIP3     OH2      OT      -0.834000       15.9994           0
     43136 TIP3     6273     TIP3     H1       HT       0.417000       1.00800           0
     43137 TIP3     6273     TIP3     H2       HT       0.417000       1.00800           0
     43138 TIP3     6274     TIP3     OH2      OT      -0.834000       15.9994           0
     43139 TIP3     6274     TIP3     H1       HT       0.417000       1.00800           0
     43140 TIP3     6274     TIP3     H2       HT       0.417000       1.00800           0
     43141 TIP3     6275     TIP3     OH2      OT      -0.834000       15.9994           0
     43142 TIP3     6275     TIP3     H1       HT       0.417000       1.00800           0
     43143 TIP3     6275     TIP3     H2       HT       0.417000       1.00800           0
     43144 TIP3     6276     TIP3     OH2      OT      -0.834000       15.9994           0
     43145 TIP3     6276     TIP3     H1       HT       0.417000       1.00800           0
     43146 TIP3     6276     TIP3     H2       HT       0.417000       1.00800           0
     43147 TIP3     6277     TIP3     OH2      OT      -0.834000       15.9994           0
     43148 TIP3     6277     TIP3     H1       HT       0.417000       1.00800           0
     43149 TIP3     6277     TIP3     H2       HT       0.417000       1.00800           0
     43150 TIP3     6278     TIP3     OH2      OT      -0.834000       15.9994           0
     43151 TIP3     6278     TIP3     H1       HT       0.417000       1.00800           0
     43152 TIP3     6278     TIP3     H2       HT       0.417000       1.00800           0
     43153 TIP3     6279     TIP3     OH2      OT      -0.834000       15.9994           0
     43154 TIP3     6279     TIP3     H1       HT       0.417000       1.00800           0
     43155 TIP3     6279     TIP3     H2       HT       0.417000       1.00800           0
     43156 TIP3     6280     TIP3     OH2      OT      -0.834000       15.9994           0
     43157 TIP3     6280     TIP3     H1       HT       0.417000       1.00800           0
     43158 TIP3     6280     TIP3     H2       HT       0.417000       1.00800           0
     43159 TIP3     6281     TIP3     OH2      OT      -0.834000       15.9994           0
     43160 TIP3     6281     TIP3     H1       HT       0.417000       1.00800           0
     43161 TIP3     6281     TIP3     H2       HT       0.417000       1.00800           0
     43162 TIP3     6282     TIP3     OH2      OT      -0.834000       15.9994           0
     43163 TIP3     6282     TIP3     H1       HT       0.417000       1.00800           0
     43164 TIP3     6282     TIP3     H2       HT       0.417000       1.00800           0
     43165 TIP3     6283     TIP3     OH2      OT      -0.834000       15.9994           0
     43166 TIP3     6283     TIP3     H1       HT       0.417000       1.00800           0
     43167 TIP3     6283     TIP3     H2       HT       0.417000       1.00800           0
     43168 TIP3     6284     TIP3     OH2      OT      -0.834000       15.9994           0
     43169 TIP3     6284     TIP3     H1       HT       0.417000       1.00800           0
     43170 TIP3     6284     TIP3     H2       HT       0.417000       1.00800           0
     43171 TIP3     6285     TIP3     OH2      OT      -0.834000       15.9994           0
     43172 TIP3     6285     TIP3     H1       HT       0.417000       1.00800           0
     43173 TIP3     6285     TIP3     H2       HT       0.417000       1.00800           0
     43174 TIP3     6286     TIP3     OH2      OT      -0.834000       15.9994           0
     43175 TIP3     6286     TIP3     H1       HT       0.417000       1.00800           0
     43176 TIP3     6286     TIP3     H2       HT       0.417000       1.00800           0
     43177 TIP3     6287     TIP3     OH2      OT      -0.834000       15.9994           0
     43178 TIP3     6287     TIP3     H1       HT       0.417000       1.00800           0
     43179 TIP3     6287     TIP3     H2       HT       0.417000       1.00800           0
     43180 TIP3     6288     TIP3     OH2      OT      -0.834000       15.9994           0
     43181 TIP3     6288     TIP3     H1       HT       0.417000       1.00800           0
     43182 TIP3     6288     TIP3     H2       HT       0.417000       1.00800           0
     43183 TIP3     6289     TIP3     OH2      OT      -0.834000       15.9994           0
     43184 TIP3     6289     TIP3     H1       HT       0.417000       1.00800           0
     43185 TIP3     6289     TIP3     H2       HT       0.417000       1.00800           0
     43186 TIP3     6290     TIP3     OH2      OT      -0.834000       15.9994           0
     43187 TIP3     6290     TIP3     H1       HT       0.417000       1.00800           0
     43188 TIP3     6290     TIP3     H2       HT       0.417000       1.00800           0
     43189 TIP3     6291     TIP3     OH2      OT      -0.834000       15.9994           0
     43190 TIP3     6291     TIP3     H1       HT       0.417000       1.00800           0
     43191 TIP3     6291     TIP3     H2       HT       0.417000       1.00800           0
     43192 TIP3     6292     TIP3     OH2      OT      -0.834000       15.9994           0
     43193 TIP3     6292     TIP3     H1       HT       0.417000       1.00800           0
     43194 TIP3     6292     TIP3     H2       HT       0.417000       1.00800           0
     43195 TIP3     6293     TIP3     OH2      OT      -0.834000       15.9994           0
     43196 TIP3     6293     TIP3     H1       HT       0.417000       1.00800           0
     43197 TIP3     6293     TIP3     H2       HT       0.417000       1.00800           0
     43198 TIP3     6294     TIP3     OH2      OT      -0.834000       15.9994           0
     43199 TIP3     6294     TIP3     H1       HT       0.417000       1.00800           0
     43200 TIP3     6294     TIP3     H2       HT       0.417000       1.00800           0
     43201 TIP3     6295     TIP3     OH2      OT      -0.834000       15.9994           0
     43202 TIP3     6295     TIP3     H1       HT       0.417000       1.00800           0
     43203 TIP3     6295     TIP3     H2       HT       0.417000       1.00800           0
     43204 TIP3     6296     TIP3     OH2      OT      -0.834000       15.9994           0
     43205 TIP3     6296     TIP3     H1       HT       0.417000       1.00800           0
     43206 TIP3     6296     TIP3     H2       HT       0.417000       1.00800           0
     43207 TIP3     6297     TIP3     OH2      OT      -0.834000       15.9994           0
     43208 TIP3     6297     TIP3     H1       HT       0.417000       1.00800           0
     43209 TIP3     6297     TIP3     H2       HT       0.417000       1.00800           0
     43210 TIP3     6298     TIP3     OH2      OT      -0.834000       15.9994           0
     43211 TIP3     6298     TIP3     H1       HT       0.417000       1.00800           0
     43212 TIP3     6298     TIP3     H2       HT       0.417000       1.00800           0
     43213 TIP3     6299     TIP3     OH2      OT      -0.834000       15.9994           0
     43214 TIP3     6299     TIP3     H1       HT       0.417000       1.00800           0
     43215 TIP3     6299     TIP3     H2       HT       0.417000       1.00800           0
     43216 TIP3     6300     TIP3     OH2      OT      -0.834000       15.9994           0
     43217 TIP3     6300     TIP3     H1       HT       0.417000       1.00800           0
     43218 TIP3     6300     TIP3     H2       HT       0.417000       1.00800           0
     43219 TIP3     6301     TIP3     OH2      OT      -0.834000       15.9994           0
     43220 TIP3     6301     TIP3     H1       HT       0.417000       1.00800           0
     43221 TIP3     6301     TIP3     H2       HT       0.417000       1.00800           0
     43222 TIP3     6302     TIP3     OH2      OT      -0.834000       15.9994           0
     43223 TIP3     6302     TIP3     H1       HT       0.417000       1.00800           0
     43224 TIP3     6302     TIP3     H2       HT       0.417000       1.00800           0
     43225 TIP3     6303     TIP3     OH2      OT      -0.834000       15.9994           0
     43226 TIP3     6303     TIP3     H1       HT       0.417000       1.00800           0
     43227 TIP3     6303     TIP3     H2       HT       0.417000       1.00800           0
     43228 TIP3     6304     TIP3     OH2      OT      -0.834000       15.9994           0
     43229 TIP3     6304     TIP3     H1       HT       0.417000       1.00800           0
     43230 TIP3     6304     TIP3     H2       HT       0.417000       1.00800           0
     43231 TIP3     6305     TIP3     OH2      OT      -0.834000       15.9994           0
     43232 TIP3     6305     TIP3     H1       HT       0.417000       1.00800           0
     43233 TIP3     6305     TIP3     H2       HT       0.417000       1.00800           0
     43234 TIP3     6306     TIP3     OH2      OT      -0.834000       15.9994           0
     43235 TIP3     6306     TIP3     H1       HT       0.417000       1.00800           0
     43236 TIP3     6306     TIP3     H2       HT       0.417000       1.00800           0
     43237 TIP3     6307     TIP3     OH2      OT      -0.834000       15.9994           0
     43238 TIP3     6307     TIP3     H1       HT       0.417000       1.00800           0
     43239 TIP3     6307     TIP3     H2       HT       0.417000       1.00800           0
     43240 TIP3     6308     TIP3     OH2      OT      -0.834000       15.9994           0
     43241 TIP3     6308     TIP3     H1       HT       0.417000       1.00800           0
     43242 TIP3     6308     TIP3     H2       HT       0.417000       1.00800           0
     43243 TIP3     6309     TIP3     OH2      OT      -0.834000       15.9994           0
     43244 TIP3     6309     TIP3     H1       HT       0.417000       1.00800           0
     43245 TIP3     6309     TIP3     H2       HT       0.417000       1.00800           0
     43246 TIP3     6310     TIP3     OH2      OT      -0.834000       15.9994           0
     43247 TIP3     6310     TIP3     H1       HT       0.417000       1.00800           0
     43248 TIP3     6310     TIP3     H2       HT       0.417000       1.00800           0
     43249 TIP3     6311     TIP3     OH2      OT      -0.834000       15.9994           0
     43250 TIP3     6311     TIP3     H1       HT       0.417000       1.00800           0
     43251 TIP3     6311     TIP3     H2       HT       0.417000       1.00800           0
     43252 TIP3     6312     TIP3     OH2      OT      -0.834000       15.9994           0
     43253 TIP3     6312     TIP3     H1       HT       0.417000       1.00800           0
     43254 TIP3     6312     TIP3     H2       HT       0.417000       1.00800           0
     43255 TIP3     6313     TIP3     OH2      OT      -0.834000       15.9994           0
     43256 TIP3     6313     TIP3     H1       HT       0.417000       1.00800           0
     43257 TIP3     6313     TIP3     H2       HT       0.417000       1.00800           0
     43258 TIP3     6314     TIP3     OH2      OT      -0.834000       15.9994           0
     43259 TIP3     6314     TIP3     H1       HT       0.417000       1.00800           0
     43260 TIP3     6314     TIP3     H2       HT       0.417000       1.00800           0
     43261 TIP3     6315     TIP3     OH2      OT      -0.834000       15.9994           0
     43262 TIP3     6315     TIP3     H1       HT       0.417000       1.00800           0
     43263 TIP3     6315     TIP3     H2       HT       0.417000       1.00800           0
     43264 TIP3     6316     TIP3     OH2      OT      -0.834000       15.9994           0
     43265 TIP3     6316     TIP3     H1       HT       0.417000       1.00800           0
     43266 TIP3     6316     TIP3     H2       HT       0.417000       1.00800           0
     43267 TIP3     6317     TIP3     OH2      OT      -0.834000       15.9994           0
     43268 TIP3     6317     TIP3     H1       HT       0.417000       1.00800           0
     43269 TIP3     6317     TIP3     H2       HT       0.417000       1.00800           0
     43270 TIP3     6318     TIP3     OH2      OT      -0.834000       15.9994           0
     43271 TIP3     6318     TIP3     H1       HT       0.417000       1.00800           0
     43272 TIP3     6318     TIP3     H2       HT       0.417000       1.00800           0
     43273 TIP3     6319     TIP3     OH2      OT      -0.834000       15.9994           0
     43274 TIP3     6319     TIP3     H1       HT       0.417000       1.00800           0
     43275 TIP3     6319     TIP3     H2       HT       0.417000       1.00800           0
     43276 TIP3     6320     TIP3     OH2      OT      -0.834000       15.9994           0
     43277 TIP3     6320     TIP3     H1       HT       0.417000       1.00800           0
     43278 TIP3     6320     TIP3     H2       HT       0.417000       1.00800           0
     43279 TIP3     6321     TIP3     OH2      OT      -0.834000       15.9994           0
     43280 TIP3     6321     TIP3     H1       HT       0.417000       1.00800           0
     43281 TIP3     6321     TIP3     H2       HT       0.417000       1.00800           0
     43282 TIP3     6322     TIP3     OH2      OT      -0.834000       15.9994           0
     43283 TIP3     6322     TIP3     H1       HT       0.417000       1.00800           0
     43284 TIP3     6322     TIP3     H2       HT       0.417000       1.00800           0
     43285 TIP3     6323     TIP3     OH2      OT      -0.834000       15.9994           0
     43286 TIP3     6323     TIP3     H1       HT       0.417000       1.00800           0
     43287 TIP3     6323     TIP3     H2       HT       0.417000       1.00800           0
     43288 TIP3     6324     TIP3     OH2      OT      -0.834000       15.9994           0
     43289 TIP3     6324     TIP3     H1       HT       0.417000       1.00800           0
     43290 TIP3     6324     TIP3     H2       HT       0.417000       1.00800           0
     43291 TIP3     6325     TIP3     OH2      OT      -0.834000       15.9994           0
     43292 TIP3     6325     TIP3     H1       HT       0.417000       1.00800           0
     43293 TIP3     6325     TIP3     H2       HT       0.417000       1.00800           0
     43294 TIP3     6326     TIP3     OH2      OT      -0.834000       15.9994           0
     43295 TIP3     6326     TIP3     H1       HT       0.417000       1.00800           0
     43296 TIP3     6326     TIP3     H2       HT       0.417000       1.00800           0
     43297 TIP3     6327     TIP3     OH2      OT      -0.834000       15.9994           0
     43298 TIP3     6327     TIP3     H1       HT       0.417000       1.00800           0
     43299 TIP3     6327     TIP3     H2       HT       0.417000       1.00800           0
     43300 TIP3     6328     TIP3     OH2      OT      -0.834000       15.9994           0
     43301 TIP3     6328     TIP3     H1       HT       0.417000       1.00800           0
     43302 TIP3     6328     TIP3     H2       HT       0.417000       1.00800           0
     43303 TIP3     6329     TIP3     OH2      OT      -0.834000       15.9994           0
     43304 TIP3     6329     TIP3     H1       HT       0.417000       1.00800           0
     43305 TIP3     6329     TIP3     H2       HT       0.417000       1.00800           0
     43306 TIP3     6330     TIP3     OH2      OT      -0.834000       15.9994           0
     43307 TIP3     6330     TIP3     H1       HT       0.417000       1.00800           0
     43308 TIP3     6330     TIP3     H2       HT       0.417000       1.00800           0
     43309 TIP3     6331     TIP3     OH2      OT      -0.834000       15.9994           0
     43310 TIP3     6331     TIP3     H1       HT       0.417000       1.00800           0
     43311 TIP3     6331     TIP3     H2       HT       0.417000       1.00800           0
     43312 TIP3     6332     TIP3     OH2      OT      -0.834000       15.9994           0
     43313 TIP3     6332     TIP3     H1       HT       0.417000       1.00800           0
     43314 TIP3     6332     TIP3     H2       HT       0.417000       1.00800           0
     43315 TIP3     6333     TIP3     OH2      OT      -0.834000       15.9994           0
     43316 TIP3     6333     TIP3     H1       HT       0.417000       1.00800           0
     43317 TIP3     6333     TIP3     H2       HT       0.417000       1.00800           0
     43318 TIP3     6334     TIP3     OH2      OT      -0.834000       15.9994           0
     43319 TIP3     6334     TIP3     H1       HT       0.417000       1.00800           0
     43320 TIP3     6334     TIP3     H2       HT       0.417000       1.00800           0
     43321 TIP3     6335     TIP3     OH2      OT      -0.834000       15.9994           0
     43322 TIP3     6335     TIP3     H1       HT       0.417000       1.00800           0
     43323 TIP3     6335     TIP3     H2       HT       0.417000       1.00800           0
     43324 TIP3     6336     TIP3     OH2      OT      -0.834000       15.9994           0
     43325 TIP3     6336     TIP3     H1       HT       0.417000       1.00800           0
     43326 TIP3     6336     TIP3     H2       HT       0.417000       1.00800           0
     43327 TIP3     6337     TIP3     OH2      OT      -0.834000       15.9994           0
     43328 TIP3     6337     TIP3     H1       HT       0.417000       1.00800           0
     43329 TIP3     6337     TIP3     H2       HT       0.417000       1.00800           0
     43330 TIP3     6338     TIP3     OH2      OT      -0.834000       15.9994           0
     43331 TIP3     6338     TIP3     H1       HT       0.417000       1.00800           0
     43332 TIP3     6338     TIP3     H2       HT       0.417000       1.00800           0
     43333 TIP3     6339     TIP3     OH2      OT      -0.834000       15.9994           0
     43334 TIP3     6339     TIP3     H1       HT       0.417000       1.00800           0
     43335 TIP3     6339     TIP3     H2       HT       0.417000       1.00800           0
     43336 TIP3     6340     TIP3     OH2      OT      -0.834000       15.9994           0
     43337 TIP3     6340     TIP3     H1       HT       0.417000       1.00800           0
     43338 TIP3     6340     TIP3     H2       HT       0.417000       1.00800           0
     43339 TIP3     6341     TIP3     OH2      OT      -0.834000       15.9994           0
     43340 TIP3     6341     TIP3     H1       HT       0.417000       1.00800           0
     43341 TIP3     6341     TIP3     H2       HT       0.417000       1.00800           0
     43342 TIP3     6342     TIP3     OH2      OT      -0.834000       15.9994           0
     43343 TIP3     6342     TIP3     H1       HT       0.417000       1.00800           0
     43344 TIP3     6342     TIP3     H2       HT       0.417000       1.00800           0
     43345 TIP3     6343     TIP3     OH2      OT      -0.834000       15.9994           0
     43346 TIP3     6343     TIP3     H1       HT       0.417000       1.00800           0
     43347 TIP3     6343     TIP3     H2       HT       0.417000       1.00800           0
     43348 TIP3     6344     TIP3     OH2      OT      -0.834000       15.9994           0
     43349 TIP3     6344     TIP3     H1       HT       0.417000       1.00800           0
     43350 TIP3     6344     TIP3     H2       HT       0.417000       1.00800           0
     43351 TIP3     6345     TIP3     OH2      OT      -0.834000       15.9994           0
     43352 TIP3     6345     TIP3     H1       HT       0.417000       1.00800           0
     43353 TIP3     6345     TIP3     H2       HT       0.417000       1.00800           0
     43354 TIP3     6346     TIP3     OH2      OT      -0.834000       15.9994           0
     43355 TIP3     6346     TIP3     H1       HT       0.417000       1.00800           0
     43356 TIP3     6346     TIP3     H2       HT       0.417000       1.00800           0
     43357 TIP3     6347     TIP3     OH2      OT      -0.834000       15.9994           0
     43358 TIP3     6347     TIP3     H1       HT       0.417000       1.00800           0
     43359 TIP3     6347     TIP3     H2       HT       0.417000       1.00800           0
     43360 TIP3     6348     TIP3     OH2      OT      -0.834000       15.9994           0
     43361 TIP3     6348     TIP3     H1       HT       0.417000       1.00800           0
     43362 TIP3     6348     TIP3     H2       HT       0.417000       1.00800           0
     43363 TIP3     6349     TIP3     OH2      OT      -0.834000       15.9994           0
     43364 TIP3     6349     TIP3     H1       HT       0.417000       1.00800           0
     43365 TIP3     6349     TIP3     H2       HT       0.417000       1.00800           0
     43366 TIP3     6350     TIP3     OH2      OT      -0.834000       15.9994           0
     43367 TIP3     6350     TIP3     H1       HT       0.417000       1.00800           0
     43368 TIP3     6350     TIP3     H2       HT       0.417000       1.00800           0
     43369 TIP3     6351     TIP3     OH2      OT      -0.834000       15.9994           0
     43370 TIP3     6351     TIP3     H1       HT       0.417000       1.00800           0
     43371 TIP3     6351     TIP3     H2       HT       0.417000       1.00800           0
     43372 TIP3     6352     TIP3     OH2      OT      -0.834000       15.9994           0
     43373 TIP3     6352     TIP3     H1       HT       0.417000       1.00800           0
     43374 TIP3     6352     TIP3     H2       HT       0.417000       1.00800           0
     43375 TIP3     6353     TIP3     OH2      OT      -0.834000       15.9994           0
     43376 TIP3     6353     TIP3     H1       HT       0.417000       1.00800           0
     43377 TIP3     6353     TIP3     H2       HT       0.417000       1.00800           0
     43378 TIP3     6354     TIP3     OH2      OT      -0.834000       15.9994           0
     43379 TIP3     6354     TIP3     H1       HT       0.417000       1.00800           0
     43380 TIP3     6354     TIP3     H2       HT       0.417000       1.00800           0
     43381 TIP3     6355     TIP3     OH2      OT      -0.834000       15.9994           0
     43382 TIP3     6355     TIP3     H1       HT       0.417000       1.00800           0
     43383 TIP3     6355     TIP3     H2       HT       0.417000       1.00800           0
     43384 TIP3     6356     TIP3     OH2      OT      -0.834000       15.9994           0
     43385 TIP3     6356     TIP3     H1       HT       0.417000       1.00800           0
     43386 TIP3     6356     TIP3     H2       HT       0.417000       1.00800           0
     43387 TIP3     6357     TIP3     OH2      OT      -0.834000       15.9994           0
     43388 TIP3     6357     TIP3     H1       HT       0.417000       1.00800           0
     43389 TIP3     6357     TIP3     H2       HT       0.417000       1.00800           0
     43390 TIP3     6358     TIP3     OH2      OT      -0.834000       15.9994           0
     43391 TIP3     6358     TIP3     H1       HT       0.417000       1.00800           0
     43392 TIP3     6358     TIP3     H2       HT       0.417000       1.00800           0
     43393 TIP3     6359     TIP3     OH2      OT      -0.834000       15.9994           0
     43394 TIP3     6359     TIP3     H1       HT       0.417000       1.00800           0
     43395 TIP3     6359     TIP3     H2       HT       0.417000       1.00800           0
     43396 TIP3     6360     TIP3     OH2      OT      -0.834000       15.9994           0
     43397 TIP3     6360     TIP3     H1       HT       0.417000       1.00800           0
     43398 TIP3     6360     TIP3     H2       HT       0.417000       1.00800           0
     43399 TIP3     6361     TIP3     OH2      OT      -0.834000       15.9994           0
     43400 TIP3     6361     TIP3     H1       HT       0.417000       1.00800           0
     43401 TIP3     6361     TIP3     H2       HT       0.417000       1.00800           0
     43402 TIP3     6362     TIP3     OH2      OT      -0.834000       15.9994           0
     43403 TIP3     6362     TIP3     H1       HT       0.417000       1.00800           0
     43404 TIP3     6362     TIP3     H2       HT       0.417000       1.00800           0
     43405 TIP3     6363     TIP3     OH2      OT      -0.834000       15.9994           0
     43406 TIP3     6363     TIP3     H1       HT       0.417000       1.00800           0
     43407 TIP3     6363     TIP3     H2       HT       0.417000       1.00800           0
     43408 TIP3     6364     TIP3     OH2      OT      -0.834000       15.9994           0
     43409 TIP3     6364     TIP3     H1       HT       0.417000       1.00800           0
     43410 TIP3     6364     TIP3     H2       HT       0.417000       1.00800           0
     43411 TIP3     6365     TIP3     OH2      OT      -0.834000       15.9994           0
     43412 TIP3     6365     TIP3     H1       HT       0.417000       1.00800           0
     43413 TIP3     6365     TIP3     H2       HT       0.417000       1.00800           0
     43414 TIP3     6366     TIP3     OH2      OT      -0.834000       15.9994           0
     43415 TIP3     6366     TIP3     H1       HT       0.417000       1.00800           0
     43416 TIP3     6366     TIP3     H2       HT       0.417000       1.00800           0
     43417 TIP3     6367     TIP3     OH2      OT      -0.834000       15.9994           0
     43418 TIP3     6367     TIP3     H1       HT       0.417000       1.00800           0
     43419 TIP3     6367     TIP3     H2       HT       0.417000       1.00800           0
     43420 TIP3     6368     TIP3     OH2      OT      -0.834000       15.9994           0
     43421 TIP3     6368     TIP3     H1       HT       0.417000       1.00800           0
     43422 TIP3     6368     TIP3     H2       HT       0.417000       1.00800           0
     43423 TIP3     6369     TIP3     OH2      OT      -0.834000       15.9994           0
     43424 TIP3     6369     TIP3     H1       HT       0.417000       1.00800           0
     43425 TIP3     6369     TIP3     H2       HT       0.417000       1.00800           0
     43426 TIP3     6370     TIP3     OH2      OT      -0.834000       15.9994           0
     43427 TIP3     6370     TIP3     H1       HT       0.417000       1.00800           0
     43428 TIP3     6370     TIP3     H2       HT       0.417000       1.00800           0
     43429 TIP3     6371     TIP3     OH2      OT      -0.834000       15.9994           0
     43430 TIP3     6371     TIP3     H1       HT       0.417000       1.00800           0
     43431 TIP3     6371     TIP3     H2       HT       0.417000       1.00800           0
     43432 TIP3     6372     TIP3     OH2      OT      -0.834000       15.9994           0
     43433 TIP3     6372     TIP3     H1       HT       0.417000       1.00800           0
     43434 TIP3     6372     TIP3     H2       HT       0.417000       1.00800           0
     43435 TIP3     6373     TIP3     OH2      OT      -0.834000       15.9994           0
     43436 TIP3     6373     TIP3     H1       HT       0.417000       1.00800           0
     43437 TIP3     6373     TIP3     H2       HT       0.417000       1.00800           0
     43438 TIP3     6374     TIP3     OH2      OT      -0.834000       15.9994           0
     43439 TIP3     6374     TIP3     H1       HT       0.417000       1.00800           0
     43440 TIP3     6374     TIP3     H2       HT       0.417000       1.00800           0
     43441 TIP3     6375     TIP3     OH2      OT      -0.834000       15.9994           0
     43442 TIP3     6375     TIP3     H1       HT       0.417000       1.00800           0
     43443 TIP3     6375     TIP3     H2       HT       0.417000       1.00800           0
     43444 TIP3     6376     TIP3     OH2      OT      -0.834000       15.9994           0
     43445 TIP3     6376     TIP3     H1       HT       0.417000       1.00800           0
     43446 TIP3     6376     TIP3     H2       HT       0.417000       1.00800           0
     43447 TIP3     6377     TIP3     OH2      OT      -0.834000       15.9994           0
     43448 TIP3     6377     TIP3     H1       HT       0.417000       1.00800           0
     43449 TIP3     6377     TIP3     H2       HT       0.417000       1.00800           0
     43450 TIP3     6378     TIP3     OH2      OT      -0.834000       15.9994           0
     43451 TIP3     6378     TIP3     H1       HT       0.417000       1.00800           0
     43452 TIP3     6378     TIP3     H2       HT       0.417000       1.00800           0
     43453 TIP3     6379     TIP3     OH2      OT      -0.834000       15.9994           0
     43454 TIP3     6379     TIP3     H1       HT       0.417000       1.00800           0
     43455 TIP3     6379     TIP3     H2       HT       0.417000       1.00800           0
     43456 TIP3     6380     TIP3     OH2      OT      -0.834000       15.9994           0
     43457 TIP3     6380     TIP3     H1       HT       0.417000       1.00800           0
     43458 TIP3     6380     TIP3     H2       HT       0.417000       1.00800           0
     43459 TIP3     6381     TIP3     OH2      OT      -0.834000       15.9994           0
     43460 TIP3     6381     TIP3     H1       HT       0.417000       1.00800           0
     43461 TIP3     6381     TIP3     H2       HT       0.417000       1.00800           0
     43462 TIP3     6382     TIP3     OH2      OT      -0.834000       15.9994           0
     43463 TIP3     6382     TIP3     H1       HT       0.417000       1.00800           0
     43464 TIP3     6382     TIP3     H2       HT       0.417000       1.00800           0
     43465 TIP3     6383     TIP3     OH2      OT      -0.834000       15.9994           0
     43466 TIP3     6383     TIP3     H1       HT       0.417000       1.00800           0
     43467 TIP3     6383     TIP3     H2       HT       0.417000       1.00800           0
     43468 TIP3     6384     TIP3     OH2      OT      -0.834000       15.9994           0
     43469 TIP3     6384     TIP3     H1       HT       0.417000       1.00800           0
     43470 TIP3     6384     TIP3     H2       HT       0.417000       1.00800           0
     43471 TIP3     6385     TIP3     OH2      OT      -0.834000       15.9994           0
     43472 TIP3     6385     TIP3     H1       HT       0.417000       1.00800           0
     43473 TIP3     6385     TIP3     H2       HT       0.417000       1.00800           0
     43474 TIP3     6386     TIP3     OH2      OT      -0.834000       15.9994           0
     43475 TIP3     6386     TIP3     H1       HT       0.417000       1.00800           0
     43476 TIP3     6386     TIP3     H2       HT       0.417000       1.00800           0
     43477 TIP3     6387     TIP3     OH2      OT      -0.834000       15.9994           0
     43478 TIP3     6387     TIP3     H1       HT       0.417000       1.00800           0
     43479 TIP3     6387     TIP3     H2       HT       0.417000       1.00800           0
     43480 TIP3     6388     TIP3     OH2      OT      -0.834000       15.9994           0
     43481 TIP3     6388     TIP3     H1       HT       0.417000       1.00800           0
     43482 TIP3     6388     TIP3     H2       HT       0.417000       1.00800           0
     43483 TIP3     6389     TIP3     OH2      OT      -0.834000       15.9994           0
     43484 TIP3     6389     TIP3     H1       HT       0.417000       1.00800           0
     43485 TIP3     6389     TIP3     H2       HT       0.417000       1.00800           0
     43486 TIP3     6390     TIP3     OH2      OT      -0.834000       15.9994           0
     43487 TIP3     6390     TIP3     H1       HT       0.417000       1.00800           0
     43488 TIP3     6390     TIP3     H2       HT       0.417000       1.00800           0
     43489 TIP3     6391     TIP3     OH2      OT      -0.834000       15.9994           0
     43490 TIP3     6391     TIP3     H1       HT       0.417000       1.00800           0
     43491 TIP3     6391     TIP3     H2       HT       0.417000       1.00800           0
     43492 TIP3     6392     TIP3     OH2      OT      -0.834000       15.9994           0
     43493 TIP3     6392     TIP3     H1       HT       0.417000       1.00800           0
     43494 TIP3     6392     TIP3     H2       HT       0.417000       1.00800           0
     43495 TIP3     6393     TIP3     OH2      OT      -0.834000       15.9994           0
     43496 TIP3     6393     TIP3     H1       HT       0.417000       1.00800           0
     43497 TIP3     6393     TIP3     H2       HT       0.417000       1.00800           0
     43498 TIP3     6394     TIP3     OH2      OT      -0.834000       15.9994           0
     43499 TIP3     6394     TIP3     H1       HT       0.417000       1.00800           0
     43500 TIP3     6394     TIP3     H2       HT       0.417000       1.00800           0
     43501 TIP3     6395     TIP3     OH2      OT      -0.834000       15.9994           0
     43502 TIP3     6395     TIP3     H1       HT       0.417000       1.00800           0
     43503 TIP3     6395     TIP3     H2       HT       0.417000       1.00800           0
     43504 TIP3     6396     TIP3     OH2      OT      -0.834000       15.9994           0
     43505 TIP3     6396     TIP3     H1       HT       0.417000       1.00800           0
     43506 TIP3     6396     TIP3     H2       HT       0.417000       1.00800           0
     43507 TIP3     6397     TIP3     OH2      OT      -0.834000       15.9994           0
     43508 TIP3     6397     TIP3     H1       HT       0.417000       1.00800           0
     43509 TIP3     6397     TIP3     H2       HT       0.417000       1.00800           0
     43510 TIP3     6398     TIP3     OH2      OT      -0.834000       15.9994           0
     43511 TIP3     6398     TIP3     H1       HT       0.417000       1.00800           0
     43512 TIP3     6398     TIP3     H2       HT       0.417000       1.00800           0
     43513 TIP3     6399     TIP3     OH2      OT      -0.834000       15.9994           0
     43514 TIP3     6399     TIP3     H1       HT       0.417000       1.00800           0
     43515 TIP3     6399     TIP3     H2       HT       0.417000       1.00800           0
     43516 TIP3     6400     TIP3     OH2      OT      -0.834000       15.9994           0
     43517 TIP3     6400     TIP3     H1       HT       0.417000       1.00800           0
     43518 TIP3     6400     TIP3     H2       HT       0.417000       1.00800           0
     43519 TIP3     6401     TIP3     OH2      OT      -0.834000       15.9994           0
     43520 TIP3     6401     TIP3     H1       HT       0.417000       1.00800           0
     43521 TIP3     6401     TIP3     H2       HT       0.417000       1.00800           0
     43522 TIP3     6402     TIP3     OH2      OT      -0.834000       15.9994           0
     43523 TIP3     6402     TIP3     H1       HT       0.417000       1.00800           0
     43524 TIP3     6402     TIP3     H2       HT       0.417000       1.00800           0
     43525 TIP3     6403     TIP3     OH2      OT      -0.834000       15.9994           0
     43526 TIP3     6403     TIP3     H1       HT       0.417000       1.00800           0
     43527 TIP3     6403     TIP3     H2       HT       0.417000       1.00800           0
     43528 TIP3     6404     TIP3     OH2      OT      -0.834000       15.9994           0
     43529 TIP3     6404     TIP3     H1       HT       0.417000       1.00800           0
     43530 TIP3     6404     TIP3     H2       HT       0.417000       1.00800           0
     43531 TIP3     6405     TIP3     OH2      OT      -0.834000       15.9994           0
     43532 TIP3     6405     TIP3     H1       HT       0.417000       1.00800           0
     43533 TIP3     6405     TIP3     H2       HT       0.417000       1.00800           0
     43534 TIP3     6406     TIP3     OH2      OT      -0.834000       15.9994           0
     43535 TIP3     6406     TIP3     H1       HT       0.417000       1.00800           0
     43536 TIP3     6406     TIP3     H2       HT       0.417000       1.00800           0
     43537 TIP3     6407     TIP3     OH2      OT      -0.834000       15.9994           0
     43538 TIP3     6407     TIP3     H1       HT       0.417000       1.00800           0
     43539 TIP3     6407     TIP3     H2       HT       0.417000       1.00800           0
     43540 TIP3     6408     TIP3     OH2      OT      -0.834000       15.9994           0
     43541 TIP3     6408     TIP3     H1       HT       0.417000       1.00800           0
     43542 TIP3     6408     TIP3     H2       HT       0.417000       1.00800           0
     43543 TIP3     6409     TIP3     OH2      OT      -0.834000       15.9994           0
     43544 TIP3     6409     TIP3     H1       HT       0.417000       1.00800           0
     43545 TIP3     6409     TIP3     H2       HT       0.417000       1.00800           0
     43546 TIP3     6410     TIP3     OH2      OT      -0.834000       15.9994           0
     43547 TIP3     6410     TIP3     H1       HT       0.417000       1.00800           0
     43548 TIP3     6410     TIP3     H2       HT       0.417000       1.00800           0
     43549 TIP3     6411     TIP3     OH2      OT      -0.834000       15.9994           0
     43550 TIP3     6411     TIP3     H1       HT       0.417000       1.00800           0
     43551 TIP3     6411     TIP3     H2       HT       0.417000       1.00800           0
     43552 TIP3     6412     TIP3     OH2      OT      -0.834000       15.9994           0
     43553 TIP3     6412     TIP3     H1       HT       0.417000       1.00800           0
     43554 TIP3     6412     TIP3     H2       HT       0.417000       1.00800           0
     43555 TIP3     6413     TIP3     OH2      OT      -0.834000       15.9994           0
     43556 TIP3     6413     TIP3     H1       HT       0.417000       1.00800           0
     43557 TIP3     6413     TIP3     H2       HT       0.417000       1.00800           0
     43558 TIP3     6414     TIP3     OH2      OT      -0.834000       15.9994           0
     43559 TIP3     6414     TIP3     H1       HT       0.417000       1.00800           0
     43560 TIP3     6414     TIP3     H2       HT       0.417000       1.00800           0
     43561 TIP3     6415     TIP3     OH2      OT      -0.834000       15.9994           0
     43562 TIP3     6415     TIP3     H1       HT       0.417000       1.00800           0
     43563 TIP3     6415     TIP3     H2       HT       0.417000       1.00800           0
     43564 TIP3     6416     TIP3     OH2      OT      -0.834000       15.9994           0
     43565 TIP3     6416     TIP3     H1       HT       0.417000       1.00800           0
     43566 TIP3     6416     TIP3     H2       HT       0.417000       1.00800           0
     43567 TIP3     6417     TIP3     OH2      OT      -0.834000       15.9994           0
     43568 TIP3     6417     TIP3     H1       HT       0.417000       1.00800           0
     43569 TIP3     6417     TIP3     H2       HT       0.417000       1.00800           0
     43570 TIP3     6418     TIP3     OH2      OT      -0.834000       15.9994           0
     43571 TIP3     6418     TIP3     H1       HT       0.417000       1.00800           0
     43572 TIP3     6418     TIP3     H2       HT       0.417000       1.00800           0
     43573 TIP3     6419     TIP3     OH2      OT      -0.834000       15.9994           0
     43574 TIP3     6419     TIP3     H1       HT       0.417000       1.00800           0
     43575 TIP3     6419     TIP3     H2       HT       0.417000       1.00800           0
     43576 TIP3     6420     TIP3     OH2      OT      -0.834000       15.9994           0
     43577 TIP3     6420     TIP3     H1       HT       0.417000       1.00800           0
     43578 TIP3     6420     TIP3     H2       HT       0.417000       1.00800           0
     43579 TIP3     6421     TIP3     OH2      OT      -0.834000       15.9994           0
     43580 TIP3     6421     TIP3     H1       HT       0.417000       1.00800           0
     43581 TIP3     6421     TIP3     H2       HT       0.417000       1.00800           0
     43582 TIP3     6422     TIP3     OH2      OT      -0.834000       15.9994           0
     43583 TIP3     6422     TIP3     H1       HT       0.417000       1.00800           0
     43584 TIP3     6422     TIP3     H2       HT       0.417000       1.00800           0
     43585 TIP3     6423     TIP3     OH2      OT      -0.834000       15.9994           0
     43586 TIP3     6423     TIP3     H1       HT       0.417000       1.00800           0
     43587 TIP3     6423     TIP3     H2       HT       0.417000       1.00800           0
     43588 TIP3     6424     TIP3     OH2      OT      -0.834000       15.9994           0
     43589 TIP3     6424     TIP3     H1       HT       0.417000       1.00800           0
     43590 TIP3     6424     TIP3     H2       HT       0.417000       1.00800           0
     43591 TIP3     6425     TIP3     OH2      OT      -0.834000       15.9994           0
     43592 TIP3     6425     TIP3     H1       HT       0.417000       1.00800           0
     43593 TIP3     6425     TIP3     H2       HT       0.417000       1.00800           0
     43594 TIP3     6426     TIP3     OH2      OT      -0.834000       15.9994           0
     43595 TIP3     6426     TIP3     H1       HT       0.417000       1.00800           0
     43596 TIP3     6426     TIP3     H2       HT       0.417000       1.00800           0
     43597 TIP3     6427     TIP3     OH2      OT      -0.834000       15.9994           0
     43598 TIP3     6427     TIP3     H1       HT       0.417000       1.00800           0
     43599 TIP3     6427     TIP3     H2       HT       0.417000       1.00800           0
     43600 TIP3     6428     TIP3     OH2      OT      -0.834000       15.9994           0
     43601 TIP3     6428     TIP3     H1       HT       0.417000       1.00800           0
     43602 TIP3     6428     TIP3     H2       HT       0.417000       1.00800           0
     43603 TIP3     6429     TIP3     OH2      OT      -0.834000       15.9994           0
     43604 TIP3     6429     TIP3     H1       HT       0.417000       1.00800           0
     43605 TIP3     6429     TIP3     H2       HT       0.417000       1.00800           0
     43606 TIP3     6430     TIP3     OH2      OT      -0.834000       15.9994           0
     43607 TIP3     6430     TIP3     H1       HT       0.417000       1.00800           0
     43608 TIP3     6430     TIP3     H2       HT       0.417000       1.00800           0
     43609 TIP3     6431     TIP3     OH2      OT      -0.834000       15.9994           0
     43610 TIP3     6431     TIP3     H1       HT       0.417000       1.00800           0
     43611 TIP3     6431     TIP3     H2       HT       0.417000       1.00800           0
     43612 TIP3     6432     TIP3     OH2      OT      -0.834000       15.9994           0
     43613 TIP3     6432     TIP3     H1       HT       0.417000       1.00800           0
     43614 TIP3     6432     TIP3     H2       HT       0.417000       1.00800           0
     43615 TIP3     6433     TIP3     OH2      OT      -0.834000       15.9994           0
     43616 TIP3     6433     TIP3     H1       HT       0.417000       1.00800           0
     43617 TIP3     6433     TIP3     H2       HT       0.417000       1.00800           0
     43618 TIP3     6434     TIP3     OH2      OT      -0.834000       15.9994           0
     43619 TIP3     6434     TIP3     H1       HT       0.417000       1.00800           0
     43620 TIP3     6434     TIP3     H2       HT       0.417000       1.00800           0
     43621 TIP3     6435     TIP3     OH2      OT      -0.834000       15.9994           0
     43622 TIP3     6435     TIP3     H1       HT       0.417000       1.00800           0
     43623 TIP3     6435     TIP3     H2       HT       0.417000       1.00800           0
     43624 TIP3     6436     TIP3     OH2      OT      -0.834000       15.9994           0
     43625 TIP3     6436     TIP3     H1       HT       0.417000       1.00800           0
     43626 TIP3     6436     TIP3     H2       HT       0.417000       1.00800           0
     43627 TIP3     6437     TIP3     OH2      OT      -0.834000       15.9994           0
     43628 TIP3     6437     TIP3     H1       HT       0.417000       1.00800           0
     43629 TIP3     6437     TIP3     H2       HT       0.417000       1.00800           0
     43630 TIP3     6438     TIP3     OH2      OT      -0.834000       15.9994           0
     43631 TIP3     6438     TIP3     H1       HT       0.417000       1.00800           0
     43632 TIP3     6438     TIP3     H2       HT       0.417000       1.00800           0
     43633 TIP3     6439     TIP3     OH2      OT      -0.834000       15.9994           0
     43634 TIP3     6439     TIP3     H1       HT       0.417000       1.00800           0
     43635 TIP3     6439     TIP3     H2       HT       0.417000       1.00800           0
     43636 TIP3     6440     TIP3     OH2      OT      -0.834000       15.9994           0
     43637 TIP3     6440     TIP3     H1       HT       0.417000       1.00800           0
     43638 TIP3     6440     TIP3     H2       HT       0.417000       1.00800           0
     43639 TIP3     6441     TIP3     OH2      OT      -0.834000       15.9994           0
     43640 TIP3     6441     TIP3     H1       HT       0.417000       1.00800           0
     43641 TIP3     6441     TIP3     H2       HT       0.417000       1.00800           0
     43642 TIP3     6442     TIP3     OH2      OT      -0.834000       15.9994           0
     43643 TIP3     6442     TIP3     H1       HT       0.417000       1.00800           0
     43644 TIP3     6442     TIP3     H2       HT       0.417000       1.00800           0
     43645 TIP3     6443     TIP3     OH2      OT      -0.834000       15.9994           0
     43646 TIP3     6443     TIP3     H1       HT       0.417000       1.00800           0
     43647 TIP3     6443     TIP3     H2       HT       0.417000       1.00800           0
     43648 TIP3     6444     TIP3     OH2      OT      -0.834000       15.9994           0
     43649 TIP3     6444     TIP3     H1       HT       0.417000       1.00800           0
     43650 TIP3     6444     TIP3     H2       HT       0.417000       1.00800           0
     43651 TIP3     6445     TIP3     OH2      OT      -0.834000       15.9994           0
     43652 TIP3     6445     TIP3     H1       HT       0.417000       1.00800           0
     43653 TIP3     6445     TIP3     H2       HT       0.417000       1.00800           0
     43654 TIP3     6446     TIP3     OH2      OT      -0.834000       15.9994           0
     43655 TIP3     6446     TIP3     H1       HT       0.417000       1.00800           0
     43656 TIP3     6446     TIP3     H2       HT       0.417000       1.00800           0
     43657 TIP3     6447     TIP3     OH2      OT      -0.834000       15.9994           0
     43658 TIP3     6447     TIP3     H1       HT       0.417000       1.00800           0
     43659 TIP3     6447     TIP3     H2       HT       0.417000       1.00800           0
     43660 TIP3     6448     TIP3     OH2      OT      -0.834000       15.9994           0
     43661 TIP3     6448     TIP3     H1       HT       0.417000       1.00800           0
     43662 TIP3     6448     TIP3     H2       HT       0.417000       1.00800           0
     43663 TIP3     6449     TIP3     OH2      OT      -0.834000       15.9994           0
     43664 TIP3     6449     TIP3     H1       HT       0.417000       1.00800           0
     43665 TIP3     6449     TIP3     H2       HT       0.417000       1.00800           0
     43666 TIP3     6450     TIP3     OH2      OT      -0.834000       15.9994           0
     43667 TIP3     6450     TIP3     H1       HT       0.417000       1.00800           0
     43668 TIP3     6450     TIP3     H2       HT       0.417000       1.00800           0
     43669 TIP3     6451     TIP3     OH2      OT      -0.834000       15.9994           0
     43670 TIP3     6451     TIP3     H1       HT       0.417000       1.00800           0
     43671 TIP3     6451     TIP3     H2       HT       0.417000       1.00800           0
     43672 TIP3     6452     TIP3     OH2      OT      -0.834000       15.9994           0
     43673 TIP3     6452     TIP3     H1       HT       0.417000       1.00800           0
     43674 TIP3     6452     TIP3     H2       HT       0.417000       1.00800           0
     43675 TIP3     6453     TIP3     OH2      OT      -0.834000       15.9994           0
     43676 TIP3     6453     TIP3     H1       HT       0.417000       1.00800           0
     43677 TIP3     6453     TIP3     H2       HT       0.417000       1.00800           0
     43678 TIP3     6454     TIP3     OH2      OT      -0.834000       15.9994           0
     43679 TIP3     6454     TIP3     H1       HT       0.417000       1.00800           0
     43680 TIP3     6454     TIP3     H2       HT       0.417000       1.00800           0
     43681 TIP3     6455     TIP3     OH2      OT      -0.834000       15.9994           0
     43682 TIP3     6455     TIP3     H1       HT       0.417000       1.00800           0
     43683 TIP3     6455     TIP3     H2       HT       0.417000       1.00800           0
     43684 TIP3     6456     TIP3     OH2      OT      -0.834000       15.9994           0
     43685 TIP3     6456     TIP3     H1       HT       0.417000       1.00800           0
     43686 TIP3     6456     TIP3     H2       HT       0.417000       1.00800           0
     43687 TIP3     6457     TIP3     OH2      OT      -0.834000       15.9994           0
     43688 TIP3     6457     TIP3     H1       HT       0.417000       1.00800           0
     43689 TIP3     6457     TIP3     H2       HT       0.417000       1.00800           0
     43690 TIP3     6458     TIP3     OH2      OT      -0.834000       15.9994           0
     43691 TIP3     6458     TIP3     H1       HT       0.417000       1.00800           0
     43692 TIP3     6458     TIP3     H2       HT       0.417000       1.00800           0
     43693 TIP3     6459     TIP3     OH2      OT      -0.834000       15.9994           0
     43694 TIP3     6459     TIP3     H1       HT       0.417000       1.00800           0
     43695 TIP3     6459     TIP3     H2       HT       0.417000       1.00800           0
     43696 TIP3     6460     TIP3     OH2      OT      -0.834000       15.9994           0
     43697 TIP3     6460     TIP3     H1       HT       0.417000       1.00800           0
     43698 TIP3     6460     TIP3     H2       HT       0.417000       1.00800           0
     43699 TIP3     6461     TIP3     OH2      OT      -0.834000       15.9994           0
     43700 TIP3     6461     TIP3     H1       HT       0.417000       1.00800           0
     43701 TIP3     6461     TIP3     H2       HT       0.417000       1.00800           0
     43702 TIP3     6462     TIP3     OH2      OT      -0.834000       15.9994           0
     43703 TIP3     6462     TIP3     H1       HT       0.417000       1.00800           0
     43704 TIP3     6462     TIP3     H2       HT       0.417000       1.00800           0
     43705 TIP3     6463     TIP3     OH2      OT      -0.834000       15.9994           0
     43706 TIP3     6463     TIP3     H1       HT       0.417000       1.00800           0
     43707 TIP3     6463     TIP3     H2       HT       0.417000       1.00800           0
     43708 TIP3     6464     TIP3     OH2      OT      -0.834000       15.9994           0
     43709 TIP3     6464     TIP3     H1       HT       0.417000       1.00800           0
     43710 TIP3     6464     TIP3     H2       HT       0.417000       1.00800           0
     43711 TIP3     6465     TIP3     OH2      OT      -0.834000       15.9994           0
     43712 TIP3     6465     TIP3     H1       HT       0.417000       1.00800           0
     43713 TIP3     6465     TIP3     H2       HT       0.417000       1.00800           0
     43714 TIP3     6466     TIP3     OH2      OT      -0.834000       15.9994           0
     43715 TIP3     6466     TIP3     H1       HT       0.417000       1.00800           0
     43716 TIP3     6466     TIP3     H2       HT       0.417000       1.00800           0
     43717 TIP3     6467     TIP3     OH2      OT      -0.834000       15.9994           0
     43718 TIP3     6467     TIP3     H1       HT       0.417000       1.00800           0
     43719 TIP3     6467     TIP3     H2       HT       0.417000       1.00800           0
     43720 TIP3     6468     TIP3     OH2      OT      -0.834000       15.9994           0
     43721 TIP3     6468     TIP3     H1       HT       0.417000       1.00800           0
     43722 TIP3     6468     TIP3     H2       HT       0.417000       1.00800           0
     43723 TIP3     6469     TIP3     OH2      OT      -0.834000       15.9994           0
     43724 TIP3     6469     TIP3     H1       HT       0.417000       1.00800           0
     43725 TIP3     6469     TIP3     H2       HT       0.417000       1.00800           0
     43726 TIP3     6470     TIP3     OH2      OT      -0.834000       15.9994           0
     43727 TIP3     6470     TIP3     H1       HT       0.417000       1.00800           0
     43728 TIP3     6470     TIP3     H2       HT       0.417000       1.00800           0
     43729 TIP3     6471     TIP3     OH2      OT      -0.834000       15.9994           0
     43730 TIP3     6471     TIP3     H1       HT       0.417000       1.00800           0
     43731 TIP3     6471     TIP3     H2       HT       0.417000       1.00800           0
     43732 TIP3     6472     TIP3     OH2      OT      -0.834000       15.9994           0
     43733 TIP3     6472     TIP3     H1       HT       0.417000       1.00800           0
     43734 TIP3     6472     TIP3     H2       HT       0.417000       1.00800           0
     43735 TIP3     6473     TIP3     OH2      OT      -0.834000       15.9994           0
     43736 TIP3     6473     TIP3     H1       HT       0.417000       1.00800           0
     43737 TIP3     6473     TIP3     H2       HT       0.417000       1.00800           0
     43738 TIP3     6474     TIP3     OH2      OT      -0.834000       15.9994           0
     43739 TIP3     6474     TIP3     H1       HT       0.417000       1.00800           0
     43740 TIP3     6474     TIP3     H2       HT       0.417000       1.00800           0
     43741 TIP3     6475     TIP3     OH2      OT      -0.834000       15.9994           0
     43742 TIP3     6475     TIP3     H1       HT       0.417000       1.00800           0
     43743 TIP3     6475     TIP3     H2       HT       0.417000       1.00800           0
     43744 TIP3     6476     TIP3     OH2      OT      -0.834000       15.9994           0
     43745 TIP3     6476     TIP3     H1       HT       0.417000       1.00800           0
     43746 TIP3     6476     TIP3     H2       HT       0.417000       1.00800           0
     43747 TIP3     6477     TIP3     OH2      OT      -0.834000       15.9994           0
     43748 TIP3     6477     TIP3     H1       HT       0.417000       1.00800           0
     43749 TIP3     6477     TIP3     H2       HT       0.417000       1.00800           0
     43750 TIP3     6478     TIP3     OH2      OT      -0.834000       15.9994           0
     43751 TIP3     6478     TIP3     H1       HT       0.417000       1.00800           0
     43752 TIP3     6478     TIP3     H2       HT       0.417000       1.00800           0
     43753 TIP3     6479     TIP3     OH2      OT      -0.834000       15.9994           0
     43754 TIP3     6479     TIP3     H1       HT       0.417000       1.00800           0
     43755 TIP3     6479     TIP3     H2       HT       0.417000       1.00800           0
     43756 TIP3     6480     TIP3     OH2      OT      -0.834000       15.9994           0
     43757 TIP3     6480     TIP3     H1       HT       0.417000       1.00800           0
     43758 TIP3     6480     TIP3     H2       HT       0.417000       1.00800           0
     43759 TIP3     6481     TIP3     OH2      OT      -0.834000       15.9994           0
     43760 TIP3     6481     TIP3     H1       HT       0.417000       1.00800           0
     43761 TIP3     6481     TIP3     H2       HT       0.417000       1.00800           0
     43762 TIP3     6482     TIP3     OH2      OT      -0.834000       15.9994           0
     43763 TIP3     6482     TIP3     H1       HT       0.417000       1.00800           0
     43764 TIP3     6482     TIP3     H2       HT       0.417000       1.00800           0
     43765 TIP3     6483     TIP3     OH2      OT      -0.834000       15.9994           0
     43766 TIP3     6483     TIP3     H1       HT       0.417000       1.00800           0
     43767 TIP3     6483     TIP3     H2       HT       0.417000       1.00800           0
     43768 TIP3     6484     TIP3     OH2      OT      -0.834000       15.9994           0
     43769 TIP3     6484     TIP3     H1       HT       0.417000       1.00800           0
     43770 TIP3     6484     TIP3     H2       HT       0.417000       1.00800           0
     43771 TIP3     6485     TIP3     OH2      OT      -0.834000       15.9994           0
     43772 TIP3     6485     TIP3     H1       HT       0.417000       1.00800           0
     43773 TIP3     6485     TIP3     H2       HT       0.417000       1.00800           0
     43774 TIP3     6486     TIP3     OH2      OT      -0.834000       15.9994           0
     43775 TIP3     6486     TIP3     H1       HT       0.417000       1.00800           0
     43776 TIP3     6486     TIP3     H2       HT       0.417000       1.00800           0
     43777 TIP3     6487     TIP3     OH2      OT      -0.834000       15.9994           0
     43778 TIP3     6487     TIP3     H1       HT       0.417000       1.00800           0
     43779 TIP3     6487     TIP3     H2       HT       0.417000       1.00800           0
     43780 TIP3     6488     TIP3     OH2      OT      -0.834000       15.9994           0
     43781 TIP3     6488     TIP3     H1       HT       0.417000       1.00800           0
     43782 TIP3     6488     TIP3     H2       HT       0.417000       1.00800           0
     43783 TIP3     6489     TIP3     OH2      OT      -0.834000       15.9994           0
     43784 TIP3     6489     TIP3     H1       HT       0.417000       1.00800           0
     43785 TIP3     6489     TIP3     H2       HT       0.417000       1.00800           0
     43786 TIP3     6490     TIP3     OH2      OT      -0.834000       15.9994           0
     43787 TIP3     6490     TIP3     H1       HT       0.417000       1.00800           0
     43788 TIP3     6490     TIP3     H2       HT       0.417000       1.00800           0
     43789 TIP3     6491     TIP3     OH2      OT      -0.834000       15.9994           0
     43790 TIP3     6491     TIP3     H1       HT       0.417000       1.00800           0
     43791 TIP3     6491     TIP3     H2       HT       0.417000       1.00800           0
     43792 TIP3     6492     TIP3     OH2      OT      -0.834000       15.9994           0
     43793 TIP3     6492     TIP3     H1       HT       0.417000       1.00800           0
     43794 TIP3     6492     TIP3     H2       HT       0.417000       1.00800           0
     43795 TIP3     6493     TIP3     OH2      OT      -0.834000       15.9994           0
     43796 TIP3     6493     TIP3     H1       HT       0.417000       1.00800           0
     43797 TIP3     6493     TIP3     H2       HT       0.417000       1.00800           0
     43798 TIP3     6494     TIP3     OH2      OT      -0.834000       15.9994           0
     43799 TIP3     6494     TIP3     H1       HT       0.417000       1.00800           0
     43800 TIP3     6494     TIP3     H2       HT       0.417000       1.00800           0
     43801 TIP3     6495     TIP3     OH2      OT      -0.834000       15.9994           0
     43802 TIP3     6495     TIP3     H1       HT       0.417000       1.00800           0
     43803 TIP3     6495     TIP3     H2       HT       0.417000       1.00800           0
     43804 TIP3     6496     TIP3     OH2      OT      -0.834000       15.9994           0
     43805 TIP3     6496     TIP3     H1       HT       0.417000       1.00800           0
     43806 TIP3     6496     TIP3     H2       HT       0.417000       1.00800           0
     43807 TIP3     6497     TIP3     OH2      OT      -0.834000       15.9994           0
     43808 TIP3     6497     TIP3     H1       HT       0.417000       1.00800           0
     43809 TIP3     6497     TIP3     H2       HT       0.417000       1.00800           0
     43810 TIP3     6498     TIP3     OH2      OT      -0.834000       15.9994           0
     43811 TIP3     6498     TIP3     H1       HT       0.417000       1.00800           0
     43812 TIP3     6498     TIP3     H2       HT       0.417000       1.00800           0
     43813 TIP3     6499     TIP3     OH2      OT      -0.834000       15.9994           0
     43814 TIP3     6499     TIP3     H1       HT       0.417000       1.00800           0
     43815 TIP3     6499     TIP3     H2       HT       0.417000       1.00800           0
     43816 TIP3     6500     TIP3     OH2      OT      -0.834000       15.9994           0
     43817 TIP3     6500     TIP3     H1       HT       0.417000       1.00800           0
     43818 TIP3     6500     TIP3     H2       HT       0.417000       1.00800           0
     43819 TIP3     6501     TIP3     OH2      OT      -0.834000       15.9994           0
     43820 TIP3     6501     TIP3     H1       HT       0.417000       1.00800           0
     43821 TIP3     6501     TIP3     H2       HT       0.417000       1.00800           0
     43822 TIP3     6502     TIP3     OH2      OT      -0.834000       15.9994           0
     43823 TIP3     6502     TIP3     H1       HT       0.417000       1.00800           0
     43824 TIP3     6502     TIP3     H2       HT       0.417000       1.00800           0
     43825 TIP3     6503     TIP3     OH2      OT      -0.834000       15.9994           0
     43826 TIP3     6503     TIP3     H1       HT       0.417000       1.00800           0
     43827 TIP3     6503     TIP3     H2       HT       0.417000       1.00800           0
     43828 TIP3     6504     TIP3     OH2      OT      -0.834000       15.9994           0
     43829 TIP3     6504     TIP3     H1       HT       0.417000       1.00800           0
     43830 TIP3     6504     TIP3     H2       HT       0.417000       1.00800           0
     43831 TIP3     6505     TIP3     OH2      OT      -0.834000       15.9994           0
     43832 TIP3     6505     TIP3     H1       HT       0.417000       1.00800           0
     43833 TIP3     6505     TIP3     H2       HT       0.417000       1.00800           0
     43834 TIP3     6506     TIP3     OH2      OT      -0.834000       15.9994           0
     43835 TIP3     6506     TIP3     H1       HT       0.417000       1.00800           0
     43836 TIP3     6506     TIP3     H2       HT       0.417000       1.00800           0
     43837 TIP3     6507     TIP3     OH2      OT      -0.834000       15.9994           0
     43838 TIP3     6507     TIP3     H1       HT       0.417000       1.00800           0
     43839 TIP3     6507     TIP3     H2       HT       0.417000       1.00800           0
     43840 TIP3     6508     TIP3     OH2      OT      -0.834000       15.9994           0
     43841 TIP3     6508     TIP3     H1       HT       0.417000       1.00800           0
     43842 TIP3     6508     TIP3     H2       HT       0.417000       1.00800           0
     43843 TIP3     6509     TIP3     OH2      OT      -0.834000       15.9994           0
     43844 TIP3     6509     TIP3     H1       HT       0.417000       1.00800           0
     43845 TIP3     6509     TIP3     H2       HT       0.417000       1.00800           0
     43846 TIP3     6510     TIP3     OH2      OT      -0.834000       15.9994           0
     43847 TIP3     6510     TIP3     H1       HT       0.417000       1.00800           0
     43848 TIP3     6510     TIP3     H2       HT       0.417000       1.00800           0
     43849 TIP3     6511     TIP3     OH2      OT      -0.834000       15.9994           0
     43850 TIP3     6511     TIP3     H1       HT       0.417000       1.00800           0
     43851 TIP3     6511     TIP3     H2       HT       0.417000       1.00800           0
     43852 TIP3     6512     TIP3     OH2      OT      -0.834000       15.9994           0
     43853 TIP3     6512     TIP3     H1       HT       0.417000       1.00800           0
     43854 TIP3     6512     TIP3     H2       HT       0.417000       1.00800           0
     43855 TIP3     6513     TIP3     OH2      OT      -0.834000       15.9994           0
     43856 TIP3     6513     TIP3     H1       HT       0.417000       1.00800           0
     43857 TIP3     6513     TIP3     H2       HT       0.417000       1.00800           0
     43858 TIP3     6514     TIP3     OH2      OT      -0.834000       15.9994           0
     43859 TIP3     6514     TIP3     H1       HT       0.417000       1.00800           0
     43860 TIP3     6514     TIP3     H2       HT       0.417000       1.00800           0
     43861 TIP3     6515     TIP3     OH2      OT      -0.834000       15.9994           0
     43862 TIP3     6515     TIP3     H1       HT       0.417000       1.00800           0
     43863 TIP3     6515     TIP3     H2       HT       0.417000       1.00800           0
     43864 TIP3     6516     TIP3     OH2      OT      -0.834000       15.9994           0
     43865 TIP3     6516     TIP3     H1       HT       0.417000       1.00800           0
     43866 TIP3     6516     TIP3     H2       HT       0.417000       1.00800           0
     43867 TIP3     6517     TIP3     OH2      OT      -0.834000       15.9994           0
     43868 TIP3     6517     TIP3     H1       HT       0.417000       1.00800           0
     43869 TIP3     6517     TIP3     H2       HT       0.417000       1.00800           0
     43870 TIP3     6518     TIP3     OH2      OT      -0.834000       15.9994           0
     43871 TIP3     6518     TIP3     H1       HT       0.417000       1.00800           0
     43872 TIP3     6518     TIP3     H2       HT       0.417000       1.00800           0
     43873 TIP3     6519     TIP3     OH2      OT      -0.834000       15.9994           0
     43874 TIP3     6519     TIP3     H1       HT       0.417000       1.00800           0
     43875 TIP3     6519     TIP3     H2       HT       0.417000       1.00800           0
     43876 TIP3     6520     TIP3     OH2      OT      -0.834000       15.9994           0
     43877 TIP3     6520     TIP3     H1       HT       0.417000       1.00800           0
     43878 TIP3     6520     TIP3     H2       HT       0.417000       1.00800           0
     43879 TIP3     6521     TIP3     OH2      OT      -0.834000       15.9994           0
     43880 TIP3     6521     TIP3     H1       HT       0.417000       1.00800           0
     43881 TIP3     6521     TIP3     H2       HT       0.417000       1.00800           0
     43882 TIP3     6522     TIP3     OH2      OT      -0.834000       15.9994           0
     43883 TIP3     6522     TIP3     H1       HT       0.417000       1.00800           0
     43884 TIP3     6522     TIP3     H2       HT       0.417000       1.00800           0
     43885 TIP3     6523     TIP3     OH2      OT      -0.834000       15.9994           0
     43886 TIP3     6523     TIP3     H1       HT       0.417000       1.00800           0
     43887 TIP3     6523     TIP3     H2       HT       0.417000       1.00800           0
     43888 TIP3     6524     TIP3     OH2      OT      -0.834000       15.9994           0
     43889 TIP3     6524     TIP3     H1       HT       0.417000       1.00800           0
     43890 TIP3     6524     TIP3     H2       HT       0.417000       1.00800           0
     43891 TIP3     6525     TIP3     OH2      OT      -0.834000       15.9994           0
     43892 TIP3     6525     TIP3     H1       HT       0.417000       1.00800           0
     43893 TIP3     6525     TIP3     H2       HT       0.417000       1.00800           0
     43894 TIP3     6526     TIP3     OH2      OT      -0.834000       15.9994           0
     43895 TIP3     6526     TIP3     H1       HT       0.417000       1.00800           0
     43896 TIP3     6526     TIP3     H2       HT       0.417000       1.00800           0
     43897 TIP3     6527     TIP3     OH2      OT      -0.834000       15.9994           0
     43898 TIP3     6527     TIP3     H1       HT       0.417000       1.00800           0
     43899 TIP3     6527     TIP3     H2       HT       0.417000       1.00800           0
     43900 TIP3     6528     TIP3     OH2      OT      -0.834000       15.9994           0
     43901 TIP3     6528     TIP3     H1       HT       0.417000       1.00800           0
     43902 TIP3     6528     TIP3     H2       HT       0.417000       1.00800           0
     43903 TIP3     6529     TIP3     OH2      OT      -0.834000       15.9994           0
     43904 TIP3     6529     TIP3     H1       HT       0.417000       1.00800           0
     43905 TIP3     6529     TIP3     H2       HT       0.417000       1.00800           0
     43906 TIP3     6530     TIP3     OH2      OT      -0.834000       15.9994           0
     43907 TIP3     6530     TIP3     H1       HT       0.417000       1.00800           0
     43908 TIP3     6530     TIP3     H2       HT       0.417000       1.00800           0
     43909 TIP3     6531     TIP3     OH2      OT      -0.834000       15.9994           0
     43910 TIP3     6531     TIP3     H1       HT       0.417000       1.00800           0
     43911 TIP3     6531     TIP3     H2       HT       0.417000       1.00800           0
     43912 TIP3     6532     TIP3     OH2      OT      -0.834000       15.9994           0
     43913 TIP3     6532     TIP3     H1       HT       0.417000       1.00800           0
     43914 TIP3     6532     TIP3     H2       HT       0.417000       1.00800           0
     43915 TIP3     6533     TIP3     OH2      OT      -0.834000       15.9994           0
     43916 TIP3     6533     TIP3     H1       HT       0.417000       1.00800           0
     43917 TIP3     6533     TIP3     H2       HT       0.417000       1.00800           0
     43918 TIP3     6534     TIP3     OH2      OT      -0.834000       15.9994           0
     43919 TIP3     6534     TIP3     H1       HT       0.417000       1.00800           0
     43920 TIP3     6534     TIP3     H2       HT       0.417000       1.00800           0
     43921 TIP3     6535     TIP3     OH2      OT      -0.834000       15.9994           0
     43922 TIP3     6535     TIP3     H1       HT       0.417000       1.00800           0
     43923 TIP3     6535     TIP3     H2       HT       0.417000       1.00800           0
     43924 TIP3     6536     TIP3     OH2      OT      -0.834000       15.9994           0
     43925 TIP3     6536     TIP3     H1       HT       0.417000       1.00800           0
     43926 TIP3     6536     TIP3     H2       HT       0.417000       1.00800           0
     43927 TIP3     6537     TIP3     OH2      OT      -0.834000       15.9994           0
     43928 TIP3     6537     TIP3     H1       HT       0.417000       1.00800           0
     43929 TIP3     6537     TIP3     H2       HT       0.417000       1.00800           0
     43930 TIP3     6538     TIP3     OH2      OT      -0.834000       15.9994           0
     43931 TIP3     6538     TIP3     H1       HT       0.417000       1.00800           0
     43932 TIP3     6538     TIP3     H2       HT       0.417000       1.00800           0
     43933 TIP3     6539     TIP3     OH2      OT      -0.834000       15.9994           0
     43934 TIP3     6539     TIP3     H1       HT       0.417000       1.00800           0
     43935 TIP3     6539     TIP3     H2       HT       0.417000       1.00800           0
     43936 TIP3     6540     TIP3     OH2      OT      -0.834000       15.9994           0
     43937 TIP3     6540     TIP3     H1       HT       0.417000       1.00800           0
     43938 TIP3     6540     TIP3     H2       HT       0.417000       1.00800           0
     43939 TIP3     6541     TIP3     OH2      OT      -0.834000       15.9994           0
     43940 TIP3     6541     TIP3     H1       HT       0.417000       1.00800           0
     43941 TIP3     6541     TIP3     H2       HT       0.417000       1.00800           0
     43942 TIP3     6542     TIP3     OH2      OT      -0.834000       15.9994           0
     43943 TIP3     6542     TIP3     H1       HT       0.417000       1.00800           0
     43944 TIP3     6542     TIP3     H2       HT       0.417000       1.00800           0
     43945 TIP3     6543     TIP3     OH2      OT      -0.834000       15.9994           0
     43946 TIP3     6543     TIP3     H1       HT       0.417000       1.00800           0
     43947 TIP3     6543     TIP3     H2       HT       0.417000       1.00800           0
     43948 TIP3     6544     TIP3     OH2      OT      -0.834000       15.9994           0
     43949 TIP3     6544     TIP3     H1       HT       0.417000       1.00800           0
     43950 TIP3     6544     TIP3     H2       HT       0.417000       1.00800           0
     43951 TIP3     6545     TIP3     OH2      OT      -0.834000       15.9994           0
     43952 TIP3     6545     TIP3     H1       HT       0.417000       1.00800           0
     43953 TIP3     6545     TIP3     H2       HT       0.417000       1.00800           0
     43954 TIP3     6546     TIP3     OH2      OT      -0.834000       15.9994           0
     43955 TIP3     6546     TIP3     H1       HT       0.417000       1.00800           0
     43956 TIP3     6546     TIP3     H2       HT       0.417000       1.00800           0
     43957 TIP3     6547     TIP3     OH2      OT      -0.834000       15.9994           0
     43958 TIP3     6547     TIP3     H1       HT       0.417000       1.00800           0
     43959 TIP3     6547     TIP3     H2       HT       0.417000       1.00800           0
     43960 TIP3     6548     TIP3     OH2      OT      -0.834000       15.9994           0
     43961 TIP3     6548     TIP3     H1       HT       0.417000       1.00800           0
     43962 TIP3     6548     TIP3     H2       HT       0.417000       1.00800           0
     43963 TIP3     6549     TIP3     OH2      OT      -0.834000       15.9994           0
     43964 TIP3     6549     TIP3     H1       HT       0.417000       1.00800           0
     43965 TIP3     6549     TIP3     H2       HT       0.417000       1.00800           0
     43966 TIP3     6550     TIP3     OH2      OT      -0.834000       15.9994           0
     43967 TIP3     6550     TIP3     H1       HT       0.417000       1.00800           0
     43968 TIP3     6550     TIP3     H2       HT       0.417000       1.00800           0
     43969 TIP3     6551     TIP3     OH2      OT      -0.834000       15.9994           0
     43970 TIP3     6551     TIP3     H1       HT       0.417000       1.00800           0
     43971 TIP3     6551     TIP3     H2       HT       0.417000       1.00800           0
     43972 TIP3     6552     TIP3     OH2      OT      -0.834000       15.9994           0
     43973 TIP3     6552     TIP3     H1       HT       0.417000       1.00800           0
     43974 TIP3     6552     TIP3     H2       HT       0.417000       1.00800           0
     43975 TIP3     6553     TIP3     OH2      OT      -0.834000       15.9994           0
     43976 TIP3     6553     TIP3     H1       HT       0.417000       1.00800           0
     43977 TIP3     6553     TIP3     H2       HT       0.417000       1.00800           0
     43978 TIP3     6554     TIP3     OH2      OT      -0.834000       15.9994           0
     43979 TIP3     6554     TIP3     H1       HT       0.417000       1.00800           0
     43980 TIP3     6554     TIP3     H2       HT       0.417000       1.00800           0
     43981 TIP3     6555     TIP3     OH2      OT      -0.834000       15.9994           0
     43982 TIP3     6555     TIP3     H1       HT       0.417000       1.00800           0
     43983 TIP3     6555     TIP3     H2       HT       0.417000       1.00800           0
     43984 TIP3     6556     TIP3     OH2      OT      -0.834000       15.9994           0
     43985 TIP3     6556     TIP3     H1       HT       0.417000       1.00800           0
     43986 TIP3     6556     TIP3     H2       HT       0.417000       1.00800           0
     43987 TIP3     6557     TIP3     OH2      OT      -0.834000       15.9994           0
     43988 TIP3     6557     TIP3     H1       HT       0.417000       1.00800           0
     43989 TIP3     6557     TIP3     H2       HT       0.417000       1.00800           0
     43990 TIP3     6558     TIP3     OH2      OT      -0.834000       15.9994           0
     43991 TIP3     6558     TIP3     H1       HT       0.417000       1.00800           0
     43992 TIP3     6558     TIP3     H2       HT       0.417000       1.00800           0
     43993 TIP3     6559     TIP3     OH2      OT      -0.834000       15.9994           0
     43994 TIP3     6559     TIP3     H1       HT       0.417000       1.00800           0
     43995 TIP3     6559     TIP3     H2       HT       0.417000       1.00800           0
     43996 TIP3     6560     TIP3     OH2      OT      -0.834000       15.9994           0
     43997 TIP3     6560     TIP3     H1       HT       0.417000       1.00800           0
     43998 TIP3     6560     TIP3     H2       HT       0.417000       1.00800           0
     43999 TIP3     6561     TIP3     OH2      OT      -0.834000       15.9994           0
     44000 TIP3     6561     TIP3     H1       HT       0.417000       1.00800           0
     44001 TIP3     6561     TIP3     H2       HT       0.417000       1.00800           0
     44002 TIP3     6562     TIP3     OH2      OT      -0.834000       15.9994           0
     44003 TIP3     6562     TIP3     H1       HT       0.417000       1.00800           0
     44004 TIP3     6562     TIP3     H2       HT       0.417000       1.00800           0
     44005 TIP3     6563     TIP3     OH2      OT      -0.834000       15.9994           0
     44006 TIP3     6563     TIP3     H1       HT       0.417000       1.00800           0
     44007 TIP3     6563     TIP3     H2       HT       0.417000       1.00800           0
     44008 TIP3     6564     TIP3     OH2      OT      -0.834000       15.9994           0
     44009 TIP3     6564     TIP3     H1       HT       0.417000       1.00800           0
     44010 TIP3     6564     TIP3     H2       HT       0.417000       1.00800           0
     44011 TIP3     6565     TIP3     OH2      OT      -0.834000       15.9994           0
     44012 TIP3     6565     TIP3     H1       HT       0.417000       1.00800           0
     44013 TIP3     6565     TIP3     H2       HT       0.417000       1.00800           0
     44014 TIP3     6566     TIP3     OH2      OT      -0.834000       15.9994           0
     44015 TIP3     6566     TIP3     H1       HT       0.417000       1.00800           0
     44016 TIP3     6566     TIP3     H2       HT       0.417000       1.00800           0
     44017 TIP3     6567     TIP3     OH2      OT      -0.834000       15.9994           0
     44018 TIP3     6567     TIP3     H1       HT       0.417000       1.00800           0
     44019 TIP3     6567     TIP3     H2       HT       0.417000       1.00800           0
     44020 TIP3     6568     TIP3     OH2      OT      -0.834000       15.9994           0
     44021 TIP3     6568     TIP3     H1       HT       0.417000       1.00800           0
     44022 TIP3     6568     TIP3     H2       HT       0.417000       1.00800           0
     44023 TIP3     6569     TIP3     OH2      OT      -0.834000       15.9994           0
     44024 TIP3     6569     TIP3     H1       HT       0.417000       1.00800           0
     44025 TIP3     6569     TIP3     H2       HT       0.417000       1.00800           0
     44026 TIP3     6570     TIP3     OH2      OT      -0.834000       15.9994           0
     44027 TIP3     6570     TIP3     H1       HT       0.417000       1.00800           0
     44028 TIP3     6570     TIP3     H2       HT       0.417000       1.00800           0
     44029 TIP3     6571     TIP3     OH2      OT      -0.834000       15.9994           0
     44030 TIP3     6571     TIP3     H1       HT       0.417000       1.00800           0
     44031 TIP3     6571     TIP3     H2       HT       0.417000       1.00800           0
     44032 TIP3     6572     TIP3     OH2      OT      -0.834000       15.9994           0
     44033 TIP3     6572     TIP3     H1       HT       0.417000       1.00800           0
     44034 TIP3     6572     TIP3     H2       HT       0.417000       1.00800           0
     44035 TIP3     6573     TIP3     OH2      OT      -0.834000       15.9994           0
     44036 TIP3     6573     TIP3     H1       HT       0.417000       1.00800           0
     44037 TIP3     6573     TIP3     H2       HT       0.417000       1.00800           0
     44038 TIP3     6574     TIP3     OH2      OT      -0.834000       15.9994           0
     44039 TIP3     6574     TIP3     H1       HT       0.417000       1.00800           0
     44040 TIP3     6574     TIP3     H2       HT       0.417000       1.00800           0
     44041 TIP3     6575     TIP3     OH2      OT      -0.834000       15.9994           0
     44042 TIP3     6575     TIP3     H1       HT       0.417000       1.00800           0
     44043 TIP3     6575     TIP3     H2       HT       0.417000       1.00800           0
     44044 TIP3     6576     TIP3     OH2      OT      -0.834000       15.9994           0
     44045 TIP3     6576     TIP3     H1       HT       0.417000       1.00800           0
     44046 TIP3     6576     TIP3     H2       HT       0.417000       1.00800           0
     44047 TIP3     6577     TIP3     OH2      OT      -0.834000       15.9994           0
     44048 TIP3     6577     TIP3     H1       HT       0.417000       1.00800           0
     44049 TIP3     6577     TIP3     H2       HT       0.417000       1.00800           0
     44050 TIP3     6578     TIP3     OH2      OT      -0.834000       15.9994           0
     44051 TIP3     6578     TIP3     H1       HT       0.417000       1.00800           0
     44052 TIP3     6578     TIP3     H2       HT       0.417000       1.00800           0
     44053 TIP3     6579     TIP3     OH2      OT      -0.834000       15.9994           0
     44054 TIP3     6579     TIP3     H1       HT       0.417000       1.00800           0
     44055 TIP3     6579     TIP3     H2       HT       0.417000       1.00800           0
     44056 TIP3     6580     TIP3     OH2      OT      -0.834000       15.9994           0
     44057 TIP3     6580     TIP3     H1       HT       0.417000       1.00800           0
     44058 TIP3     6580     TIP3     H2       HT       0.417000       1.00800           0
     44059 TIP3     6581     TIP3     OH2      OT      -0.834000       15.9994           0
     44060 TIP3     6581     TIP3     H1       HT       0.417000       1.00800           0
     44061 TIP3     6581     TIP3     H2       HT       0.417000       1.00800           0
     44062 TIP3     6582     TIP3     OH2      OT      -0.834000       15.9994           0
     44063 TIP3     6582     TIP3     H1       HT       0.417000       1.00800           0
     44064 TIP3     6582     TIP3     H2       HT       0.417000       1.00800           0
     44065 TIP3     6583     TIP3     OH2      OT      -0.834000       15.9994           0
     44066 TIP3     6583     TIP3     H1       HT       0.417000       1.00800           0
     44067 TIP3     6583     TIP3     H2       HT       0.417000       1.00800           0
     44068 TIP3     6584     TIP3     OH2      OT      -0.834000       15.9994           0
     44069 TIP3     6584     TIP3     H1       HT       0.417000       1.00800           0
     44070 TIP3     6584     TIP3     H2       HT       0.417000       1.00800           0
     44071 TIP3     6585     TIP3     OH2      OT      -0.834000       15.9994           0
     44072 TIP3     6585     TIP3     H1       HT       0.417000       1.00800           0
     44073 TIP3     6585     TIP3     H2       HT       0.417000       1.00800           0
     44074 TIP3     6586     TIP3     OH2      OT      -0.834000       15.9994           0
     44075 TIP3     6586     TIP3     H1       HT       0.417000       1.00800           0
     44076 TIP3     6586     TIP3     H2       HT       0.417000       1.00800           0
     44077 TIP3     6587     TIP3     OH2      OT      -0.834000       15.9994           0
     44078 TIP3     6587     TIP3     H1       HT       0.417000       1.00800           0
     44079 TIP3     6587     TIP3     H2       HT       0.417000       1.00800           0
     44080 TIP3     6588     TIP3     OH2      OT      -0.834000       15.9994           0
     44081 TIP3     6588     TIP3     H1       HT       0.417000       1.00800           0
     44082 TIP3     6588     TIP3     H2       HT       0.417000       1.00800           0
     44083 TIP3     6589     TIP3     OH2      OT      -0.834000       15.9994           0
     44084 TIP3     6589     TIP3     H1       HT       0.417000       1.00800           0
     44085 TIP3     6589     TIP3     H2       HT       0.417000       1.00800           0
     44086 TIP3     6590     TIP3     OH2      OT      -0.834000       15.9994           0
     44087 TIP3     6590     TIP3     H1       HT       0.417000       1.00800           0
     44088 TIP3     6590     TIP3     H2       HT       0.417000       1.00800           0
     44089 TIP3     6591     TIP3     OH2      OT      -0.834000       15.9994           0
     44090 TIP3     6591     TIP3     H1       HT       0.417000       1.00800           0
     44091 TIP3     6591     TIP3     H2       HT       0.417000       1.00800           0
     44092 TIP3     6592     TIP3     OH2      OT      -0.834000       15.9994           0
     44093 TIP3     6592     TIP3     H1       HT       0.417000       1.00800           0
     44094 TIP3     6592     TIP3     H2       HT       0.417000       1.00800           0
     44095 TIP3     6593     TIP3     OH2      OT      -0.834000       15.9994           0
     44096 TIP3     6593     TIP3     H1       HT       0.417000       1.00800           0
     44097 TIP3     6593     TIP3     H2       HT       0.417000       1.00800           0
     44098 TIP3     6594     TIP3     OH2      OT      -0.834000       15.9994           0
     44099 TIP3     6594     TIP3     H1       HT       0.417000       1.00800           0
     44100 TIP3     6594     TIP3     H2       HT       0.417000       1.00800           0
     44101 TIP3     6595     TIP3     OH2      OT      -0.834000       15.9994           0
     44102 TIP3     6595     TIP3     H1       HT       0.417000       1.00800           0
     44103 TIP3     6595     TIP3     H2       HT       0.417000       1.00800           0
     44104 TIP3     6596     TIP3     OH2      OT      -0.834000       15.9994           0
     44105 TIP3     6596     TIP3     H1       HT       0.417000       1.00800           0
     44106 TIP3     6596     TIP3     H2       HT       0.417000       1.00800           0
     44107 TIP3     6597     TIP3     OH2      OT      -0.834000       15.9994           0
     44108 TIP3     6597     TIP3     H1       HT       0.417000       1.00800           0
     44109 TIP3     6597     TIP3     H2       HT       0.417000       1.00800           0
     44110 TIP3     6598     TIP3     OH2      OT      -0.834000       15.9994           0
     44111 TIP3     6598     TIP3     H1       HT       0.417000       1.00800           0
     44112 TIP3     6598     TIP3     H2       HT       0.417000       1.00800           0
     44113 TIP3     6599     TIP3     OH2      OT      -0.834000       15.9994           0
     44114 TIP3     6599     TIP3     H1       HT       0.417000       1.00800           0
     44115 TIP3     6599     TIP3     H2       HT       0.417000       1.00800           0
     44116 TIP3     6600     TIP3     OH2      OT      -0.834000       15.9994           0
     44117 TIP3     6600     TIP3     H1       HT       0.417000       1.00800           0
     44118 TIP3     6600     TIP3     H2       HT       0.417000       1.00800           0
     44119 TIP3     6601     TIP3     OH2      OT      -0.834000       15.9994           0
     44120 TIP3     6601     TIP3     H1       HT       0.417000       1.00800           0
     44121 TIP3     6601     TIP3     H2       HT       0.417000       1.00800           0
     44122 TIP3     6602     TIP3     OH2      OT      -0.834000       15.9994           0
     44123 TIP3     6602     TIP3     H1       HT       0.417000       1.00800           0
     44124 TIP3     6602     TIP3     H2       HT       0.417000       1.00800           0
     44125 TIP3     6603     TIP3     OH2      OT      -0.834000       15.9994           0
     44126 TIP3     6603     TIP3     H1       HT       0.417000       1.00800           0
     44127 TIP3     6603     TIP3     H2       HT       0.417000       1.00800           0
     44128 TIP3     6604     TIP3     OH2      OT      -0.834000       15.9994           0
     44129 TIP3     6604     TIP3     H1       HT       0.417000       1.00800           0
     44130 TIP3     6604     TIP3     H2       HT       0.417000       1.00800           0
     44131 TIP3     6605     TIP3     OH2      OT      -0.834000       15.9994           0
     44132 TIP3     6605     TIP3     H1       HT       0.417000       1.00800           0
     44133 TIP3     6605     TIP3     H2       HT       0.417000       1.00800           0
     44134 TIP3     6606     TIP3     OH2      OT      -0.834000       15.9994           0
     44135 TIP3     6606     TIP3     H1       HT       0.417000       1.00800           0
     44136 TIP3     6606     TIP3     H2       HT       0.417000       1.00800           0
     44137 TIP3     6607     TIP3     OH2      OT      -0.834000       15.9994           0
     44138 TIP3     6607     TIP3     H1       HT       0.417000       1.00800           0
     44139 TIP3     6607     TIP3     H2       HT       0.417000       1.00800           0
     44140 TIP3     6608     TIP3     OH2      OT      -0.834000       15.9994           0
     44141 TIP3     6608     TIP3     H1       HT       0.417000       1.00800           0
     44142 TIP3     6608     TIP3     H2       HT       0.417000       1.00800           0
     44143 TIP3     6609     TIP3     OH2      OT      -0.834000       15.9994           0
     44144 TIP3     6609     TIP3     H1       HT       0.417000       1.00800           0
     44145 TIP3     6609     TIP3     H2       HT       0.417000       1.00800           0
     44146 TIP3     6610     TIP3     OH2      OT      -0.834000       15.9994           0
     44147 TIP3     6610     TIP3     H1       HT       0.417000       1.00800           0
     44148 TIP3     6610     TIP3     H2       HT       0.417000       1.00800           0
     44149 TIP3     6611     TIP3     OH2      OT      -0.834000       15.9994           0
     44150 TIP3     6611     TIP3     H1       HT       0.417000       1.00800           0
     44151 TIP3     6611     TIP3     H2       HT       0.417000       1.00800           0
     44152 TIP3     6612     TIP3     OH2      OT      -0.834000       15.9994           0
     44153 TIP3     6612     TIP3     H1       HT       0.417000       1.00800           0
     44154 TIP3     6612     TIP3     H2       HT       0.417000       1.00800           0
     44155 TIP3     6613     TIP3     OH2      OT      -0.834000       15.9994           0
     44156 TIP3     6613     TIP3     H1       HT       0.417000       1.00800           0
     44157 TIP3     6613     TIP3     H2       HT       0.417000       1.00800           0
     44158 TIP3     6614     TIP3     OH2      OT      -0.834000       15.9994           0
     44159 TIP3     6614     TIP3     H1       HT       0.417000       1.00800           0
     44160 TIP3     6614     TIP3     H2       HT       0.417000       1.00800           0
     44161 TIP3     6615     TIP3     OH2      OT      -0.834000       15.9994           0
     44162 TIP3     6615     TIP3     H1       HT       0.417000       1.00800           0
     44163 TIP3     6615     TIP3     H2       HT       0.417000       1.00800           0
     44164 TIP3     6616     TIP3     OH2      OT      -0.834000       15.9994           0
     44165 TIP3     6616     TIP3     H1       HT       0.417000       1.00800           0
     44166 TIP3     6616     TIP3     H2       HT       0.417000       1.00800           0
     44167 TIP3     6617     TIP3     OH2      OT      -0.834000       15.9994           0
     44168 TIP3     6617     TIP3     H1       HT       0.417000       1.00800           0
     44169 TIP3     6617     TIP3     H2       HT       0.417000       1.00800           0
     44170 TIP3     6618     TIP3     OH2      OT      -0.834000       15.9994           0
     44171 TIP3     6618     TIP3     H1       HT       0.417000       1.00800           0
     44172 TIP3     6618     TIP3     H2       HT       0.417000       1.00800           0
     44173 TIP3     6619     TIP3     OH2      OT      -0.834000       15.9994           0
     44174 TIP3     6619     TIP3     H1       HT       0.417000       1.00800           0
     44175 TIP3     6619     TIP3     H2       HT       0.417000       1.00800           0
     44176 TIP3     6620     TIP3     OH2      OT      -0.834000       15.9994           0
     44177 TIP3     6620     TIP3     H1       HT       0.417000       1.00800           0
     44178 TIP3     6620     TIP3     H2       HT       0.417000       1.00800           0
     44179 TIP3     6621     TIP3     OH2      OT      -0.834000       15.9994           0
     44180 TIP3     6621     TIP3     H1       HT       0.417000       1.00800           0
     44181 TIP3     6621     TIP3     H2       HT       0.417000       1.00800           0
     44182 TIP3     6622     TIP3     OH2      OT      -0.834000       15.9994           0
     44183 TIP3     6622     TIP3     H1       HT       0.417000       1.00800           0
     44184 TIP3     6622     TIP3     H2       HT       0.417000       1.00800           0
     44185 TIP3     6623     TIP3     OH2      OT      -0.834000       15.9994           0
     44186 TIP3     6623     TIP3     H1       HT       0.417000       1.00800           0
     44187 TIP3     6623     TIP3     H2       HT       0.417000       1.00800           0
     44188 TIP3     6624     TIP3     OH2      OT      -0.834000       15.9994           0
     44189 TIP3     6624     TIP3     H1       HT       0.417000       1.00800           0
     44190 TIP3     6624     TIP3     H2       HT       0.417000       1.00800           0
     44191 TIP3     6625     TIP3     OH2      OT      -0.834000       15.9994           0
     44192 TIP3     6625     TIP3     H1       HT       0.417000       1.00800           0
     44193 TIP3     6625     TIP3     H2       HT       0.417000       1.00800           0
     44194 TIP3     6626     TIP3     OH2      OT      -0.834000       15.9994           0
     44195 TIP3     6626     TIP3     H1       HT       0.417000       1.00800           0
     44196 TIP3     6626     TIP3     H2       HT       0.417000       1.00800           0
     44197 TIP3     6627     TIP3     OH2      OT      -0.834000       15.9994           0
     44198 TIP3     6627     TIP3     H1       HT       0.417000       1.00800           0
     44199 TIP3     6627     TIP3     H2       HT       0.417000       1.00800           0
     44200 TIP3     6628     TIP3     OH2      OT      -0.834000       15.9994           0
     44201 TIP3     6628     TIP3     H1       HT       0.417000       1.00800           0
     44202 TIP3     6628     TIP3     H2       HT       0.417000       1.00800           0
     44203 TIP3     6629     TIP3     OH2      OT      -0.834000       15.9994           0
     44204 TIP3     6629     TIP3     H1       HT       0.417000       1.00800           0
     44205 TIP3     6629     TIP3     H2       HT       0.417000       1.00800           0
     44206 TIP3     6630     TIP3     OH2      OT      -0.834000       15.9994           0
     44207 TIP3     6630     TIP3     H1       HT       0.417000       1.00800           0
     44208 TIP3     6630     TIP3     H2       HT       0.417000       1.00800           0
     44209 TIP3     6631     TIP3     OH2      OT      -0.834000       15.9994           0
     44210 TIP3     6631     TIP3     H1       HT       0.417000       1.00800           0
     44211 TIP3     6631     TIP3     H2       HT       0.417000       1.00800           0
     44212 TIP3     6632     TIP3     OH2      OT      -0.834000       15.9994           0
     44213 TIP3     6632     TIP3     H1       HT       0.417000       1.00800           0
     44214 TIP3     6632     TIP3     H2       HT       0.417000       1.00800           0
     44215 TIP3     6633     TIP3     OH2      OT      -0.834000       15.9994           0
     44216 TIP3     6633     TIP3     H1       HT       0.417000       1.00800           0
     44217 TIP3     6633     TIP3     H2       HT       0.417000       1.00800           0
     44218 TIP3     6634     TIP3     OH2      OT      -0.834000       15.9994           0
     44219 TIP3     6634     TIP3     H1       HT       0.417000       1.00800           0
     44220 TIP3     6634     TIP3     H2       HT       0.417000       1.00800           0
     44221 TIP3     6635     TIP3     OH2      OT      -0.834000       15.9994           0
     44222 TIP3     6635     TIP3     H1       HT       0.417000       1.00800           0
     44223 TIP3     6635     TIP3     H2       HT       0.417000       1.00800           0
     44224 TIP3     6636     TIP3     OH2      OT      -0.834000       15.9994           0
     44225 TIP3     6636     TIP3     H1       HT       0.417000       1.00800           0
     44226 TIP3     6636     TIP3     H2       HT       0.417000       1.00800           0
     44227 TIP3     6637     TIP3     OH2      OT      -0.834000       15.9994           0
     44228 TIP3     6637     TIP3     H1       HT       0.417000       1.00800           0
     44229 TIP3     6637     TIP3     H2       HT       0.417000       1.00800           0
     44230 TIP3     6638     TIP3     OH2      OT      -0.834000       15.9994           0
     44231 TIP3     6638     TIP3     H1       HT       0.417000       1.00800           0
     44232 TIP3     6638     TIP3     H2       HT       0.417000       1.00800           0
     44233 TIP3     6639     TIP3     OH2      OT      -0.834000       15.9994           0
     44234 TIP3     6639     TIP3     H1       HT       0.417000       1.00800           0
     44235 TIP3     6639     TIP3     H2       HT       0.417000       1.00800           0
     44236 TIP3     6640     TIP3     OH2      OT      -0.834000       15.9994           0
     44237 TIP3     6640     TIP3     H1       HT       0.417000       1.00800           0
     44238 TIP3     6640     TIP3     H2       HT       0.417000       1.00800           0
     44239 TIP3     6641     TIP3     OH2      OT      -0.834000       15.9994           0
     44240 TIP3     6641     TIP3     H1       HT       0.417000       1.00800           0
     44241 TIP3     6641     TIP3     H2       HT       0.417000       1.00800           0
     44242 TIP3     6642     TIP3     OH2      OT      -0.834000       15.9994           0
     44243 TIP3     6642     TIP3     H1       HT       0.417000       1.00800           0
     44244 TIP3     6642     TIP3     H2       HT       0.417000       1.00800           0
     44245 TIP3     6643     TIP3     OH2      OT      -0.834000       15.9994           0
     44246 TIP3     6643     TIP3     H1       HT       0.417000       1.00800           0
     44247 TIP3     6643     TIP3     H2       HT       0.417000       1.00800           0
     44248 TIP3     6644     TIP3     OH2      OT      -0.834000       15.9994           0
     44249 TIP3     6644     TIP3     H1       HT       0.417000       1.00800           0
     44250 TIP3     6644     TIP3     H2       HT       0.417000       1.00800           0
     44251 TIP3     6645     TIP3     OH2      OT      -0.834000       15.9994           0
     44252 TIP3     6645     TIP3     H1       HT       0.417000       1.00800           0
     44253 TIP3     6645     TIP3     H2       HT       0.417000       1.00800           0
     44254 TIP3     6646     TIP3     OH2      OT      -0.834000       15.9994           0
     44255 TIP3     6646     TIP3     H1       HT       0.417000       1.00800           0
     44256 TIP3     6646     TIP3     H2       HT       0.417000       1.00800           0
     44257 TIP3     6647     TIP3     OH2      OT      -0.834000       15.9994           0
     44258 TIP3     6647     TIP3     H1       HT       0.417000       1.00800           0
     44259 TIP3     6647     TIP3     H2       HT       0.417000       1.00800           0
     44260 TIP3     6648     TIP3     OH2      OT      -0.834000       15.9994           0
     44261 TIP3     6648     TIP3     H1       HT       0.417000       1.00800           0
     44262 TIP3     6648     TIP3     H2       HT       0.417000       1.00800           0
     44263 TIP3     6649     TIP3     OH2      OT      -0.834000       15.9994           0
     44264 TIP3     6649     TIP3     H1       HT       0.417000       1.00800           0
     44265 TIP3     6649     TIP3     H2       HT       0.417000       1.00800           0
     44266 TIP3     6650     TIP3     OH2      OT      -0.834000       15.9994           0
     44267 TIP3     6650     TIP3     H1       HT       0.417000       1.00800           0
     44268 TIP3     6650     TIP3     H2       HT       0.417000       1.00800           0
     44269 TIP3     6651     TIP3     OH2      OT      -0.834000       15.9994           0
     44270 TIP3     6651     TIP3     H1       HT       0.417000       1.00800           0
     44271 TIP3     6651     TIP3     H2       HT       0.417000       1.00800           0
     44272 TIP3     6652     TIP3     OH2      OT      -0.834000       15.9994           0
     44273 TIP3     6652     TIP3     H1       HT       0.417000       1.00800           0
     44274 TIP3     6652     TIP3     H2       HT       0.417000       1.00800           0
     44275 TIP3     6653     TIP3     OH2      OT      -0.834000       15.9994           0
     44276 TIP3     6653     TIP3     H1       HT       0.417000       1.00800           0
     44277 TIP3     6653     TIP3     H2       HT       0.417000       1.00800           0
     44278 TIP3     6654     TIP3     OH2      OT      -0.834000       15.9994           0
     44279 TIP3     6654     TIP3     H1       HT       0.417000       1.00800           0
     44280 TIP3     6654     TIP3     H2       HT       0.417000       1.00800           0
     44281 TIP3     6655     TIP3     OH2      OT      -0.834000       15.9994           0
     44282 TIP3     6655     TIP3     H1       HT       0.417000       1.00800           0
     44283 TIP3     6655     TIP3     H2       HT       0.417000       1.00800           0
     44284 TIP3     6656     TIP3     OH2      OT      -0.834000       15.9994           0
     44285 TIP3     6656     TIP3     H1       HT       0.417000       1.00800           0
     44286 TIP3     6656     TIP3     H2       HT       0.417000       1.00800           0
     44287 TIP3     6657     TIP3     OH2      OT      -0.834000       15.9994           0
     44288 TIP3     6657     TIP3     H1       HT       0.417000       1.00800           0
     44289 TIP3     6657     TIP3     H2       HT       0.417000       1.00800           0
     44290 TIP3     6658     TIP3     OH2      OT      -0.834000       15.9994           0
     44291 TIP3     6658     TIP3     H1       HT       0.417000       1.00800           0
     44292 TIP3     6658     TIP3     H2       HT       0.417000       1.00800           0
     44293 TIP3     6659     TIP3     OH2      OT      -0.834000       15.9994           0
     44294 TIP3     6659     TIP3     H1       HT       0.417000       1.00800           0
     44295 TIP3     6659     TIP3     H2       HT       0.417000       1.00800           0
     44296 TIP3     6660     TIP3     OH2      OT      -0.834000       15.9994           0
     44297 TIP3     6660     TIP3     H1       HT       0.417000       1.00800           0
     44298 TIP3     6660     TIP3     H2       HT       0.417000       1.00800           0
     44299 TIP3     6661     TIP3     OH2      OT      -0.834000       15.9994           0
     44300 TIP3     6661     TIP3     H1       HT       0.417000       1.00800           0
     44301 TIP3     6661     TIP3     H2       HT       0.417000       1.00800           0
     44302 TIP3     6662     TIP3     OH2      OT      -0.834000       15.9994           0
     44303 TIP3     6662     TIP3     H1       HT       0.417000       1.00800           0
     44304 TIP3     6662     TIP3     H2       HT       0.417000       1.00800           0
     44305 TIP3     6663     TIP3     OH2      OT      -0.834000       15.9994           0
     44306 TIP3     6663     TIP3     H1       HT       0.417000       1.00800           0
     44307 TIP3     6663     TIP3     H2       HT       0.417000       1.00800           0
     44308 TIP3     6664     TIP3     OH2      OT      -0.834000       15.9994           0
     44309 TIP3     6664     TIP3     H1       HT       0.417000       1.00800           0
     44310 TIP3     6664     TIP3     H2       HT       0.417000       1.00800           0
     44311 TIP3     6665     TIP3     OH2      OT      -0.834000       15.9994           0
     44312 TIP3     6665     TIP3     H1       HT       0.417000       1.00800           0
     44313 TIP3     6665     TIP3     H2       HT       0.417000       1.00800           0
     44314 TIP3     6666     TIP3     OH2      OT      -0.834000       15.9994           0
     44315 TIP3     6666     TIP3     H1       HT       0.417000       1.00800           0
     44316 TIP3     6666     TIP3     H2       HT       0.417000       1.00800           0
     44317 TIP3     6667     TIP3     OH2      OT      -0.834000       15.9994           0
     44318 TIP3     6667     TIP3     H1       HT       0.417000       1.00800           0
     44319 TIP3     6667     TIP3     H2       HT       0.417000       1.00800           0
     44320 TIP3     6668     TIP3     OH2      OT      -0.834000       15.9994           0
     44321 TIP3     6668     TIP3     H1       HT       0.417000       1.00800           0
     44322 TIP3     6668     TIP3     H2       HT       0.417000       1.00800           0
     44323 TIP3     6669     TIP3     OH2      OT      -0.834000       15.9994           0
     44324 TIP3     6669     TIP3     H1       HT       0.417000       1.00800           0
     44325 TIP3     6669     TIP3     H2       HT       0.417000       1.00800           0
     44326 TIP3     6670     TIP3     OH2      OT      -0.834000       15.9994           0
     44327 TIP3     6670     TIP3     H1       HT       0.417000       1.00800           0
     44328 TIP3     6670     TIP3     H2       HT       0.417000       1.00800           0
     44329 TIP3     6671     TIP3     OH2      OT      -0.834000       15.9994           0
     44330 TIP3     6671     TIP3     H1       HT       0.417000       1.00800           0
     44331 TIP3     6671     TIP3     H2       HT       0.417000       1.00800           0
     44332 TIP3     6672     TIP3     OH2      OT      -0.834000       15.9994           0
     44333 TIP3     6672     TIP3     H1       HT       0.417000       1.00800           0
     44334 TIP3     6672     TIP3     H2       HT       0.417000       1.00800           0
     44335 TIP3     6673     TIP3     OH2      OT      -0.834000       15.9994           0
     44336 TIP3     6673     TIP3     H1       HT       0.417000       1.00800           0
     44337 TIP3     6673     TIP3     H2       HT       0.417000       1.00800           0
     44338 TIP3     6674     TIP3     OH2      OT      -0.834000       15.9994           0
     44339 TIP3     6674     TIP3     H1       HT       0.417000       1.00800           0
     44340 TIP3     6674     TIP3     H2       HT       0.417000       1.00800           0
     44341 TIP3     6675     TIP3     OH2      OT      -0.834000       15.9994           0
     44342 TIP3     6675     TIP3     H1       HT       0.417000       1.00800           0
     44343 TIP3     6675     TIP3     H2       HT       0.417000       1.00800           0
     44344 TIP3     6676     TIP3     OH2      OT      -0.834000       15.9994           0
     44345 TIP3     6676     TIP3     H1       HT       0.417000       1.00800           0
     44346 TIP3     6676     TIP3     H2       HT       0.417000       1.00800           0
     44347 TIP3     6677     TIP3     OH2      OT      -0.834000       15.9994           0
     44348 TIP3     6677     TIP3     H1       HT       0.417000       1.00800           0
     44349 TIP3     6677     TIP3     H2       HT       0.417000       1.00800           0
     44350 TIP3     6678     TIP3     OH2      OT      -0.834000       15.9994           0
     44351 TIP3     6678     TIP3     H1       HT       0.417000       1.00800           0
     44352 TIP3     6678     TIP3     H2       HT       0.417000       1.00800           0
     44353 TIP3     6679     TIP3     OH2      OT      -0.834000       15.9994           0
     44354 TIP3     6679     TIP3     H1       HT       0.417000       1.00800           0
     44355 TIP3     6679     TIP3     H2       HT       0.417000       1.00800           0
     44356 TIP3     6680     TIP3     OH2      OT      -0.834000       15.9994           0
     44357 TIP3     6680     TIP3     H1       HT       0.417000       1.00800           0
     44358 TIP3     6680     TIP3     H2       HT       0.417000       1.00800           0
     44359 TIP3     6681     TIP3     OH2      OT      -0.834000       15.9994           0
     44360 TIP3     6681     TIP3     H1       HT       0.417000       1.00800           0
     44361 TIP3     6681     TIP3     H2       HT       0.417000       1.00800           0
     44362 TIP3     6682     TIP3     OH2      OT      -0.834000       15.9994           0
     44363 TIP3     6682     TIP3     H1       HT       0.417000       1.00800           0
     44364 TIP3     6682     TIP3     H2       HT       0.417000       1.00800           0
     44365 TIP3     6683     TIP3     OH2      OT      -0.834000       15.9994           0
     44366 TIP3     6683     TIP3     H1       HT       0.417000       1.00800           0
     44367 TIP3     6683     TIP3     H2       HT       0.417000       1.00800           0
     44368 TIP3     6684     TIP3     OH2      OT      -0.834000       15.9994           0
     44369 TIP3     6684     TIP3     H1       HT       0.417000       1.00800           0
     44370 TIP3     6684     TIP3     H2       HT       0.417000       1.00800           0
     44371 TIP3     6685     TIP3     OH2      OT      -0.834000       15.9994           0
     44372 TIP3     6685     TIP3     H1       HT       0.417000       1.00800           0
     44373 TIP3     6685     TIP3     H2       HT       0.417000       1.00800           0
     44374 TIP3     6686     TIP3     OH2      OT      -0.834000       15.9994           0
     44375 TIP3     6686     TIP3     H1       HT       0.417000       1.00800           0
     44376 TIP3     6686     TIP3     H2       HT       0.417000       1.00800           0
     44377 TIP3     6687     TIP3     OH2      OT      -0.834000       15.9994           0
     44378 TIP3     6687     TIP3     H1       HT       0.417000       1.00800           0
     44379 TIP3     6687     TIP3     H2       HT       0.417000       1.00800           0
     44380 TIP3     6688     TIP3     OH2      OT      -0.834000       15.9994           0
     44381 TIP3     6688     TIP3     H1       HT       0.417000       1.00800           0
     44382 TIP3     6688     TIP3     H2       HT       0.417000       1.00800           0
     44383 TIP3     6689     TIP3     OH2      OT      -0.834000       15.9994           0
     44384 TIP3     6689     TIP3     H1       HT       0.417000       1.00800           0
     44385 TIP3     6689     TIP3     H2       HT       0.417000       1.00800           0
     44386 TIP3     6690     TIP3     OH2      OT      -0.834000       15.9994           0
     44387 TIP3     6690     TIP3     H1       HT       0.417000       1.00800           0
     44388 TIP3     6690     TIP3     H2       HT       0.417000       1.00800           0
     44389 TIP3     6691     TIP3     OH2      OT      -0.834000       15.9994           0
     44390 TIP3     6691     TIP3     H1       HT       0.417000       1.00800           0
     44391 TIP3     6691     TIP3     H2       HT       0.417000       1.00800           0
     44392 TIP3     6692     TIP3     OH2      OT      -0.834000       15.9994           0
     44393 TIP3     6692     TIP3     H1       HT       0.417000       1.00800           0
     44394 TIP3     6692     TIP3     H2       HT       0.417000       1.00800           0
     44395 TIP3     6693     TIP3     OH2      OT      -0.834000       15.9994           0
     44396 TIP3     6693     TIP3     H1       HT       0.417000       1.00800           0
     44397 TIP3     6693     TIP3     H2       HT       0.417000       1.00800           0
     44398 TIP3     6694     TIP3     OH2      OT      -0.834000       15.9994           0
     44399 TIP3     6694     TIP3     H1       HT       0.417000       1.00800           0
     44400 TIP3     6694     TIP3     H2       HT       0.417000       1.00800           0
     44401 TIP3     6695     TIP3     OH2      OT      -0.834000       15.9994           0
     44402 TIP3     6695     TIP3     H1       HT       0.417000       1.00800           0
     44403 TIP3     6695     TIP3     H2       HT       0.417000       1.00800           0
     44404 TIP3     6696     TIP3     OH2      OT      -0.834000       15.9994           0
     44405 TIP3     6696     TIP3     H1       HT       0.417000       1.00800           0
     44406 TIP3     6696     TIP3     H2       HT       0.417000       1.00800           0
     44407 TIP3     6697     TIP3     OH2      OT      -0.834000       15.9994           0
     44408 TIP3     6697     TIP3     H1       HT       0.417000       1.00800           0
     44409 TIP3     6697     TIP3     H2       HT       0.417000       1.00800           0
     44410 TIP3     6698     TIP3     OH2      OT      -0.834000       15.9994           0
     44411 TIP3     6698     TIP3     H1       HT       0.417000       1.00800           0
     44412 TIP3     6698     TIP3     H2       HT       0.417000       1.00800           0
     44413 TIP3     6699     TIP3     OH2      OT      -0.834000       15.9994           0
     44414 TIP3     6699     TIP3     H1       HT       0.417000       1.00800           0
     44415 TIP3     6699     TIP3     H2       HT       0.417000       1.00800           0
     44416 TIP3     6700     TIP3     OH2      OT      -0.834000       15.9994           0
     44417 TIP3     6700     TIP3     H1       HT       0.417000       1.00800           0
     44418 TIP3     6700     TIP3     H2       HT       0.417000       1.00800           0
     44419 TIP3     6701     TIP3     OH2      OT      -0.834000       15.9994           0
     44420 TIP3     6701     TIP3     H1       HT       0.417000       1.00800           0
     44421 TIP3     6701     TIP3     H2       HT       0.417000       1.00800           0
     44422 TIP3     6702     TIP3     OH2      OT      -0.834000       15.9994           0
     44423 TIP3     6702     TIP3     H1       HT       0.417000       1.00800           0
     44424 TIP3     6702     TIP3     H2       HT       0.417000       1.00800           0
     44425 TIP3     6703     TIP3     OH2      OT      -0.834000       15.9994           0
     44426 TIP3     6703     TIP3     H1       HT       0.417000       1.00800           0
     44427 TIP3     6703     TIP3     H2       HT       0.417000       1.00800           0
     44428 TIP3     6704     TIP3     OH2      OT      -0.834000       15.9994           0
     44429 TIP3     6704     TIP3     H1       HT       0.417000       1.00800           0
     44430 TIP3     6704     TIP3     H2       HT       0.417000       1.00800           0
     44431 TIP3     6705     TIP3     OH2      OT      -0.834000       15.9994           0
     44432 TIP3     6705     TIP3     H1       HT       0.417000       1.00800           0
     44433 TIP3     6705     TIP3     H2       HT       0.417000       1.00800           0
     44434 TIP3     6706     TIP3     OH2      OT      -0.834000       15.9994           0
     44435 TIP3     6706     TIP3     H1       HT       0.417000       1.00800           0
     44436 TIP3     6706     TIP3     H2       HT       0.417000       1.00800           0
     44437 TIP3     6707     TIP3     OH2      OT      -0.834000       15.9994           0
     44438 TIP3     6707     TIP3     H1       HT       0.417000       1.00800           0
     44439 TIP3     6707     TIP3     H2       HT       0.417000       1.00800           0
     44440 TIP3     6708     TIP3     OH2      OT      -0.834000       15.9994           0
     44441 TIP3     6708     TIP3     H1       HT       0.417000       1.00800           0
     44442 TIP3     6708     TIP3     H2       HT       0.417000       1.00800           0
     44443 TIP3     6709     TIP3     OH2      OT      -0.834000       15.9994           0
     44444 TIP3     6709     TIP3     H1       HT       0.417000       1.00800           0
     44445 TIP3     6709     TIP3     H2       HT       0.417000       1.00800           0
     44446 TIP3     6710     TIP3     OH2      OT      -0.834000       15.9994           0
     44447 TIP3     6710     TIP3     H1       HT       0.417000       1.00800           0
     44448 TIP3     6710     TIP3     H2       HT       0.417000       1.00800           0
     44449 TIP3     6711     TIP3     OH2      OT      -0.834000       15.9994           0
     44450 TIP3     6711     TIP3     H1       HT       0.417000       1.00800           0
     44451 TIP3     6711     TIP3     H2       HT       0.417000       1.00800           0
     44452 TIP3     6712     TIP3     OH2      OT      -0.834000       15.9994           0
     44453 TIP3     6712     TIP3     H1       HT       0.417000       1.00800           0
     44454 TIP3     6712     TIP3     H2       HT       0.417000       1.00800           0
     44455 TIP3     6713     TIP3     OH2      OT      -0.834000       15.9994           0
     44456 TIP3     6713     TIP3     H1       HT       0.417000       1.00800           0
     44457 TIP3     6713     TIP3     H2       HT       0.417000       1.00800           0
     44458 TIP3     6714     TIP3     OH2      OT      -0.834000       15.9994           0
     44459 TIP3     6714     TIP3     H1       HT       0.417000       1.00800           0
     44460 TIP3     6714     TIP3     H2       HT       0.417000       1.00800           0
     44461 TIP3     6715     TIP3     OH2      OT      -0.834000       15.9994           0
     44462 TIP3     6715     TIP3     H1       HT       0.417000       1.00800           0
     44463 TIP3     6715     TIP3     H2       HT       0.417000       1.00800           0
     44464 TIP3     6716     TIP3     OH2      OT      -0.834000       15.9994           0
     44465 TIP3     6716     TIP3     H1       HT       0.417000       1.00800           0
     44466 TIP3     6716     TIP3     H2       HT       0.417000       1.00800           0
     44467 TIP3     6717     TIP3     OH2      OT      -0.834000       15.9994           0
     44468 TIP3     6717     TIP3     H1       HT       0.417000       1.00800           0
     44469 TIP3     6717     TIP3     H2       HT       0.417000       1.00800           0
     44470 TIP3     6718     TIP3     OH2      OT      -0.834000       15.9994           0
     44471 TIP3     6718     TIP3     H1       HT       0.417000       1.00800           0
     44472 TIP3     6718     TIP3     H2       HT       0.417000       1.00800           0
     44473 TIP3     6719     TIP3     OH2      OT      -0.834000       15.9994           0
     44474 TIP3     6719     TIP3     H1       HT       0.417000       1.00800           0
     44475 TIP3     6719     TIP3     H2       HT       0.417000       1.00800           0
     44476 TIP3     6720     TIP3     OH2      OT      -0.834000       15.9994           0
     44477 TIP3     6720     TIP3     H1       HT       0.417000       1.00800           0
     44478 TIP3     6720     TIP3     H2       HT       0.417000       1.00800           0
     44479 TIP3     6721     TIP3     OH2      OT      -0.834000       15.9994           0
     44480 TIP3     6721     TIP3     H1       HT       0.417000       1.00800           0
     44481 TIP3     6721     TIP3     H2       HT       0.417000       1.00800           0
     44482 TIP3     6722     TIP3     OH2      OT      -0.834000       15.9994           0
     44483 TIP3     6722     TIP3     H1       HT       0.417000       1.00800           0
     44484 TIP3     6722     TIP3     H2       HT       0.417000       1.00800           0
     44485 TIP3     6723     TIP3     OH2      OT      -0.834000       15.9994           0
     44486 TIP3     6723     TIP3     H1       HT       0.417000       1.00800           0
     44487 TIP3     6723     TIP3     H2       HT       0.417000       1.00800           0
     44488 TIP3     6724     TIP3     OH2      OT      -0.834000       15.9994           0
     44489 TIP3     6724     TIP3     H1       HT       0.417000       1.00800           0
     44490 TIP3     6724     TIP3     H2       HT       0.417000       1.00800           0
     44491 TIP3     6725     TIP3     OH2      OT      -0.834000       15.9994           0
     44492 TIP3     6725     TIP3     H1       HT       0.417000       1.00800           0
     44493 TIP3     6725     TIP3     H2       HT       0.417000       1.00800           0
     44494 TIP3     6726     TIP3     OH2      OT      -0.834000       15.9994           0
     44495 TIP3     6726     TIP3     H1       HT       0.417000       1.00800           0
     44496 TIP3     6726     TIP3     H2       HT       0.417000       1.00800           0
     44497 TIP3     6727     TIP3     OH2      OT      -0.834000       15.9994           0
     44498 TIP3     6727     TIP3     H1       HT       0.417000       1.00800           0
     44499 TIP3     6727     TIP3     H2       HT       0.417000       1.00800           0
     44500 TIP3     6728     TIP3     OH2      OT      -0.834000       15.9994           0
     44501 TIP3     6728     TIP3     H1       HT       0.417000       1.00800           0
     44502 TIP3     6728     TIP3     H2       HT       0.417000       1.00800           0
     44503 TIP3     6729     TIP3     OH2      OT      -0.834000       15.9994           0
     44504 TIP3     6729     TIP3     H1       HT       0.417000       1.00800           0
     44505 TIP3     6729     TIP3     H2       HT       0.417000       1.00800           0
     44506 TIP3     6730     TIP3     OH2      OT      -0.834000       15.9994           0
     44507 TIP3     6730     TIP3     H1       HT       0.417000       1.00800           0
     44508 TIP3     6730     TIP3     H2       HT       0.417000       1.00800           0
     44509 TIP3     6731     TIP3     OH2      OT      -0.834000       15.9994           0
     44510 TIP3     6731     TIP3     H1       HT       0.417000       1.00800           0
     44511 TIP3     6731     TIP3     H2       HT       0.417000       1.00800           0
     44512 TIP3     6732     TIP3     OH2      OT      -0.834000       15.9994           0
     44513 TIP3     6732     TIP3     H1       HT       0.417000       1.00800           0
     44514 TIP3     6732     TIP3     H2       HT       0.417000       1.00800           0
     44515 TIP3     6733     TIP3     OH2      OT      -0.834000       15.9994           0
     44516 TIP3     6733     TIP3     H1       HT       0.417000       1.00800           0
     44517 TIP3     6733     TIP3     H2       HT       0.417000       1.00800           0
     44518 TIP3     6734     TIP3     OH2      OT      -0.834000       15.9994           0
     44519 TIP3     6734     TIP3     H1       HT       0.417000       1.00800           0
     44520 TIP3     6734     TIP3     H2       HT       0.417000       1.00800           0
     44521 TIP3     6735     TIP3     OH2      OT      -0.834000       15.9994           0
     44522 TIP3     6735     TIP3     H1       HT       0.417000       1.00800           0
     44523 TIP3     6735     TIP3     H2       HT       0.417000       1.00800           0
     44524 TIP3     6736     TIP3     OH2      OT      -0.834000       15.9994           0
     44525 TIP3     6736     TIP3     H1       HT       0.417000       1.00800           0
     44526 TIP3     6736     TIP3     H2       HT       0.417000       1.00800           0
     44527 TIP3     6737     TIP3     OH2      OT      -0.834000       15.9994           0
     44528 TIP3     6737     TIP3     H1       HT       0.417000       1.00800           0
     44529 TIP3     6737     TIP3     H2       HT       0.417000       1.00800           0
     44530 TIP3     6738     TIP3     OH2      OT      -0.834000       15.9994           0
     44531 TIP3     6738     TIP3     H1       HT       0.417000       1.00800           0
     44532 TIP3     6738     TIP3     H2       HT       0.417000       1.00800           0
     44533 TIP3     6739     TIP3     OH2      OT      -0.834000       15.9994           0
     44534 TIP3     6739     TIP3     H1       HT       0.417000       1.00800           0
     44535 TIP3     6739     TIP3     H2       HT       0.417000       1.00800           0
     44536 TIP3     6740     TIP3     OH2      OT      -0.834000       15.9994           0
     44537 TIP3     6740     TIP3     H1       HT       0.417000       1.00800           0
     44538 TIP3     6740     TIP3     H2       HT       0.417000       1.00800           0
     44539 TIP3     6741     TIP3     OH2      OT      -0.834000       15.9994           0
     44540 TIP3     6741     TIP3     H1       HT       0.417000       1.00800           0
     44541 TIP3     6741     TIP3     H2       HT       0.417000       1.00800           0
     44542 TIP3     6742     TIP3     OH2      OT      -0.834000       15.9994           0
     44543 TIP3     6742     TIP3     H1       HT       0.417000       1.00800           0
     44544 TIP3     6742     TIP3     H2       HT       0.417000       1.00800           0
     44545 TIP3     6743     TIP3     OH2      OT      -0.834000       15.9994           0
     44546 TIP3     6743     TIP3     H1       HT       0.417000       1.00800           0
     44547 TIP3     6743     TIP3     H2       HT       0.417000       1.00800           0
     44548 TIP3     6744     TIP3     OH2      OT      -0.834000       15.9994           0
     44549 TIP3     6744     TIP3     H1       HT       0.417000       1.00800           0
     44550 TIP3     6744     TIP3     H2       HT       0.417000       1.00800           0
     44551 TIP3     6745     TIP3     OH2      OT      -0.834000       15.9994           0
     44552 TIP3     6745     TIP3     H1       HT       0.417000       1.00800           0
     44553 TIP3     6745     TIP3     H2       HT       0.417000       1.00800           0
     44554 TIP3     6746     TIP3     OH2      OT      -0.834000       15.9994           0
     44555 TIP3     6746     TIP3     H1       HT       0.417000       1.00800           0
     44556 TIP3     6746     TIP3     H2       HT       0.417000       1.00800           0
     44557 TIP3     6747     TIP3     OH2      OT      -0.834000       15.9994           0
     44558 TIP3     6747     TIP3     H1       HT       0.417000       1.00800           0
     44559 TIP3     6747     TIP3     H2       HT       0.417000       1.00800           0
     44560 TIP3     6748     TIP3     OH2      OT      -0.834000       15.9994           0
     44561 TIP3     6748     TIP3     H1       HT       0.417000       1.00800           0
     44562 TIP3     6748     TIP3     H2       HT       0.417000       1.00800           0
     44563 TIP3     6749     TIP3     OH2      OT      -0.834000       15.9994           0
     44564 TIP3     6749     TIP3     H1       HT       0.417000       1.00800           0
     44565 TIP3     6749     TIP3     H2       HT       0.417000       1.00800           0
     44566 TIP3     6750     TIP3     OH2      OT      -0.834000       15.9994           0
     44567 TIP3     6750     TIP3     H1       HT       0.417000       1.00800           0
     44568 TIP3     6750     TIP3     H2       HT       0.417000       1.00800           0
     44569 TIP3     6751     TIP3     OH2      OT      -0.834000       15.9994           0
     44570 TIP3     6751     TIP3     H1       HT       0.417000       1.00800           0
     44571 TIP3     6751     TIP3     H2       HT       0.417000       1.00800           0
     44572 TIP3     6752     TIP3     OH2      OT      -0.834000       15.9994           0
     44573 TIP3     6752     TIP3     H1       HT       0.417000       1.00800           0
     44574 TIP3     6752     TIP3     H2       HT       0.417000       1.00800           0
     44575 TIP3     6753     TIP3     OH2      OT      -0.834000       15.9994           0
     44576 TIP3     6753     TIP3     H1       HT       0.417000       1.00800           0
     44577 TIP3     6753     TIP3     H2       HT       0.417000       1.00800           0
     44578 TIP3     6754     TIP3     OH2      OT      -0.834000       15.9994           0
     44579 TIP3     6754     TIP3     H1       HT       0.417000       1.00800           0
     44580 TIP3     6754     TIP3     H2       HT       0.417000       1.00800           0
     44581 TIP3     6755     TIP3     OH2      OT      -0.834000       15.9994           0
     44582 TIP3     6755     TIP3     H1       HT       0.417000       1.00800           0
     44583 TIP3     6755     TIP3     H2       HT       0.417000       1.00800           0
     44584 TIP3     6756     TIP3     OH2      OT      -0.834000       15.9994           0
     44585 TIP3     6756     TIP3     H1       HT       0.417000       1.00800           0
     44586 TIP3     6756     TIP3     H2       HT       0.417000       1.00800           0
     44587 TIP3     6757     TIP3     OH2      OT      -0.834000       15.9994           0
     44588 TIP3     6757     TIP3     H1       HT       0.417000       1.00800           0
     44589 TIP3     6757     TIP3     H2       HT       0.417000       1.00800           0
     44590 TIP3     6758     TIP3     OH2      OT      -0.834000       15.9994           0
     44591 TIP3     6758     TIP3     H1       HT       0.417000       1.00800           0
     44592 TIP3     6758     TIP3     H2       HT       0.417000       1.00800           0
     44593 TIP3     6759     TIP3     OH2      OT      -0.834000       15.9994           0
     44594 TIP3     6759     TIP3     H1       HT       0.417000       1.00800           0
     44595 TIP3     6759     TIP3     H2       HT       0.417000       1.00800           0
     44596 TIP3     6760     TIP3     OH2      OT      -0.834000       15.9994           0
     44597 TIP3     6760     TIP3     H1       HT       0.417000       1.00800           0
     44598 TIP3     6760     TIP3     H2       HT       0.417000       1.00800           0
     44599 TIP3     6761     TIP3     OH2      OT      -0.834000       15.9994           0
     44600 TIP3     6761     TIP3     H1       HT       0.417000       1.00800           0
     44601 TIP3     6761     TIP3     H2       HT       0.417000       1.00800           0
     44602 TIP3     6762     TIP3     OH2      OT      -0.834000       15.9994           0
     44603 TIP3     6762     TIP3     H1       HT       0.417000       1.00800           0
     44604 TIP3     6762     TIP3     H2       HT       0.417000       1.00800           0
     44605 TIP3     6763     TIP3     OH2      OT      -0.834000       15.9994           0
     44606 TIP3     6763     TIP3     H1       HT       0.417000       1.00800           0
     44607 TIP3     6763     TIP3     H2       HT       0.417000       1.00800           0
     44608 TIP3     6764     TIP3     OH2      OT      -0.834000       15.9994           0
     44609 TIP3     6764     TIP3     H1       HT       0.417000       1.00800           0
     44610 TIP3     6764     TIP3     H2       HT       0.417000       1.00800           0
     44611 TIP3     6765     TIP3     OH2      OT      -0.834000       15.9994           0
     44612 TIP3     6765     TIP3     H1       HT       0.417000       1.00800           0
     44613 TIP3     6765     TIP3     H2       HT       0.417000       1.00800           0
     44614 TIP3     6766     TIP3     OH2      OT      -0.834000       15.9994           0
     44615 TIP3     6766     TIP3     H1       HT       0.417000       1.00800           0
     44616 TIP3     6766     TIP3     H2       HT       0.417000       1.00800           0
     44617 TIP3     6767     TIP3     OH2      OT      -0.834000       15.9994           0
     44618 TIP3     6767     TIP3     H1       HT       0.417000       1.00800           0
     44619 TIP3     6767     TIP3     H2       HT       0.417000       1.00800           0
     44620 TIP3     6768     TIP3     OH2      OT      -0.834000       15.9994           0
     44621 TIP3     6768     TIP3     H1       HT       0.417000       1.00800           0
     44622 TIP3     6768     TIP3     H2       HT       0.417000       1.00800           0
     44623 TIP3     6769     TIP3     OH2      OT      -0.834000       15.9994           0
     44624 TIP3     6769     TIP3     H1       HT       0.417000       1.00800           0
     44625 TIP3     6769     TIP3     H2       HT       0.417000       1.00800           0
     44626 TIP3     6770     TIP3     OH2      OT      -0.834000       15.9994           0
     44627 TIP3     6770     TIP3     H1       HT       0.417000       1.00800           0
     44628 TIP3     6770     TIP3     H2       HT       0.417000       1.00800           0
     44629 TIP3     6771     TIP3     OH2      OT      -0.834000       15.9994           0
     44630 TIP3     6771     TIP3     H1       HT       0.417000       1.00800           0
     44631 TIP3     6771     TIP3     H2       HT       0.417000       1.00800           0
     44632 TIP3     6772     TIP3     OH2      OT      -0.834000       15.9994           0
     44633 TIP3     6772     TIP3     H1       HT       0.417000       1.00800           0
     44634 TIP3     6772     TIP3     H2       HT       0.417000       1.00800           0
     44635 TIP3     6773     TIP3     OH2      OT      -0.834000       15.9994           0
     44636 TIP3     6773     TIP3     H1       HT       0.417000       1.00800           0
     44637 TIP3     6773     TIP3     H2       HT       0.417000       1.00800           0
     44638 TIP3     6774     TIP3     OH2      OT      -0.834000       15.9994           0
     44639 TIP3     6774     TIP3     H1       HT       0.417000       1.00800           0
     44640 TIP3     6774     TIP3     H2       HT       0.417000       1.00800           0
     44641 TIP3     6775     TIP3     OH2      OT      -0.834000       15.9994           0
     44642 TIP3     6775     TIP3     H1       HT       0.417000       1.00800           0
     44643 TIP3     6775     TIP3     H2       HT       0.417000       1.00800           0
     44644 TIP3     6776     TIP3     OH2      OT      -0.834000       15.9994           0
     44645 TIP3     6776     TIP3     H1       HT       0.417000       1.00800           0
     44646 TIP3     6776     TIP3     H2       HT       0.417000       1.00800           0
     44647 TIP3     6777     TIP3     OH2      OT      -0.834000       15.9994           0
     44648 TIP3     6777     TIP3     H1       HT       0.417000       1.00800           0
     44649 TIP3     6777     TIP3     H2       HT       0.417000       1.00800           0
     44650 TIP3     6778     TIP3     OH2      OT      -0.834000       15.9994           0
     44651 TIP3     6778     TIP3     H1       HT       0.417000       1.00800           0
     44652 TIP3     6778     TIP3     H2       HT       0.417000       1.00800           0
     44653 TIP3     6779     TIP3     OH2      OT      -0.834000       15.9994           0
     44654 TIP3     6779     TIP3     H1       HT       0.417000       1.00800           0
     44655 TIP3     6779     TIP3     H2       HT       0.417000       1.00800           0
     44656 TIP3     6780     TIP3     OH2      OT      -0.834000       15.9994           0
     44657 TIP3     6780     TIP3     H1       HT       0.417000       1.00800           0
     44658 TIP3     6780     TIP3     H2       HT       0.417000       1.00800           0
     44659 TIP3     6781     TIP3     OH2      OT      -0.834000       15.9994           0
     44660 TIP3     6781     TIP3     H1       HT       0.417000       1.00800           0
     44661 TIP3     6781     TIP3     H2       HT       0.417000       1.00800           0
     44662 TIP3     6782     TIP3     OH2      OT      -0.834000       15.9994           0
     44663 TIP3     6782     TIP3     H1       HT       0.417000       1.00800           0
     44664 TIP3     6782     TIP3     H2       HT       0.417000       1.00800           0
     44665 TIP3     6783     TIP3     OH2      OT      -0.834000       15.9994           0
     44666 TIP3     6783     TIP3     H1       HT       0.417000       1.00800           0
     44667 TIP3     6783     TIP3     H2       HT       0.417000       1.00800           0
     44668 TIP3     6784     TIP3     OH2      OT      -0.834000       15.9994           0
     44669 TIP3     6784     TIP3     H1       HT       0.417000       1.00800           0
     44670 TIP3     6784     TIP3     H2       HT       0.417000       1.00800           0
     44671 TIP3     6785     TIP3     OH2      OT      -0.834000       15.9994           0
     44672 TIP3     6785     TIP3     H1       HT       0.417000       1.00800           0
     44673 TIP3     6785     TIP3     H2       HT       0.417000       1.00800           0
     44674 TIP3     6786     TIP3     OH2      OT      -0.834000       15.9994           0
     44675 TIP3     6786     TIP3     H1       HT       0.417000       1.00800           0
     44676 TIP3     6786     TIP3     H2       HT       0.417000       1.00800           0
     44677 TIP3     6787     TIP3     OH2      OT      -0.834000       15.9994           0
     44678 TIP3     6787     TIP3     H1       HT       0.417000       1.00800           0
     44679 TIP3     6787     TIP3     H2       HT       0.417000       1.00800           0
     44680 TIP3     6788     TIP3     OH2      OT      -0.834000       15.9994           0
     44681 TIP3     6788     TIP3     H1       HT       0.417000       1.00800           0
     44682 TIP3     6788     TIP3     H2       HT       0.417000       1.00800           0
     44683 TIP3     6789     TIP3     OH2      OT      -0.834000       15.9994           0
     44684 TIP3     6789     TIP3     H1       HT       0.417000       1.00800           0
     44685 TIP3     6789     TIP3     H2       HT       0.417000       1.00800           0
     44686 TIP3     6790     TIP3     OH2      OT      -0.834000       15.9994           0
     44687 TIP3     6790     TIP3     H1       HT       0.417000       1.00800           0
     44688 TIP3     6790     TIP3     H2       HT       0.417000       1.00800           0
     44689 TIP3     6791     TIP3     OH2      OT      -0.834000       15.9994           0
     44690 TIP3     6791     TIP3     H1       HT       0.417000       1.00800           0
     44691 TIP3     6791     TIP3     H2       HT       0.417000       1.00800           0
     44692 TIP3     6792     TIP3     OH2      OT      -0.834000       15.9994           0
     44693 TIP3     6792     TIP3     H1       HT       0.417000       1.00800           0
     44694 TIP3     6792     TIP3     H2       HT       0.417000       1.00800           0
     44695 TIP3     6793     TIP3     OH2      OT      -0.834000       15.9994           0
     44696 TIP3     6793     TIP3     H1       HT       0.417000       1.00800           0
     44697 TIP3     6793     TIP3     H2       HT       0.417000       1.00800           0
     44698 TIP3     6794     TIP3     OH2      OT      -0.834000       15.9994           0
     44699 TIP3     6794     TIP3     H1       HT       0.417000       1.00800           0
     44700 TIP3     6794     TIP3     H2       HT       0.417000       1.00800           0
     44701 TIP3     6795     TIP3     OH2      OT      -0.834000       15.9994           0
     44702 TIP3     6795     TIP3     H1       HT       0.417000       1.00800           0
     44703 TIP3     6795     TIP3     H2       HT       0.417000       1.00800           0
     44704 TIP3     6796     TIP3     OH2      OT      -0.834000       15.9994           0
     44705 TIP3     6796     TIP3     H1       HT       0.417000       1.00800           0
     44706 TIP3     6796     TIP3     H2       HT       0.417000       1.00800           0
     44707 TIP3     6797     TIP3     OH2      OT      -0.834000       15.9994           0
     44708 TIP3     6797     TIP3     H1       HT       0.417000       1.00800           0
     44709 TIP3     6797     TIP3     H2       HT       0.417000       1.00800           0
     44710 TIP3     6798     TIP3     OH2      OT      -0.834000       15.9994           0
     44711 TIP3     6798     TIP3     H1       HT       0.417000       1.00800           0
     44712 TIP3     6798     TIP3     H2       HT       0.417000       1.00800           0
     44713 TIP3     6799     TIP3     OH2      OT      -0.834000       15.9994           0
     44714 TIP3     6799     TIP3     H1       HT       0.417000       1.00800           0
     44715 TIP3     6799     TIP3     H2       HT       0.417000       1.00800           0
     44716 TIP3     6800     TIP3     OH2      OT      -0.834000       15.9994           0
     44717 TIP3     6800     TIP3     H1       HT       0.417000       1.00800           0
     44718 TIP3     6800     TIP3     H2       HT       0.417000       1.00800           0
     44719 TIP3     6801     TIP3     OH2      OT      -0.834000       15.9994           0
     44720 TIP3     6801     TIP3     H1       HT       0.417000       1.00800           0
     44721 TIP3     6801     TIP3     H2       HT       0.417000       1.00800           0
     44722 TIP3     6802     TIP3     OH2      OT      -0.834000       15.9994           0
     44723 TIP3     6802     TIP3     H1       HT       0.417000       1.00800           0
     44724 TIP3     6802     TIP3     H2       HT       0.417000       1.00800           0
     44725 TIP3     6803     TIP3     OH2      OT      -0.834000       15.9994           0
     44726 TIP3     6803     TIP3     H1       HT       0.417000       1.00800           0
     44727 TIP3     6803     TIP3     H2       HT       0.417000       1.00800           0
     44728 TIP3     6804     TIP3     OH2      OT      -0.834000       15.9994           0
     44729 TIP3     6804     TIP3     H1       HT       0.417000       1.00800           0
     44730 TIP3     6804     TIP3     H2       HT       0.417000       1.00800           0
     44731 TIP3     6805     TIP3     OH2      OT      -0.834000       15.9994           0
     44732 TIP3     6805     TIP3     H1       HT       0.417000       1.00800           0
     44733 TIP3     6805     TIP3     H2       HT       0.417000       1.00800           0
     44734 TIP3     6806     TIP3     OH2      OT      -0.834000       15.9994           0
     44735 TIP3     6806     TIP3     H1       HT       0.417000       1.00800           0
     44736 TIP3     6806     TIP3     H2       HT       0.417000       1.00800           0
     44737 TIP3     6807     TIP3     OH2      OT      -0.834000       15.9994           0
     44738 TIP3     6807     TIP3     H1       HT       0.417000       1.00800           0
     44739 TIP3     6807     TIP3     H2       HT       0.417000       1.00800           0
     44740 TIP3     6808     TIP3     OH2      OT      -0.834000       15.9994           0
     44741 TIP3     6808     TIP3     H1       HT       0.417000       1.00800           0
     44742 TIP3     6808     TIP3     H2       HT       0.417000       1.00800           0
     44743 TIP3     6809     TIP3     OH2      OT      -0.834000       15.9994           0
     44744 TIP3     6809     TIP3     H1       HT       0.417000       1.00800           0
     44745 TIP3     6809     TIP3     H2       HT       0.417000       1.00800           0
     44746 TIP3     6810     TIP3     OH2      OT      -0.834000       15.9994           0
     44747 TIP3     6810     TIP3     H1       HT       0.417000       1.00800           0
     44748 TIP3     6810     TIP3     H2       HT       0.417000       1.00800           0
     44749 TIP3     6811     TIP3     OH2      OT      -0.834000       15.9994           0
     44750 TIP3     6811     TIP3     H1       HT       0.417000       1.00800           0
     44751 TIP3     6811     TIP3     H2       HT       0.417000       1.00800           0
     44752 TIP3     6812     TIP3     OH2      OT      -0.834000       15.9994           0
     44753 TIP3     6812     TIP3     H1       HT       0.417000       1.00800           0
     44754 TIP3     6812     TIP3     H2       HT       0.417000       1.00800           0
     44755 TIP3     6813     TIP3     OH2      OT      -0.834000       15.9994           0
     44756 TIP3     6813     TIP3     H1       HT       0.417000       1.00800           0
     44757 TIP3     6813     TIP3     H2       HT       0.417000       1.00800           0
     44758 TIP3     6814     TIP3     OH2      OT      -0.834000       15.9994           0
     44759 TIP3     6814     TIP3     H1       HT       0.417000       1.00800           0
     44760 TIP3     6814     TIP3     H2       HT       0.417000       1.00800           0
     44761 TIP3     6815     TIP3     OH2      OT      -0.834000       15.9994           0
     44762 TIP3     6815     TIP3     H1       HT       0.417000       1.00800           0
     44763 TIP3     6815     TIP3     H2       HT       0.417000       1.00800           0
     44764 TIP3     6816     TIP3     OH2      OT      -0.834000       15.9994           0
     44765 TIP3     6816     TIP3     H1       HT       0.417000       1.00800           0
     44766 TIP3     6816     TIP3     H2       HT       0.417000       1.00800           0
     44767 TIP3     6817     TIP3     OH2      OT      -0.834000       15.9994           0
     44768 TIP3     6817     TIP3     H1       HT       0.417000       1.00800           0
     44769 TIP3     6817     TIP3     H2       HT       0.417000       1.00800           0
     44770 TIP3     6818     TIP3     OH2      OT      -0.834000       15.9994           0
     44771 TIP3     6818     TIP3     H1       HT       0.417000       1.00800           0
     44772 TIP3     6818     TIP3     H2       HT       0.417000       1.00800           0
     44773 TIP3     6819     TIP3     OH2      OT      -0.834000       15.9994           0
     44774 TIP3     6819     TIP3     H1       HT       0.417000       1.00800           0
     44775 TIP3     6819     TIP3     H2       HT       0.417000       1.00800           0
     44776 TIP3     6820     TIP3     OH2      OT      -0.834000       15.9994           0
     44777 TIP3     6820     TIP3     H1       HT       0.417000       1.00800           0
     44778 TIP3     6820     TIP3     H2       HT       0.417000       1.00800           0
     44779 TIP3     6821     TIP3     OH2      OT      -0.834000       15.9994           0
     44780 TIP3     6821     TIP3     H1       HT       0.417000       1.00800           0
     44781 TIP3     6821     TIP3     H2       HT       0.417000       1.00800           0
     44782 TIP3     6822     TIP3     OH2      OT      -0.834000       15.9994           0
     44783 TIP3     6822     TIP3     H1       HT       0.417000       1.00800           0
     44784 TIP3     6822     TIP3     H2       HT       0.417000       1.00800           0
     44785 TIP3     6823     TIP3     OH2      OT      -0.834000       15.9994           0
     44786 TIP3     6823     TIP3     H1       HT       0.417000       1.00800           0
     44787 TIP3     6823     TIP3     H2       HT       0.417000       1.00800           0
     44788 TIP3     6824     TIP3     OH2      OT      -0.834000       15.9994           0
     44789 TIP3     6824     TIP3     H1       HT       0.417000       1.00800           0
     44790 TIP3     6824     TIP3     H2       HT       0.417000       1.00800           0
     44791 TIP3     6825     TIP3     OH2      OT      -0.834000       15.9994           0
     44792 TIP3     6825     TIP3     H1       HT       0.417000       1.00800           0
     44793 TIP3     6825     TIP3     H2       HT       0.417000       1.00800           0
     44794 TIP3     6826     TIP3     OH2      OT      -0.834000       15.9994           0
     44795 TIP3     6826     TIP3     H1       HT       0.417000       1.00800           0
     44796 TIP3     6826     TIP3     H2       HT       0.417000       1.00800           0
     44797 TIP3     6827     TIP3     OH2      OT      -0.834000       15.9994           0
     44798 TIP3     6827     TIP3     H1       HT       0.417000       1.00800           0
     44799 TIP3     6827     TIP3     H2       HT       0.417000       1.00800           0
     44800 TIP3     6828     TIP3     OH2      OT      -0.834000       15.9994           0
     44801 TIP3     6828     TIP3     H1       HT       0.417000       1.00800           0
     44802 TIP3     6828     TIP3     H2       HT       0.417000       1.00800           0
     44803 TIP3     6829     TIP3     OH2      OT      -0.834000       15.9994           0
     44804 TIP3     6829     TIP3     H1       HT       0.417000       1.00800           0
     44805 TIP3     6829     TIP3     H2       HT       0.417000       1.00800           0
     44806 TIP3     6830     TIP3     OH2      OT      -0.834000       15.9994           0
     44807 TIP3     6830     TIP3     H1       HT       0.417000       1.00800           0
     44808 TIP3     6830     TIP3     H2       HT       0.417000       1.00800           0
     44809 TIP3     6831     TIP3     OH2      OT      -0.834000       15.9994           0
     44810 TIP3     6831     TIP3     H1       HT       0.417000       1.00800           0
     44811 TIP3     6831     TIP3     H2       HT       0.417000       1.00800           0
     44812 TIP3     6832     TIP3     OH2      OT      -0.834000       15.9994           0
     44813 TIP3     6832     TIP3     H1       HT       0.417000       1.00800           0
     44814 TIP3     6832     TIP3     H2       HT       0.417000       1.00800           0
     44815 TIP3     6833     TIP3     OH2      OT      -0.834000       15.9994           0
     44816 TIP3     6833     TIP3     H1       HT       0.417000       1.00800           0
     44817 TIP3     6833     TIP3     H2       HT       0.417000       1.00800           0
     44818 TIP3     6834     TIP3     OH2      OT      -0.834000       15.9994           0
     44819 TIP3     6834     TIP3     H1       HT       0.417000       1.00800           0
     44820 TIP3     6834     TIP3     H2       HT       0.417000       1.00800           0
     44821 TIP3     6835     TIP3     OH2      OT      -0.834000       15.9994           0
     44822 TIP3     6835     TIP3     H1       HT       0.417000       1.00800           0
     44823 TIP3     6835     TIP3     H2       HT       0.417000       1.00800           0
     44824 TIP3     6836     TIP3     OH2      OT      -0.834000       15.9994           0
     44825 TIP3     6836     TIP3     H1       HT       0.417000       1.00800           0
     44826 TIP3     6836     TIP3     H2       HT       0.417000       1.00800           0
     44827 TIP3     6837     TIP3     OH2      OT      -0.834000       15.9994           0
     44828 TIP3     6837     TIP3     H1       HT       0.417000       1.00800           0
     44829 TIP3     6837     TIP3     H2       HT       0.417000       1.00800           0
     44830 TIP3     6838     TIP3     OH2      OT      -0.834000       15.9994           0
     44831 TIP3     6838     TIP3     H1       HT       0.417000       1.00800           0
     44832 TIP3     6838     TIP3     H2       HT       0.417000       1.00800           0
     44833 TIP3     6839     TIP3     OH2      OT      -0.834000       15.9994           0
     44834 TIP3     6839     TIP3     H1       HT       0.417000       1.00800           0
     44835 TIP3     6839     TIP3     H2       HT       0.417000       1.00800           0
     44836 TIP3     6840     TIP3     OH2      OT      -0.834000       15.9994           0
     44837 TIP3     6840     TIP3     H1       HT       0.417000       1.00800           0
     44838 TIP3     6840     TIP3     H2       HT       0.417000       1.00800           0
     44839 TIP3     6841     TIP3     OH2      OT      -0.834000       15.9994           0
     44840 TIP3     6841     TIP3     H1       HT       0.417000       1.00800           0
     44841 TIP3     6841     TIP3     H2       HT       0.417000       1.00800           0
     44842 TIP3     6842     TIP3     OH2      OT      -0.834000       15.9994           0
     44843 TIP3     6842     TIP3     H1       HT       0.417000       1.00800           0
     44844 TIP3     6842     TIP3     H2       HT       0.417000       1.00800           0
     44845 TIP3     6843     TIP3     OH2      OT      -0.834000       15.9994           0
     44846 TIP3     6843     TIP3     H1       HT       0.417000       1.00800           0
     44847 TIP3     6843     TIP3     H2       HT       0.417000       1.00800           0
     44848 TIP3     6844     TIP3     OH2      OT      -0.834000       15.9994           0
     44849 TIP3     6844     TIP3     H1       HT       0.417000       1.00800           0
     44850 TIP3     6844     TIP3     H2       HT       0.417000       1.00800           0
     44851 TIP3     6845     TIP3     OH2      OT      -0.834000       15.9994           0
     44852 TIP3     6845     TIP3     H1       HT       0.417000       1.00800           0
     44853 TIP3     6845     TIP3     H2       HT       0.417000       1.00800           0
     44854 TIP3     6846     TIP3     OH2      OT      -0.834000       15.9994           0
     44855 TIP3     6846     TIP3     H1       HT       0.417000       1.00800           0
     44856 TIP3     6846     TIP3     H2       HT       0.417000       1.00800           0
     44857 TIP3     6847     TIP3     OH2      OT      -0.834000       15.9994           0
     44858 TIP3     6847     TIP3     H1       HT       0.417000       1.00800           0
     44859 TIP3     6847     TIP3     H2       HT       0.417000       1.00800           0
     44860 TIP3     6848     TIP3     OH2      OT      -0.834000       15.9994           0
     44861 TIP3     6848     TIP3     H1       HT       0.417000       1.00800           0
     44862 TIP3     6848     TIP3     H2       HT       0.417000       1.00800           0
     44863 TIP3     6849     TIP3     OH2      OT      -0.834000       15.9994           0
     44864 TIP3     6849     TIP3     H1       HT       0.417000       1.00800           0
     44865 TIP3     6849     TIP3     H2       HT       0.417000       1.00800           0
     44866 TIP3     6850     TIP3     OH2      OT      -0.834000       15.9994           0
     44867 TIP3     6850     TIP3     H1       HT       0.417000       1.00800           0
     44868 TIP3     6850     TIP3     H2       HT       0.417000       1.00800           0
     44869 TIP3     6851     TIP3     OH2      OT      -0.834000       15.9994           0
     44870 TIP3     6851     TIP3     H1       HT       0.417000       1.00800           0
     44871 TIP3     6851     TIP3     H2       HT       0.417000       1.00800           0
     44872 TIP3     6852     TIP3     OH2      OT      -0.834000       15.9994           0
     44873 TIP3     6852     TIP3     H1       HT       0.417000       1.00800           0
     44874 TIP3     6852     TIP3     H2       HT       0.417000       1.00800           0
     44875 TIP3     6853     TIP3     OH2      OT      -0.834000       15.9994           0
     44876 TIP3     6853     TIP3     H1       HT       0.417000       1.00800           0
     44877 TIP3     6853     TIP3     H2       HT       0.417000       1.00800           0
     44878 TIP3     6854     TIP3     OH2      OT      -0.834000       15.9994           0
     44879 TIP3     6854     TIP3     H1       HT       0.417000       1.00800           0
     44880 TIP3     6854     TIP3     H2       HT       0.417000       1.00800           0
     44881 TIP3     6855     TIP3     OH2      OT      -0.834000       15.9994           0
     44882 TIP3     6855     TIP3     H1       HT       0.417000       1.00800           0
     44883 TIP3     6855     TIP3     H2       HT       0.417000       1.00800           0
     44884 TIP3     6856     TIP3     OH2      OT      -0.834000       15.9994           0
     44885 TIP3     6856     TIP3     H1       HT       0.417000       1.00800           0
     44886 TIP3     6856     TIP3     H2       HT       0.417000       1.00800           0
     44887 TIP3     6857     TIP3     OH2      OT      -0.834000       15.9994           0
     44888 TIP3     6857     TIP3     H1       HT       0.417000       1.00800           0
     44889 TIP3     6857     TIP3     H2       HT       0.417000       1.00800           0
     44890 TIP3     6858     TIP3     OH2      OT      -0.834000       15.9994           0
     44891 TIP3     6858     TIP3     H1       HT       0.417000       1.00800           0
     44892 TIP3     6858     TIP3     H2       HT       0.417000       1.00800           0
     44893 TIP3     6859     TIP3     OH2      OT      -0.834000       15.9994           0
     44894 TIP3     6859     TIP3     H1       HT       0.417000       1.00800           0
     44895 TIP3     6859     TIP3     H2       HT       0.417000       1.00800           0
     44896 TIP3     6860     TIP3     OH2      OT      -0.834000       15.9994           0
     44897 TIP3     6860     TIP3     H1       HT       0.417000       1.00800           0
     44898 TIP3     6860     TIP3     H2       HT       0.417000       1.00800           0
     44899 TIP3     6861     TIP3     OH2      OT      -0.834000       15.9994           0
     44900 TIP3     6861     TIP3     H1       HT       0.417000       1.00800           0
     44901 TIP3     6861     TIP3     H2       HT       0.417000       1.00800           0
     44902 TIP3     6862     TIP3     OH2      OT      -0.834000       15.9994           0
     44903 TIP3     6862     TIP3     H1       HT       0.417000       1.00800           0
     44904 TIP3     6862     TIP3     H2       HT       0.417000       1.00800           0
     44905 TIP3     6863     TIP3     OH2      OT      -0.834000       15.9994           0
     44906 TIP3     6863     TIP3     H1       HT       0.417000       1.00800           0
     44907 TIP3     6863     TIP3     H2       HT       0.417000       1.00800           0
     44908 TIP3     6864     TIP3     OH2      OT      -0.834000       15.9994           0
     44909 TIP3     6864     TIP3     H1       HT       0.417000       1.00800           0
     44910 TIP3     6864     TIP3     H2       HT       0.417000       1.00800           0
     44911 TIP3     6865     TIP3     OH2      OT      -0.834000       15.9994           0
     44912 TIP3     6865     TIP3     H1       HT       0.417000       1.00800           0
     44913 TIP3     6865     TIP3     H2       HT       0.417000       1.00800           0
     44914 TIP3     6866     TIP3     OH2      OT      -0.834000       15.9994           0
     44915 TIP3     6866     TIP3     H1       HT       0.417000       1.00800           0
     44916 TIP3     6866     TIP3     H2       HT       0.417000       1.00800           0
     44917 TIP3     6867     TIP3     OH2      OT      -0.834000       15.9994           0
     44918 TIP3     6867     TIP3     H1       HT       0.417000       1.00800           0
     44919 TIP3     6867     TIP3     H2       HT       0.417000       1.00800           0
     44920 TIP3     6868     TIP3     OH2      OT      -0.834000       15.9994           0
     44921 TIP3     6868     TIP3     H1       HT       0.417000       1.00800           0
     44922 TIP3     6868     TIP3     H2       HT       0.417000       1.00800           0
     44923 TIP3     6869     TIP3     OH2      OT      -0.834000       15.9994           0
     44924 TIP3     6869     TIP3     H1       HT       0.417000       1.00800           0
     44925 TIP3     6869     TIP3     H2       HT       0.417000       1.00800           0
     44926 TIP3     6870     TIP3     OH2      OT      -0.834000       15.9994           0
     44927 TIP3     6870     TIP3     H1       HT       0.417000       1.00800           0
     44928 TIP3     6870     TIP3     H2       HT       0.417000       1.00800           0
     44929 TIP3     6871     TIP3     OH2      OT      -0.834000       15.9994           0
     44930 TIP3     6871     TIP3     H1       HT       0.417000       1.00800           0
     44931 TIP3     6871     TIP3     H2       HT       0.417000       1.00800           0
     44932 TIP3     6872     TIP3     OH2      OT      -0.834000       15.9994           0
     44933 TIP3     6872     TIP3     H1       HT       0.417000       1.00800           0
     44934 TIP3     6872     TIP3     H2       HT       0.417000       1.00800           0
     44935 TIP3     6873     TIP3     OH2      OT      -0.834000       15.9994           0
     44936 TIP3     6873     TIP3     H1       HT       0.417000       1.00800           0
     44937 TIP3     6873     TIP3     H2       HT       0.417000       1.00800           0
     44938 TIP3     6874     TIP3     OH2      OT      -0.834000       15.9994           0
     44939 TIP3     6874     TIP3     H1       HT       0.417000       1.00800           0
     44940 TIP3     6874     TIP3     H2       HT       0.417000       1.00800           0
     44941 TIP3     6875     TIP3     OH2      OT      -0.834000       15.9994           0
     44942 TIP3     6875     TIP3     H1       HT       0.417000       1.00800           0
     44943 TIP3     6875     TIP3     H2       HT       0.417000       1.00800           0
     44944 TIP3     6876     TIP3     OH2      OT      -0.834000       15.9994           0
     44945 TIP3     6876     TIP3     H1       HT       0.417000       1.00800           0
     44946 TIP3     6876     TIP3     H2       HT       0.417000       1.00800           0
     44947 TIP3     6877     TIP3     OH2      OT      -0.834000       15.9994           0
     44948 TIP3     6877     TIP3     H1       HT       0.417000       1.00800           0
     44949 TIP3     6877     TIP3     H2       HT       0.417000       1.00800           0
     44950 TIP3     6878     TIP3     OH2      OT      -0.834000       15.9994           0
     44951 TIP3     6878     TIP3     H1       HT       0.417000       1.00800           0
     44952 TIP3     6878     TIP3     H2       HT       0.417000       1.00800           0
     44953 TIP3     6879     TIP3     OH2      OT      -0.834000       15.9994           0
     44954 TIP3     6879     TIP3     H1       HT       0.417000       1.00800           0
     44955 TIP3     6879     TIP3     H2       HT       0.417000       1.00800           0
     44956 TIP3     6880     TIP3     OH2      OT      -0.834000       15.9994           0
     44957 TIP3     6880     TIP3     H1       HT       0.417000       1.00800           0
     44958 TIP3     6880     TIP3     H2       HT       0.417000       1.00800           0
     44959 TIP3     6881     TIP3     OH2      OT      -0.834000       15.9994           0
     44960 TIP3     6881     TIP3     H1       HT       0.417000       1.00800           0
     44961 TIP3     6881     TIP3     H2       HT       0.417000       1.00800           0
     44962 TIP3     6882     TIP3     OH2      OT      -0.834000       15.9994           0
     44963 TIP3     6882     TIP3     H1       HT       0.417000       1.00800           0
     44964 TIP3     6882     TIP3     H2       HT       0.417000       1.00800           0
     44965 TIP3     6883     TIP3     OH2      OT      -0.834000       15.9994           0
     44966 TIP3     6883     TIP3     H1       HT       0.417000       1.00800           0
     44967 TIP3     6883     TIP3     H2       HT       0.417000       1.00800           0
     44968 TIP3     6884     TIP3     OH2      OT      -0.834000       15.9994           0
     44969 TIP3     6884     TIP3     H1       HT       0.417000       1.00800           0
     44970 TIP3     6884     TIP3     H2       HT       0.417000       1.00800           0
     44971 TIP3     6885     TIP3     OH2      OT      -0.834000       15.9994           0
     44972 TIP3     6885     TIP3     H1       HT       0.417000       1.00800           0
     44973 TIP3     6885     TIP3     H2       HT       0.417000       1.00800           0
     44974 TIP3     6886     TIP3     OH2      OT      -0.834000       15.9994           0
     44975 TIP3     6886     TIP3     H1       HT       0.417000       1.00800           0
     44976 TIP3     6886     TIP3     H2       HT       0.417000       1.00800           0
     44977 TIP3     6887     TIP3     OH2      OT      -0.834000       15.9994           0
     44978 TIP3     6887     TIP3     H1       HT       0.417000       1.00800           0
     44979 TIP3     6887     TIP3     H2       HT       0.417000       1.00800           0
     44980 TIP3     6888     TIP3     OH2      OT      -0.834000       15.9994           0
     44981 TIP3     6888     TIP3     H1       HT       0.417000       1.00800           0
     44982 TIP3     6888     TIP3     H2       HT       0.417000       1.00800           0
     44983 TIP3     6889     TIP3     OH2      OT      -0.834000       15.9994           0
     44984 TIP3     6889     TIP3     H1       HT       0.417000       1.00800           0
     44985 TIP3     6889     TIP3     H2       HT       0.417000       1.00800           0
     44986 TIP3     6890     TIP3     OH2      OT      -0.834000       15.9994           0
     44987 TIP3     6890     TIP3     H1       HT       0.417000       1.00800           0
     44988 TIP3     6890     TIP3     H2       HT       0.417000       1.00800           0
     44989 TIP3     6891     TIP3     OH2      OT      -0.834000       15.9994           0
     44990 TIP3     6891     TIP3     H1       HT       0.417000       1.00800           0
     44991 TIP3     6891     TIP3     H2       HT       0.417000       1.00800           0
     44992 TIP3     6892     TIP3     OH2      OT      -0.834000       15.9994           0
     44993 TIP3     6892     TIP3     H1       HT       0.417000       1.00800           0
     44994 TIP3     6892     TIP3     H2       HT       0.417000       1.00800           0
     44995 TIP3     6893     TIP3     OH2      OT      -0.834000       15.9994           0
     44996 TIP3     6893     TIP3     H1       HT       0.417000       1.00800           0
     44997 TIP3     6893     TIP3     H2       HT       0.417000       1.00800           0
     44998 TIP3     6894     TIP3     OH2      OT      -0.834000       15.9994           0
     44999 TIP3     6894     TIP3     H1       HT       0.417000       1.00800           0
     45000 TIP3     6894     TIP3     H2       HT       0.417000       1.00800           0
     45001 TIP3     6895     TIP3     OH2      OT      -0.834000       15.9994           0
     45002 TIP3     6895     TIP3     H1       HT       0.417000       1.00800           0
     45003 TIP3     6895     TIP3     H2       HT       0.417000       1.00800           0
     45004 TIP3     6896     TIP3     OH2      OT      -0.834000       15.9994           0
     45005 TIP3     6896     TIP3     H1       HT       0.417000       1.00800           0
     45006 TIP3     6896     TIP3     H2       HT       0.417000       1.00800           0
     45007 TIP3     6897     TIP3     OH2      OT      -0.834000       15.9994           0
     45008 TIP3     6897     TIP3     H1       HT       0.417000       1.00800           0
     45009 TIP3     6897     TIP3     H2       HT       0.417000       1.00800           0
     45010 TIP3     6898     TIP3     OH2      OT      -0.834000       15.9994           0
     45011 TIP3     6898     TIP3     H1       HT       0.417000       1.00800           0
     45012 TIP3     6898     TIP3     H2       HT       0.417000       1.00800           0
     45013 TIP3     6899     TIP3     OH2      OT      -0.834000       15.9994           0
     45014 TIP3     6899     TIP3     H1       HT       0.417000       1.00800           0
     45015 TIP3     6899     TIP3     H2       HT       0.417000       1.00800           0
     45016 TIP3     6900     TIP3     OH2      OT      -0.834000       15.9994           0
     45017 TIP3     6900     TIP3     H1       HT       0.417000       1.00800           0
     45018 TIP3     6900     TIP3     H2       HT       0.417000       1.00800           0
     45019 TIP3     6901     TIP3     OH2      OT      -0.834000       15.9994           0
     45020 TIP3     6901     TIP3     H1       HT       0.417000       1.00800           0
     45021 TIP3     6901     TIP3     H2       HT       0.417000       1.00800           0
     45022 TIP3     6902     TIP3     OH2      OT      -0.834000       15.9994           0
     45023 TIP3     6902     TIP3     H1       HT       0.417000       1.00800           0
     45024 TIP3     6902     TIP3     H2       HT       0.417000       1.00800           0
     45025 TIP3     6903     TIP3     OH2      OT      -0.834000       15.9994           0
     45026 TIP3     6903     TIP3     H1       HT       0.417000       1.00800           0
     45027 TIP3     6903     TIP3     H2       HT       0.417000       1.00800           0
     45028 TIP3     6904     TIP3     OH2      OT      -0.834000       15.9994           0
     45029 TIP3     6904     TIP3     H1       HT       0.417000       1.00800           0
     45030 TIP3     6904     TIP3     H2       HT       0.417000       1.00800           0
     45031 TIP3     6905     TIP3     OH2      OT      -0.834000       15.9994           0
     45032 TIP3     6905     TIP3     H1       HT       0.417000       1.00800           0
     45033 TIP3     6905     TIP3     H2       HT       0.417000       1.00800           0
     45034 TIP3     6906     TIP3     OH2      OT      -0.834000       15.9994           0
     45035 TIP3     6906     TIP3     H1       HT       0.417000       1.00800           0
     45036 TIP3     6906     TIP3     H2       HT       0.417000       1.00800           0
     45037 TIP3     6907     TIP3     OH2      OT      -0.834000       15.9994           0
     45038 TIP3     6907     TIP3     H1       HT       0.417000       1.00800           0
     45039 TIP3     6907     TIP3     H2       HT       0.417000       1.00800           0
     45040 TIP3     6908     TIP3     OH2      OT      -0.834000       15.9994           0
     45041 TIP3     6908     TIP3     H1       HT       0.417000       1.00800           0
     45042 TIP3     6908     TIP3     H2       HT       0.417000       1.00800           0
     45043 TIP3     6909     TIP3     OH2      OT      -0.834000       15.9994           0
     45044 TIP3     6909     TIP3     H1       HT       0.417000       1.00800           0
     45045 TIP3     6909     TIP3     H2       HT       0.417000       1.00800           0
     45046 TIP3     6910     TIP3     OH2      OT      -0.834000       15.9994           0
     45047 TIP3     6910     TIP3     H1       HT       0.417000       1.00800           0
     45048 TIP3     6910     TIP3     H2       HT       0.417000       1.00800           0
     45049 TIP3     6911     TIP3     OH2      OT      -0.834000       15.9994           0
     45050 TIP3     6911     TIP3     H1       HT       0.417000       1.00800           0
     45051 TIP3     6911     TIP3     H2       HT       0.417000       1.00800           0
     45052 TIP3     6912     TIP3     OH2      OT      -0.834000       15.9994           0
     45053 TIP3     6912     TIP3     H1       HT       0.417000       1.00800           0
     45054 TIP3     6912     TIP3     H2       HT       0.417000       1.00800           0
     45055 TIP3     6913     TIP3     OH2      OT      -0.834000       15.9994           0
     45056 TIP3     6913     TIP3     H1       HT       0.417000       1.00800           0
     45057 TIP3     6913     TIP3     H2       HT       0.417000       1.00800           0
     45058 TIP3     6914     TIP3     OH2      OT      -0.834000       15.9994           0
     45059 TIP3     6914     TIP3     H1       HT       0.417000       1.00800           0
     45060 TIP3     6914     TIP3     H2       HT       0.417000       1.00800           0
     45061 TIP3     6915     TIP3     OH2      OT      -0.834000       15.9994           0
     45062 TIP3     6915     TIP3     H1       HT       0.417000       1.00800           0
     45063 TIP3     6915     TIP3     H2       HT       0.417000       1.00800           0
     45064 TIP3     6916     TIP3     OH2      OT      -0.834000       15.9994           0
     45065 TIP3     6916     TIP3     H1       HT       0.417000       1.00800           0
     45066 TIP3     6916     TIP3     H2       HT       0.417000       1.00800           0
     45067 TIP3     6917     TIP3     OH2      OT      -0.834000       15.9994           0
     45068 TIP3     6917     TIP3     H1       HT       0.417000       1.00800           0
     45069 TIP3     6917     TIP3     H2       HT       0.417000       1.00800           0
     45070 TIP3     6918     TIP3     OH2      OT      -0.834000       15.9994           0
     45071 TIP3     6918     TIP3     H1       HT       0.417000       1.00800           0
     45072 TIP3     6918     TIP3     H2       HT       0.417000       1.00800           0
     45073 TIP3     6919     TIP3     OH2      OT      -0.834000       15.9994           0
     45074 TIP3     6919     TIP3     H1       HT       0.417000       1.00800           0
     45075 TIP3     6919     TIP3     H2       HT       0.417000       1.00800           0
     45076 TIP3     6920     TIP3     OH2      OT      -0.834000       15.9994           0
     45077 TIP3     6920     TIP3     H1       HT       0.417000       1.00800           0
     45078 TIP3     6920     TIP3     H2       HT       0.417000       1.00800           0
     45079 TIP3     6921     TIP3     OH2      OT      -0.834000       15.9994           0
     45080 TIP3     6921     TIP3     H1       HT       0.417000       1.00800           0
     45081 TIP3     6921     TIP3     H2       HT       0.417000       1.00800           0
     45082 TIP3     6922     TIP3     OH2      OT      -0.834000       15.9994           0
     45083 TIP3     6922     TIP3     H1       HT       0.417000       1.00800           0
     45084 TIP3     6922     TIP3     H2       HT       0.417000       1.00800           0
     45085 TIP3     6923     TIP3     OH2      OT      -0.834000       15.9994           0
     45086 TIP3     6923     TIP3     H1       HT       0.417000       1.00800           0
     45087 TIP3     6923     TIP3     H2       HT       0.417000       1.00800           0
     45088 TIP3     6924     TIP3     OH2      OT      -0.834000       15.9994           0
     45089 TIP3     6924     TIP3     H1       HT       0.417000       1.00800           0
     45090 TIP3     6924     TIP3     H2       HT       0.417000       1.00800           0
     45091 TIP3     6925     TIP3     OH2      OT      -0.834000       15.9994           0
     45092 TIP3     6925     TIP3     H1       HT       0.417000       1.00800           0
     45093 TIP3     6925     TIP3     H2       HT       0.417000       1.00800           0
     45094 TIP3     6926     TIP3     OH2      OT      -0.834000       15.9994           0
     45095 TIP3     6926     TIP3     H1       HT       0.417000       1.00800           0
     45096 TIP3     6926     TIP3     H2       HT       0.417000       1.00800           0
     45097 TIP3     6927     TIP3     OH2      OT      -0.834000       15.9994           0
     45098 TIP3     6927     TIP3     H1       HT       0.417000       1.00800           0
     45099 TIP3     6927     TIP3     H2       HT       0.417000       1.00800           0
     45100 TIP3     6928     TIP3     OH2      OT      -0.834000       15.9994           0
     45101 TIP3     6928     TIP3     H1       HT       0.417000       1.00800           0
     45102 TIP3     6928     TIP3     H2       HT       0.417000       1.00800           0
     45103 TIP3     6929     TIP3     OH2      OT      -0.834000       15.9994           0
     45104 TIP3     6929     TIP3     H1       HT       0.417000       1.00800           0
     45105 TIP3     6929     TIP3     H2       HT       0.417000       1.00800           0
     45106 TIP3     6930     TIP3     OH2      OT      -0.834000       15.9994           0
     45107 TIP3     6930     TIP3     H1       HT       0.417000       1.00800           0
     45108 TIP3     6930     TIP3     H2       HT       0.417000       1.00800           0
     45109 TIP3     6931     TIP3     OH2      OT      -0.834000       15.9994           0
     45110 TIP3     6931     TIP3     H1       HT       0.417000       1.00800           0
     45111 TIP3     6931     TIP3     H2       HT       0.417000       1.00800           0
     45112 TIP3     6932     TIP3     OH2      OT      -0.834000       15.9994           0
     45113 TIP3     6932     TIP3     H1       HT       0.417000       1.00800           0
     45114 TIP3     6932     TIP3     H2       HT       0.417000       1.00800           0
     45115 TIP3     6933     TIP3     OH2      OT      -0.834000       15.9994           0
     45116 TIP3     6933     TIP3     H1       HT       0.417000       1.00800           0
     45117 TIP3     6933     TIP3     H2       HT       0.417000       1.00800           0
     45118 TIP3     6934     TIP3     OH2      OT      -0.834000       15.9994           0
     45119 TIP3     6934     TIP3     H1       HT       0.417000       1.00800           0
     45120 TIP3     6934     TIP3     H2       HT       0.417000       1.00800           0
     45121 TIP3     6935     TIP3     OH2      OT      -0.834000       15.9994           0
     45122 TIP3     6935     TIP3     H1       HT       0.417000       1.00800           0
     45123 TIP3     6935     TIP3     H2       HT       0.417000       1.00800           0
     45124 TIP3     6936     TIP3     OH2      OT      -0.834000       15.9994           0
     45125 TIP3     6936     TIP3     H1       HT       0.417000       1.00800           0
     45126 TIP3     6936     TIP3     H2       HT       0.417000       1.00800           0
     45127 TIP3     6937     TIP3     OH2      OT      -0.834000       15.9994           0
     45128 TIP3     6937     TIP3     H1       HT       0.417000       1.00800           0
     45129 TIP3     6937     TIP3     H2       HT       0.417000       1.00800           0
     45130 TIP3     6938     TIP3     OH2      OT      -0.834000       15.9994           0
     45131 TIP3     6938     TIP3     H1       HT       0.417000       1.00800           0
     45132 TIP3     6938     TIP3     H2       HT       0.417000       1.00800           0
     45133 TIP3     6939     TIP3     OH2      OT      -0.834000       15.9994           0
     45134 TIP3     6939     TIP3     H1       HT       0.417000       1.00800           0
     45135 TIP3     6939     TIP3     H2       HT       0.417000       1.00800           0
     45136 TIP3     6940     TIP3     OH2      OT      -0.834000       15.9994           0
     45137 TIP3     6940     TIP3     H1       HT       0.417000       1.00800           0
     45138 TIP3     6940     TIP3     H2       HT       0.417000       1.00800           0
     45139 TIP3     6941     TIP3     OH2      OT      -0.834000       15.9994           0
     45140 TIP3     6941     TIP3     H1       HT       0.417000       1.00800           0
     45141 TIP3     6941     TIP3     H2       HT       0.417000       1.00800           0
     45142 TIP3     6942     TIP3     OH2      OT      -0.834000       15.9994           0
     45143 TIP3     6942     TIP3     H1       HT       0.417000       1.00800           0
     45144 TIP3     6942     TIP3     H2       HT       0.417000       1.00800           0
     45145 TIP3     6943     TIP3     OH2      OT      -0.834000       15.9994           0
     45146 TIP3     6943     TIP3     H1       HT       0.417000       1.00800           0
     45147 TIP3     6943     TIP3     H2       HT       0.417000       1.00800           0
     45148 TIP3     6944     TIP3     OH2      OT      -0.834000       15.9994           0
     45149 TIP3     6944     TIP3     H1       HT       0.417000       1.00800           0
     45150 TIP3     6944     TIP3     H2       HT       0.417000       1.00800           0
     45151 TIP3     6945     TIP3     OH2      OT      -0.834000       15.9994           0
     45152 TIP3     6945     TIP3     H1       HT       0.417000       1.00800           0
     45153 TIP3     6945     TIP3     H2       HT       0.417000       1.00800           0
     45154 TIP3     6946     TIP3     OH2      OT      -0.834000       15.9994           0
     45155 TIP3     6946     TIP3     H1       HT       0.417000       1.00800           0
     45156 TIP3     6946     TIP3     H2       HT       0.417000       1.00800           0
     45157 TIP3     6947     TIP3     OH2      OT      -0.834000       15.9994           0
     45158 TIP3     6947     TIP3     H1       HT       0.417000       1.00800           0
     45159 TIP3     6947     TIP3     H2       HT       0.417000       1.00800           0
     45160 TIP3     6948     TIP3     OH2      OT      -0.834000       15.9994           0
     45161 TIP3     6948     TIP3     H1       HT       0.417000       1.00800           0
     45162 TIP3     6948     TIP3     H2       HT       0.417000       1.00800           0
     45163 TIP3     6949     TIP3     OH2      OT      -0.834000       15.9994           0
     45164 TIP3     6949     TIP3     H1       HT       0.417000       1.00800           0
     45165 TIP3     6949     TIP3     H2       HT       0.417000       1.00800           0
     45166 TIP3     6950     TIP3     OH2      OT      -0.834000       15.9994           0
     45167 TIP3     6950     TIP3     H1       HT       0.417000       1.00800           0
     45168 TIP3     6950     TIP3     H2       HT       0.417000       1.00800           0
     45169 TIP3     6951     TIP3     OH2      OT      -0.834000       15.9994           0
     45170 TIP3     6951     TIP3     H1       HT       0.417000       1.00800           0
     45171 TIP3     6951     TIP3     H2       HT       0.417000       1.00800           0
     45172 TIP3     6952     TIP3     OH2      OT      -0.834000       15.9994           0
     45173 TIP3     6952     TIP3     H1       HT       0.417000       1.00800           0
     45174 TIP3     6952     TIP3     H2       HT       0.417000       1.00800           0
     45175 TIP3     6953     TIP3     OH2      OT      -0.834000       15.9994           0
     45176 TIP3     6953     TIP3     H1       HT       0.417000       1.00800           0
     45177 TIP3     6953     TIP3     H2       HT       0.417000       1.00800           0
     45178 TIP3     6954     TIP3     OH2      OT      -0.834000       15.9994           0
     45179 TIP3     6954     TIP3     H1       HT       0.417000       1.00800           0
     45180 TIP3     6954     TIP3     H2       HT       0.417000       1.00800           0
     45181 TIP3     6955     TIP3     OH2      OT      -0.834000       15.9994           0
     45182 TIP3     6955     TIP3     H1       HT       0.417000       1.00800           0
     45183 TIP3     6955     TIP3     H2       HT       0.417000       1.00800           0
     45184 TIP3     6956     TIP3     OH2      OT      -0.834000       15.9994           0
     45185 TIP3     6956     TIP3     H1       HT       0.417000       1.00800           0
     45186 TIP3     6956     TIP3     H2       HT       0.417000       1.00800           0
     45187 TIP3     6957     TIP3     OH2      OT      -0.834000       15.9994           0
     45188 TIP3     6957     TIP3     H1       HT       0.417000       1.00800           0
     45189 TIP3     6957     TIP3     H2       HT       0.417000       1.00800           0
     45190 TIP3     6958     TIP3     OH2      OT      -0.834000       15.9994           0
     45191 TIP3     6958     TIP3     H1       HT       0.417000       1.00800           0
     45192 TIP3     6958     TIP3     H2       HT       0.417000       1.00800           0
     45193 TIP3     6959     TIP3     OH2      OT      -0.834000       15.9994           0
     45194 TIP3     6959     TIP3     H1       HT       0.417000       1.00800           0
     45195 TIP3     6959     TIP3     H2       HT       0.417000       1.00800           0
     45196 TIP3     6960     TIP3     OH2      OT      -0.834000       15.9994           0
     45197 TIP3     6960     TIP3     H1       HT       0.417000       1.00800           0
     45198 TIP3     6960     TIP3     H2       HT       0.417000       1.00800           0
     45199 TIP3     6961     TIP3     OH2      OT      -0.834000       15.9994           0
     45200 TIP3     6961     TIP3     H1       HT       0.417000       1.00800           0
     45201 TIP3     6961     TIP3     H2       HT       0.417000       1.00800           0
     45202 TIP3     6962     TIP3     OH2      OT      -0.834000       15.9994           0
     45203 TIP3     6962     TIP3     H1       HT       0.417000       1.00800           0
     45204 TIP3     6962     TIP3     H2       HT       0.417000       1.00800           0
     45205 TIP3     6963     TIP3     OH2      OT      -0.834000       15.9994           0
     45206 TIP3     6963     TIP3     H1       HT       0.417000       1.00800           0
     45207 TIP3     6963     TIP3     H2       HT       0.417000       1.00800           0
     45208 TIP3     6964     TIP3     OH2      OT      -0.834000       15.9994           0
     45209 TIP3     6964     TIP3     H1       HT       0.417000       1.00800           0
     45210 TIP3     6964     TIP3     H2       HT       0.417000       1.00800           0
     45211 TIP3     6965     TIP3     OH2      OT      -0.834000       15.9994           0
     45212 TIP3     6965     TIP3     H1       HT       0.417000       1.00800           0
     45213 TIP3     6965     TIP3     H2       HT       0.417000       1.00800           0
     45214 TIP3     6966     TIP3     OH2      OT      -0.834000       15.9994           0
     45215 TIP3     6966     TIP3     H1       HT       0.417000       1.00800           0
     45216 TIP3     6966     TIP3     H2       HT       0.417000       1.00800           0
     45217 TIP3     6967     TIP3     OH2      OT      -0.834000       15.9994           0
     45218 TIP3     6967     TIP3     H1       HT       0.417000       1.00800           0
     45219 TIP3     6967     TIP3     H2       HT       0.417000       1.00800           0
     45220 TIP3     6968     TIP3     OH2      OT      -0.834000       15.9994           0
     45221 TIP3     6968     TIP3     H1       HT       0.417000       1.00800           0
     45222 TIP3     6968     TIP3     H2       HT       0.417000       1.00800           0
     45223 TIP3     6969     TIP3     OH2      OT      -0.834000       15.9994           0
     45224 TIP3     6969     TIP3     H1       HT       0.417000       1.00800           0
     45225 TIP3     6969     TIP3     H2       HT       0.417000       1.00800           0
     45226 TIP3     6970     TIP3     OH2      OT      -0.834000       15.9994           0
     45227 TIP3     6970     TIP3     H1       HT       0.417000       1.00800           0
     45228 TIP3     6970     TIP3     H2       HT       0.417000       1.00800           0
     45229 TIP3     6971     TIP3     OH2      OT      -0.834000       15.9994           0
     45230 TIP3     6971     TIP3     H1       HT       0.417000       1.00800           0
     45231 TIP3     6971     TIP3     H2       HT       0.417000       1.00800           0
     45232 TIP3     6972     TIP3     OH2      OT      -0.834000       15.9994           0
     45233 TIP3     6972     TIP3     H1       HT       0.417000       1.00800           0
     45234 TIP3     6972     TIP3     H2       HT       0.417000       1.00800           0
     45235 TIP3     6973     TIP3     OH2      OT      -0.834000       15.9994           0
     45236 TIP3     6973     TIP3     H1       HT       0.417000       1.00800           0
     45237 TIP3     6973     TIP3     H2       HT       0.417000       1.00800           0
     45238 TIP3     6974     TIP3     OH2      OT      -0.834000       15.9994           0
     45239 TIP3     6974     TIP3     H1       HT       0.417000       1.00800           0
     45240 TIP3     6974     TIP3     H2       HT       0.417000       1.00800           0
     45241 TIP3     6975     TIP3     OH2      OT      -0.834000       15.9994           0
     45242 TIP3     6975     TIP3     H1       HT       0.417000       1.00800           0
     45243 TIP3     6975     TIP3     H2       HT       0.417000       1.00800           0
     45244 TIP3     6976     TIP3     OH2      OT      -0.834000       15.9994           0
     45245 TIP3     6976     TIP3     H1       HT       0.417000       1.00800           0
     45246 TIP3     6976     TIP3     H2       HT       0.417000       1.00800           0
     45247 TIP3     6977     TIP3     OH2      OT      -0.834000       15.9994           0
     45248 TIP3     6977     TIP3     H1       HT       0.417000       1.00800           0
     45249 TIP3     6977     TIP3     H2       HT       0.417000       1.00800           0
     45250 TIP3     6978     TIP3     OH2      OT      -0.834000       15.9994           0
     45251 TIP3     6978     TIP3     H1       HT       0.417000       1.00800           0
     45252 TIP3     6978     TIP3     H2       HT       0.417000       1.00800           0
     45253 TIP3     6979     TIP3     OH2      OT      -0.834000       15.9994           0
     45254 TIP3     6979     TIP3     H1       HT       0.417000       1.00800           0
     45255 TIP3     6979     TIP3     H2       HT       0.417000       1.00800           0
     45256 TIP3     6980     TIP3     OH2      OT      -0.834000       15.9994           0
     45257 TIP3     6980     TIP3     H1       HT       0.417000       1.00800           0
     45258 TIP3     6980     TIP3     H2       HT       0.417000       1.00800           0
     45259 TIP3     6981     TIP3     OH2      OT      -0.834000       15.9994           0
     45260 TIP3     6981     TIP3     H1       HT       0.417000       1.00800           0
     45261 TIP3     6981     TIP3     H2       HT       0.417000       1.00800           0
     45262 TIP3     6982     TIP3     OH2      OT      -0.834000       15.9994           0
     45263 TIP3     6982     TIP3     H1       HT       0.417000       1.00800           0
     45264 TIP3     6982     TIP3     H2       HT       0.417000       1.00800           0
     45265 TIP3     6983     TIP3     OH2      OT      -0.834000       15.9994           0
     45266 TIP3     6983     TIP3     H1       HT       0.417000       1.00800           0
     45267 TIP3     6983     TIP3     H2       HT       0.417000       1.00800           0
     45268 TIP3     6984     TIP3     OH2      OT      -0.834000       15.9994           0
     45269 TIP3     6984     TIP3     H1       HT       0.417000       1.00800           0
     45270 TIP3     6984     TIP3     H2       HT       0.417000       1.00800           0
     45271 TIP3     6985     TIP3     OH2      OT      -0.834000       15.9994           0
     45272 TIP3     6985     TIP3     H1       HT       0.417000       1.00800           0
     45273 TIP3     6985     TIP3     H2       HT       0.417000       1.00800           0
     45274 TIP3     6986     TIP3     OH2      OT      -0.834000       15.9994           0
     45275 TIP3     6986     TIP3     H1       HT       0.417000       1.00800           0
     45276 TIP3     6986     TIP3     H2       HT       0.417000       1.00800           0
     45277 TIP3     6987     TIP3     OH2      OT      -0.834000       15.9994           0
     45278 TIP3     6987     TIP3     H1       HT       0.417000       1.00800           0
     45279 TIP3     6987     TIP3     H2       HT       0.417000       1.00800           0
     45280 TIP3     6988     TIP3     OH2      OT      -0.834000       15.9994           0
     45281 TIP3     6988     TIP3     H1       HT       0.417000       1.00800           0
     45282 TIP3     6988     TIP3     H2       HT       0.417000       1.00800           0
     45283 TIP3     6989     TIP3     OH2      OT      -0.834000       15.9994           0
     45284 TIP3     6989     TIP3     H1       HT       0.417000       1.00800           0
     45285 TIP3     6989     TIP3     H2       HT       0.417000       1.00800           0
     45286 TIP3     6990     TIP3     OH2      OT      -0.834000       15.9994           0
     45287 TIP3     6990     TIP3     H1       HT       0.417000       1.00800           0
     45288 TIP3     6990     TIP3     H2       HT       0.417000       1.00800           0
     45289 TIP3     6991     TIP3     OH2      OT      -0.834000       15.9994           0
     45290 TIP3     6991     TIP3     H1       HT       0.417000       1.00800           0
     45291 TIP3     6991     TIP3     H2       HT       0.417000       1.00800           0
     45292 TIP3     6992     TIP3     OH2      OT      -0.834000       15.9994           0
     45293 TIP3     6992     TIP3     H1       HT       0.417000       1.00800           0
     45294 TIP3     6992     TIP3     H2       HT       0.417000       1.00800           0
     45295 TIP3     6993     TIP3     OH2      OT      -0.834000       15.9994           0
     45296 TIP3     6993     TIP3     H1       HT       0.417000       1.00800           0
     45297 TIP3     6993     TIP3     H2       HT       0.417000       1.00800           0
     45298 TIP3     6994     TIP3     OH2      OT      -0.834000       15.9994           0
     45299 TIP3     6994     TIP3     H1       HT       0.417000       1.00800           0
     45300 TIP3     6994     TIP3     H2       HT       0.417000       1.00800           0
     45301 TIP3     6995     TIP3     OH2      OT      -0.834000       15.9994           0
     45302 TIP3     6995     TIP3     H1       HT       0.417000       1.00800           0
     45303 TIP3     6995     TIP3     H2       HT       0.417000       1.00800           0
     45304 TIP3     6996     TIP3     OH2      OT      -0.834000       15.9994           0
     45305 TIP3     6996     TIP3     H1       HT       0.417000       1.00800           0
     45306 TIP3     6996     TIP3     H2       HT       0.417000       1.00800           0
     45307 TIP3     6997     TIP3     OH2      OT      -0.834000       15.9994           0
     45308 TIP3     6997     TIP3     H1       HT       0.417000       1.00800           0
     45309 TIP3     6997     TIP3     H2       HT       0.417000       1.00800           0
     45310 TIP3     6998     TIP3     OH2      OT      -0.834000       15.9994           0
     45311 TIP3     6998     TIP3     H1       HT       0.417000       1.00800           0
     45312 TIP3     6998     TIP3     H2       HT       0.417000       1.00800           0
     45313 TIP3     6999     TIP3     OH2      OT      -0.834000       15.9994           0
     45314 TIP3     6999     TIP3     H1       HT       0.417000       1.00800           0
     45315 TIP3     6999     TIP3     H2       HT       0.417000       1.00800           0
     45316 TIP3     7000     TIP3     OH2      OT      -0.834000       15.9994           0
     45317 TIP3     7000     TIP3     H1       HT       0.417000       1.00800           0
     45318 TIP3     7000     TIP3     H2       HT       0.417000       1.00800           0
     45319 TIP3     7001     TIP3     OH2      OT      -0.834000       15.9994           0
     45320 TIP3     7001     TIP3     H1       HT       0.417000       1.00800           0
     45321 TIP3     7001     TIP3     H2       HT       0.417000       1.00800           0
     45322 TIP3     7002     TIP3     OH2      OT      -0.834000       15.9994           0
     45323 TIP3     7002     TIP3     H1       HT       0.417000       1.00800           0
     45324 TIP3     7002     TIP3     H2       HT       0.417000       1.00800           0
     45325 TIP3     7003     TIP3     OH2      OT      -0.834000       15.9994           0
     45326 TIP3     7003     TIP3     H1       HT       0.417000       1.00800           0
     45327 TIP3     7003     TIP3     H2       HT       0.417000       1.00800           0
     45328 TIP3     7004     TIP3     OH2      OT      -0.834000       15.9994           0
     45329 TIP3     7004     TIP3     H1       HT       0.417000       1.00800           0
     45330 TIP3     7004     TIP3     H2       HT       0.417000       1.00800           0
     45331 TIP3     7005     TIP3     OH2      OT      -0.834000       15.9994           0
     45332 TIP3     7005     TIP3     H1       HT       0.417000       1.00800           0
     45333 TIP3     7005     TIP3     H2       HT       0.417000       1.00800           0
     45334 TIP3     7006     TIP3     OH2      OT      -0.834000       15.9994           0
     45335 TIP3     7006     TIP3     H1       HT       0.417000       1.00800           0
     45336 TIP3     7006     TIP3     H2       HT       0.417000       1.00800           0
     45337 TIP3     7007     TIP3     OH2      OT      -0.834000       15.9994           0
     45338 TIP3     7007     TIP3     H1       HT       0.417000       1.00800           0
     45339 TIP3     7007     TIP3     H2       HT       0.417000       1.00800           0
     45340 TIP3     7008     TIP3     OH2      OT      -0.834000       15.9994           0
     45341 TIP3     7008     TIP3     H1       HT       0.417000       1.00800           0
     45342 TIP3     7008     TIP3     H2       HT       0.417000       1.00800           0
     45343 TIP3     7009     TIP3     OH2      OT      -0.834000       15.9994           0
     45344 TIP3     7009     TIP3     H1       HT       0.417000       1.00800           0
     45345 TIP3     7009     TIP3     H2       HT       0.417000       1.00800           0
     45346 TIP3     7010     TIP3     OH2      OT      -0.834000       15.9994           0
     45347 TIP3     7010     TIP3     H1       HT       0.417000       1.00800           0
     45348 TIP3     7010     TIP3     H2       HT       0.417000       1.00800           0
     45349 TIP3     7011     TIP3     OH2      OT      -0.834000       15.9994           0
     45350 TIP3     7011     TIP3     H1       HT       0.417000       1.00800           0
     45351 TIP3     7011     TIP3     H2       HT       0.417000       1.00800           0
     45352 TIP3     7012     TIP3     OH2      OT      -0.834000       15.9994           0
     45353 TIP3     7012     TIP3     H1       HT       0.417000       1.00800           0
     45354 TIP3     7012     TIP3     H2       HT       0.417000       1.00800           0
     45355 TIP3     7013     TIP3     OH2      OT      -0.834000       15.9994           0
     45356 TIP3     7013     TIP3     H1       HT       0.417000       1.00800           0
     45357 TIP3     7013     TIP3     H2       HT       0.417000       1.00800           0
     45358 TIP3     7014     TIP3     OH2      OT      -0.834000       15.9994           0
     45359 TIP3     7014     TIP3     H1       HT       0.417000       1.00800           0
     45360 TIP3     7014     TIP3     H2       HT       0.417000       1.00800           0
     45361 TIP3     7015     TIP3     OH2      OT      -0.834000       15.9994           0
     45362 TIP3     7015     TIP3     H1       HT       0.417000       1.00800           0
     45363 TIP3     7015     TIP3     H2       HT       0.417000       1.00800           0
     45364 TIP3     7016     TIP3     OH2      OT      -0.834000       15.9994           0
     45365 TIP3     7016     TIP3     H1       HT       0.417000       1.00800           0
     45366 TIP3     7016     TIP3     H2       HT       0.417000       1.00800           0
     45367 TIP3     7017     TIP3     OH2      OT      -0.834000       15.9994           0
     45368 TIP3     7017     TIP3     H1       HT       0.417000       1.00800           0
     45369 TIP3     7017     TIP3     H2       HT       0.417000       1.00800           0
     45370 TIP3     7018     TIP3     OH2      OT      -0.834000       15.9994           0
     45371 TIP3     7018     TIP3     H1       HT       0.417000       1.00800           0
     45372 TIP3     7018     TIP3     H2       HT       0.417000       1.00800           0
     45373 TIP3     7019     TIP3     OH2      OT      -0.834000       15.9994           0
     45374 TIP3     7019     TIP3     H1       HT       0.417000       1.00800           0
     45375 TIP3     7019     TIP3     H2       HT       0.417000       1.00800           0
     45376 TIP3     7020     TIP3     OH2      OT      -0.834000       15.9994           0
     45377 TIP3     7020     TIP3     H1       HT       0.417000       1.00800           0
     45378 TIP3     7020     TIP3     H2       HT       0.417000       1.00800           0
     45379 TIP3     7021     TIP3     OH2      OT      -0.834000       15.9994           0
     45380 TIP3     7021     TIP3     H1       HT       0.417000       1.00800           0
     45381 TIP3     7021     TIP3     H2       HT       0.417000       1.00800           0
     45382 TIP3     7022     TIP3     OH2      OT      -0.834000       15.9994           0
     45383 TIP3     7022     TIP3     H1       HT       0.417000       1.00800           0
     45384 TIP3     7022     TIP3     H2       HT       0.417000       1.00800           0
     45385 TIP3     7023     TIP3     OH2      OT      -0.834000       15.9994           0
     45386 TIP3     7023     TIP3     H1       HT       0.417000       1.00800           0
     45387 TIP3     7023     TIP3     H2       HT       0.417000       1.00800           0
     45388 TIP3     7024     TIP3     OH2      OT      -0.834000       15.9994           0
     45389 TIP3     7024     TIP3     H1       HT       0.417000       1.00800           0
     45390 TIP3     7024     TIP3     H2       HT       0.417000       1.00800           0
     45391 TIP3     7025     TIP3     OH2      OT      -0.834000       15.9994           0
     45392 TIP3     7025     TIP3     H1       HT       0.417000       1.00800           0
     45393 TIP3     7025     TIP3     H2       HT       0.417000       1.00800           0
     45394 TIP3     7026     TIP3     OH2      OT      -0.834000       15.9994           0
     45395 TIP3     7026     TIP3     H1       HT       0.417000       1.00800           0
     45396 TIP3     7026     TIP3     H2       HT       0.417000       1.00800           0
     45397 TIP3     7027     TIP3     OH2      OT      -0.834000       15.9994           0
     45398 TIP3     7027     TIP3     H1       HT       0.417000       1.00800           0
     45399 TIP3     7027     TIP3     H2       HT       0.417000       1.00800           0
     45400 TIP3     7028     TIP3     OH2      OT      -0.834000       15.9994           0
     45401 TIP3     7028     TIP3     H1       HT       0.417000       1.00800           0
     45402 TIP3     7028     TIP3     H2       HT       0.417000       1.00800           0
     45403 TIP3     7029     TIP3     OH2      OT      -0.834000       15.9994           0
     45404 TIP3     7029     TIP3     H1       HT       0.417000       1.00800           0
     45405 TIP3     7029     TIP3     H2       HT       0.417000       1.00800           0
     45406 TIP3     7030     TIP3     OH2      OT      -0.834000       15.9994           0
     45407 TIP3     7030     TIP3     H1       HT       0.417000       1.00800           0
     45408 TIP3     7030     TIP3     H2       HT       0.417000       1.00800           0
     45409 TIP3     7031     TIP3     OH2      OT      -0.834000       15.9994           0
     45410 TIP3     7031     TIP3     H1       HT       0.417000       1.00800           0
     45411 TIP3     7031     TIP3     H2       HT       0.417000       1.00800           0
     45412 TIP3     7032     TIP3     OH2      OT      -0.834000       15.9994           0
     45413 TIP3     7032     TIP3     H1       HT       0.417000       1.00800           0
     45414 TIP3     7032     TIP3     H2       HT       0.417000       1.00800           0
     45415 TIP3     7033     TIP3     OH2      OT      -0.834000       15.9994           0
     45416 TIP3     7033     TIP3     H1       HT       0.417000       1.00800           0
     45417 TIP3     7033     TIP3     H2       HT       0.417000       1.00800           0
     45418 TIP3     7034     TIP3     OH2      OT      -0.834000       15.9994           0
     45419 TIP3     7034     TIP3     H1       HT       0.417000       1.00800           0
     45420 TIP3     7034     TIP3     H2       HT       0.417000       1.00800           0
     45421 TIP3     7035     TIP3     OH2      OT      -0.834000       15.9994           0
     45422 TIP3     7035     TIP3     H1       HT       0.417000       1.00800           0
     45423 TIP3     7035     TIP3     H2       HT       0.417000       1.00800           0
     45424 TIP3     7036     TIP3     OH2      OT      -0.834000       15.9994           0
     45425 TIP3     7036     TIP3     H1       HT       0.417000       1.00800           0
     45426 TIP3     7036     TIP3     H2       HT       0.417000       1.00800           0
     45427 TIP3     7037     TIP3     OH2      OT      -0.834000       15.9994           0
     45428 TIP3     7037     TIP3     H1       HT       0.417000       1.00800           0
     45429 TIP3     7037     TIP3     H2       HT       0.417000       1.00800           0
     45430 TIP3     7038     TIP3     OH2      OT      -0.834000       15.9994           0
     45431 TIP3     7038     TIP3     H1       HT       0.417000       1.00800           0
     45432 TIP3     7038     TIP3     H2       HT       0.417000       1.00800           0
     45433 TIP3     7039     TIP3     OH2      OT      -0.834000       15.9994           0
     45434 TIP3     7039     TIP3     H1       HT       0.417000       1.00800           0
     45435 TIP3     7039     TIP3     H2       HT       0.417000       1.00800           0
     45436 TIP3     7040     TIP3     OH2      OT      -0.834000       15.9994           0
     45437 TIP3     7040     TIP3     H1       HT       0.417000       1.00800           0
     45438 TIP3     7040     TIP3     H2       HT       0.417000       1.00800           0
     45439 TIP3     7041     TIP3     OH2      OT      -0.834000       15.9994           0
     45440 TIP3     7041     TIP3     H1       HT       0.417000       1.00800           0
     45441 TIP3     7041     TIP3     H2       HT       0.417000       1.00800           0
     45442 TIP3     7042     TIP3     OH2      OT      -0.834000       15.9994           0
     45443 TIP3     7042     TIP3     H1       HT       0.417000       1.00800           0
     45444 TIP3     7042     TIP3     H2       HT       0.417000       1.00800           0
     45445 TIP3     7043     TIP3     OH2      OT      -0.834000       15.9994           0
     45446 TIP3     7043     TIP3     H1       HT       0.417000       1.00800           0
     45447 TIP3     7043     TIP3     H2       HT       0.417000       1.00800           0
     45448 TIP3     7044     TIP3     OH2      OT      -0.834000       15.9994           0
     45449 TIP3     7044     TIP3     H1       HT       0.417000       1.00800           0
     45450 TIP3     7044     TIP3     H2       HT       0.417000       1.00800           0
     45451 TIP3     7045     TIP3     OH2      OT      -0.834000       15.9994           0
     45452 TIP3     7045     TIP3     H1       HT       0.417000       1.00800           0
     45453 TIP3     7045     TIP3     H2       HT       0.417000       1.00800           0
     45454 TIP3     7046     TIP3     OH2      OT      -0.834000       15.9994           0
     45455 TIP3     7046     TIP3     H1       HT       0.417000       1.00800           0
     45456 TIP3     7046     TIP3     H2       HT       0.417000       1.00800           0
     45457 TIP3     7047     TIP3     OH2      OT      -0.834000       15.9994           0
     45458 TIP3     7047     TIP3     H1       HT       0.417000       1.00800           0
     45459 TIP3     7047     TIP3     H2       HT       0.417000       1.00800           0
     45460 TIP3     7048     TIP3     OH2      OT      -0.834000       15.9994           0
     45461 TIP3     7048     TIP3     H1       HT       0.417000       1.00800           0
     45462 TIP3     7048     TIP3     H2       HT       0.417000       1.00800           0
     45463 TIP3     7049     TIP3     OH2      OT      -0.834000       15.9994           0
     45464 TIP3     7049     TIP3     H1       HT       0.417000       1.00800           0
     45465 TIP3     7049     TIP3     H2       HT       0.417000       1.00800           0
     45466 TIP3     7050     TIP3     OH2      OT      -0.834000       15.9994           0
     45467 TIP3     7050     TIP3     H1       HT       0.417000       1.00800           0
     45468 TIP3     7050     TIP3     H2       HT       0.417000       1.00800           0
     45469 TIP3     7051     TIP3     OH2      OT      -0.834000       15.9994           0
     45470 TIP3     7051     TIP3     H1       HT       0.417000       1.00800           0
     45471 TIP3     7051     TIP3     H2       HT       0.417000       1.00800           0
     45472 TIP3     7052     TIP3     OH2      OT      -0.834000       15.9994           0
     45473 TIP3     7052     TIP3     H1       HT       0.417000       1.00800           0
     45474 TIP3     7052     TIP3     H2       HT       0.417000       1.00800           0
     45475 TIP3     7053     TIP3     OH2      OT      -0.834000       15.9994           0
     45476 TIP3     7053     TIP3     H1       HT       0.417000       1.00800           0
     45477 TIP3     7053     TIP3     H2       HT       0.417000       1.00800           0
     45478 TIP3     7054     TIP3     OH2      OT      -0.834000       15.9994           0
     45479 TIP3     7054     TIP3     H1       HT       0.417000       1.00800           0
     45480 TIP3     7054     TIP3     H2       HT       0.417000       1.00800           0
     45481 TIP3     7055     TIP3     OH2      OT      -0.834000       15.9994           0
     45482 TIP3     7055     TIP3     H1       HT       0.417000       1.00800           0
     45483 TIP3     7055     TIP3     H2       HT       0.417000       1.00800           0
     45484 TIP3     7056     TIP3     OH2      OT      -0.834000       15.9994           0
     45485 TIP3     7056     TIP3     H1       HT       0.417000       1.00800           0
     45486 TIP3     7056     TIP3     H2       HT       0.417000       1.00800           0
     45487 TIP3     7057     TIP3     OH2      OT      -0.834000       15.9994           0
     45488 TIP3     7057     TIP3     H1       HT       0.417000       1.00800           0
     45489 TIP3     7057     TIP3     H2       HT       0.417000       1.00800           0
     45490 TIP3     7058     TIP3     OH2      OT      -0.834000       15.9994           0
     45491 TIP3     7058     TIP3     H1       HT       0.417000       1.00800           0
     45492 TIP3     7058     TIP3     H2       HT       0.417000       1.00800           0
     45493 TIP3     7059     TIP3     OH2      OT      -0.834000       15.9994           0
     45494 TIP3     7059     TIP3     H1       HT       0.417000       1.00800           0
     45495 TIP3     7059     TIP3     H2       HT       0.417000       1.00800           0
     45496 TIP3     7060     TIP3     OH2      OT      -0.834000       15.9994           0
     45497 TIP3     7060     TIP3     H1       HT       0.417000       1.00800           0
     45498 TIP3     7060     TIP3     H2       HT       0.417000       1.00800           0
     45499 TIP3     7061     TIP3     OH2      OT      -0.834000       15.9994           0
     45500 TIP3     7061     TIP3     H1       HT       0.417000       1.00800           0
     45501 TIP3     7061     TIP3     H2       HT       0.417000       1.00800           0
     45502 TIP3     7062     TIP3     OH2      OT      -0.834000       15.9994           0
     45503 TIP3     7062     TIP3     H1       HT       0.417000       1.00800           0
     45504 TIP3     7062     TIP3     H2       HT       0.417000       1.00800           0
     45505 TIP3     7063     TIP3     OH2      OT      -0.834000       15.9994           0
     45506 TIP3     7063     TIP3     H1       HT       0.417000       1.00800           0
     45507 TIP3     7063     TIP3     H2       HT       0.417000       1.00800           0
     45508 TIP3     7064     TIP3     OH2      OT      -0.834000       15.9994           0
     45509 TIP3     7064     TIP3     H1       HT       0.417000       1.00800           0
     45510 TIP3     7064     TIP3     H2       HT       0.417000       1.00800           0
     45511 TIP3     7065     TIP3     OH2      OT      -0.834000       15.9994           0
     45512 TIP3     7065     TIP3     H1       HT       0.417000       1.00800           0
     45513 TIP3     7065     TIP3     H2       HT       0.417000       1.00800           0
     45514 TIP3     7066     TIP3     OH2      OT      -0.834000       15.9994           0
     45515 TIP3     7066     TIP3     H1       HT       0.417000       1.00800           0
     45516 TIP3     7066     TIP3     H2       HT       0.417000       1.00800           0
     45517 TIP3     7067     TIP3     OH2      OT      -0.834000       15.9994           0
     45518 TIP3     7067     TIP3     H1       HT       0.417000       1.00800           0
     45519 TIP3     7067     TIP3     H2       HT       0.417000       1.00800           0
     45520 TIP3     7068     TIP3     OH2      OT      -0.834000       15.9994           0
     45521 TIP3     7068     TIP3     H1       HT       0.417000       1.00800           0
     45522 TIP3     7068     TIP3     H2       HT       0.417000       1.00800           0
     45523 TIP3     7069     TIP3     OH2      OT      -0.834000       15.9994           0
     45524 TIP3     7069     TIP3     H1       HT       0.417000       1.00800           0
     45525 TIP3     7069     TIP3     H2       HT       0.417000       1.00800           0
     45526 TIP3     7070     TIP3     OH2      OT      -0.834000       15.9994           0
     45527 TIP3     7070     TIP3     H1       HT       0.417000       1.00800           0
     45528 TIP3     7070     TIP3     H2       HT       0.417000       1.00800           0
     45529 TIP3     7071     TIP3     OH2      OT      -0.834000       15.9994           0
     45530 TIP3     7071     TIP3     H1       HT       0.417000       1.00800           0
     45531 TIP3     7071     TIP3     H2       HT       0.417000       1.00800           0
     45532 TIP3     7072     TIP3     OH2      OT      -0.834000       15.9994           0
     45533 TIP3     7072     TIP3     H1       HT       0.417000       1.00800           0
     45534 TIP3     7072     TIP3     H2       HT       0.417000       1.00800           0
     45535 TIP3     7073     TIP3     OH2      OT      -0.834000       15.9994           0
     45536 TIP3     7073     TIP3     H1       HT       0.417000       1.00800           0
     45537 TIP3     7073     TIP3     H2       HT       0.417000       1.00800           0
     45538 TIP3     7074     TIP3     OH2      OT      -0.834000       15.9994           0
     45539 TIP3     7074     TIP3     H1       HT       0.417000       1.00800           0
     45540 TIP3     7074     TIP3     H2       HT       0.417000       1.00800           0
     45541 TIP3     7075     TIP3     OH2      OT      -0.834000       15.9994           0
     45542 TIP3     7075     TIP3     H1       HT       0.417000       1.00800           0
     45543 TIP3     7075     TIP3     H2       HT       0.417000       1.00800           0
     45544 TIP3     7076     TIP3     OH2      OT      -0.834000       15.9994           0
     45545 TIP3     7076     TIP3     H1       HT       0.417000       1.00800           0
     45546 TIP3     7076     TIP3     H2       HT       0.417000       1.00800           0
     45547 TIP3     7077     TIP3     OH2      OT      -0.834000       15.9994           0
     45548 TIP3     7077     TIP3     H1       HT       0.417000       1.00800           0
     45549 TIP3     7077     TIP3     H2       HT       0.417000       1.00800           0
     45550 TIP3     7078     TIP3     OH2      OT      -0.834000       15.9994           0
     45551 TIP3     7078     TIP3     H1       HT       0.417000       1.00800           0
     45552 TIP3     7078     TIP3     H2       HT       0.417000       1.00800           0
     45553 TIP3     7079     TIP3     OH2      OT      -0.834000       15.9994           0
     45554 TIP3     7079     TIP3     H1       HT       0.417000       1.00800           0
     45555 TIP3     7079     TIP3     H2       HT       0.417000       1.00800           0
     45556 TIP3     7080     TIP3     OH2      OT      -0.834000       15.9994           0
     45557 TIP3     7080     TIP3     H1       HT       0.417000       1.00800           0
     45558 TIP3     7080     TIP3     H2       HT       0.417000       1.00800           0
     45559 TIP3     7081     TIP3     OH2      OT      -0.834000       15.9994           0
     45560 TIP3     7081     TIP3     H1       HT       0.417000       1.00800           0
     45561 TIP3     7081     TIP3     H2       HT       0.417000       1.00800           0
     45562 TIP3     7082     TIP3     OH2      OT      -0.834000       15.9994           0
     45563 TIP3     7082     TIP3     H1       HT       0.417000       1.00800           0
     45564 TIP3     7082     TIP3     H2       HT       0.417000       1.00800           0
     45565 TIP3     7083     TIP3     OH2      OT      -0.834000       15.9994           0
     45566 TIP3     7083     TIP3     H1       HT       0.417000       1.00800           0
     45567 TIP3     7083     TIP3     H2       HT       0.417000       1.00800           0
     45568 TIP3     7084     TIP3     OH2      OT      -0.834000       15.9994           0
     45569 TIP3     7084     TIP3     H1       HT       0.417000       1.00800           0
     45570 TIP3     7084     TIP3     H2       HT       0.417000       1.00800           0
     45571 TIP3     7085     TIP3     OH2      OT      -0.834000       15.9994           0
     45572 TIP3     7085     TIP3     H1       HT       0.417000       1.00800           0
     45573 TIP3     7085     TIP3     H2       HT       0.417000       1.00800           0
     45574 TIP3     7086     TIP3     OH2      OT      -0.834000       15.9994           0
     45575 TIP3     7086     TIP3     H1       HT       0.417000       1.00800           0
     45576 TIP3     7086     TIP3     H2       HT       0.417000       1.00800           0
     45577 TIP3     7087     TIP3     OH2      OT      -0.834000       15.9994           0
     45578 TIP3     7087     TIP3     H1       HT       0.417000       1.00800           0
     45579 TIP3     7087     TIP3     H2       HT       0.417000       1.00800           0
     45580 TIP3     7088     TIP3     OH2      OT      -0.834000       15.9994           0
     45581 TIP3     7088     TIP3     H1       HT       0.417000       1.00800           0
     45582 TIP3     7088     TIP3     H2       HT       0.417000       1.00800           0
     45583 TIP3     7089     TIP3     OH2      OT      -0.834000       15.9994           0
     45584 TIP3     7089     TIP3     H1       HT       0.417000       1.00800           0
     45585 TIP3     7089     TIP3     H2       HT       0.417000       1.00800           0
     45586 TIP3     7090     TIP3     OH2      OT      -0.834000       15.9994           0
     45587 TIP3     7090     TIP3     H1       HT       0.417000       1.00800           0
     45588 TIP3     7090     TIP3     H2       HT       0.417000       1.00800           0
     45589 TIP3     7091     TIP3     OH2      OT      -0.834000       15.9994           0
     45590 TIP3     7091     TIP3     H1       HT       0.417000       1.00800           0
     45591 TIP3     7091     TIP3     H2       HT       0.417000       1.00800           0
     45592 TIP3     7092     TIP3     OH2      OT      -0.834000       15.9994           0
     45593 TIP3     7092     TIP3     H1       HT       0.417000       1.00800           0
     45594 TIP3     7092     TIP3     H2       HT       0.417000       1.00800           0
     45595 TIP3     7093     TIP3     OH2      OT      -0.834000       15.9994           0
     45596 TIP3     7093     TIP3     H1       HT       0.417000       1.00800           0
     45597 TIP3     7093     TIP3     H2       HT       0.417000       1.00800           0
     45598 TIP3     7094     TIP3     OH2      OT      -0.834000       15.9994           0
     45599 TIP3     7094     TIP3     H1       HT       0.417000       1.00800           0
     45600 TIP3     7094     TIP3     H2       HT       0.417000       1.00800           0
     45601 TIP3     7095     TIP3     OH2      OT      -0.834000       15.9994           0
     45602 TIP3     7095     TIP3     H1       HT       0.417000       1.00800           0
     45603 TIP3     7095     TIP3     H2       HT       0.417000       1.00800           0
     45604 TIP3     7096     TIP3     OH2      OT      -0.834000       15.9994           0
     45605 TIP3     7096     TIP3     H1       HT       0.417000       1.00800           0
     45606 TIP3     7096     TIP3     H2       HT       0.417000       1.00800           0
     45607 TIP3     7097     TIP3     OH2      OT      -0.834000       15.9994           0
     45608 TIP3     7097     TIP3     H1       HT       0.417000       1.00800           0
     45609 TIP3     7097     TIP3     H2       HT       0.417000       1.00800           0
     45610 TIP3     7098     TIP3     OH2      OT      -0.834000       15.9994           0
     45611 TIP3     7098     TIP3     H1       HT       0.417000       1.00800           0
     45612 TIP3     7098     TIP3     H2       HT       0.417000       1.00800           0
     45613 TIP3     7099     TIP3     OH2      OT      -0.834000       15.9994           0
     45614 TIP3     7099     TIP3     H1       HT       0.417000       1.00800           0
     45615 TIP3     7099     TIP3     H2       HT       0.417000       1.00800           0
     45616 TIP3     7100     TIP3     OH2      OT      -0.834000       15.9994           0
     45617 TIP3     7100     TIP3     H1       HT       0.417000       1.00800           0
     45618 TIP3     7100     TIP3     H2       HT       0.417000       1.00800           0
     45619 TIP3     7101     TIP3     OH2      OT      -0.834000       15.9994           0
     45620 TIP3     7101     TIP3     H1       HT       0.417000       1.00800           0
     45621 TIP3     7101     TIP3     H2       HT       0.417000       1.00800           0
     45622 TIP3     7102     TIP3     OH2      OT      -0.834000       15.9994           0
     45623 TIP3     7102     TIP3     H1       HT       0.417000       1.00800           0
     45624 TIP3     7102     TIP3     H2       HT       0.417000       1.00800           0
     45625 TIP3     7103     TIP3     OH2      OT      -0.834000       15.9994           0
     45626 TIP3     7103     TIP3     H1       HT       0.417000       1.00800           0
     45627 TIP3     7103     TIP3     H2       HT       0.417000       1.00800           0
     45628 TIP3     7104     TIP3     OH2      OT      -0.834000       15.9994           0
     45629 TIP3     7104     TIP3     H1       HT       0.417000       1.00800           0
     45630 TIP3     7104     TIP3     H2       HT       0.417000       1.00800           0
     45631 TIP3     7105     TIP3     OH2      OT      -0.834000       15.9994           0
     45632 TIP3     7105     TIP3     H1       HT       0.417000       1.00800           0
     45633 TIP3     7105     TIP3     H2       HT       0.417000       1.00800           0
     45634 TIP3     7106     TIP3     OH2      OT      -0.834000       15.9994           0
     45635 TIP3     7106     TIP3     H1       HT       0.417000       1.00800           0
     45636 TIP3     7106     TIP3     H2       HT       0.417000       1.00800           0
     45637 TIP3     7107     TIP3     OH2      OT      -0.834000       15.9994           0
     45638 TIP3     7107     TIP3     H1       HT       0.417000       1.00800           0
     45639 TIP3     7107     TIP3     H2       HT       0.417000       1.00800           0
     45640 TIP3     7108     TIP3     OH2      OT      -0.834000       15.9994           0
     45641 TIP3     7108     TIP3     H1       HT       0.417000       1.00800           0
     45642 TIP3     7108     TIP3     H2       HT       0.417000       1.00800           0
     45643 TIP3     7109     TIP3     OH2      OT      -0.834000       15.9994           0
     45644 TIP3     7109     TIP3     H1       HT       0.417000       1.00800           0
     45645 TIP3     7109     TIP3     H2       HT       0.417000       1.00800           0
     45646 TIP3     7110     TIP3     OH2      OT      -0.834000       15.9994           0
     45647 TIP3     7110     TIP3     H1       HT       0.417000       1.00800           0
     45648 TIP3     7110     TIP3     H2       HT       0.417000       1.00800           0
     45649 TIP3     7111     TIP3     OH2      OT      -0.834000       15.9994           0
     45650 TIP3     7111     TIP3     H1       HT       0.417000       1.00800           0
     45651 TIP3     7111     TIP3     H2       HT       0.417000       1.00800           0
     45652 TIP3     7112     TIP3     OH2      OT      -0.834000       15.9994           0
     45653 TIP3     7112     TIP3     H1       HT       0.417000       1.00800           0
     45654 TIP3     7112     TIP3     H2       HT       0.417000       1.00800           0
     45655 TIP3     7113     TIP3     OH2      OT      -0.834000       15.9994           0
     45656 TIP3     7113     TIP3     H1       HT       0.417000       1.00800           0
     45657 TIP3     7113     TIP3     H2       HT       0.417000       1.00800           0
     45658 TIP3     7114     TIP3     OH2      OT      -0.834000       15.9994           0
     45659 TIP3     7114     TIP3     H1       HT       0.417000       1.00800           0
     45660 TIP3     7114     TIP3     H2       HT       0.417000       1.00800           0
     45661 TIP3     7115     TIP3     OH2      OT      -0.834000       15.9994           0
     45662 TIP3     7115     TIP3     H1       HT       0.417000       1.00800           0
     45663 TIP3     7115     TIP3     H2       HT       0.417000       1.00800           0
     45664 TIP3     7116     TIP3     OH2      OT      -0.834000       15.9994           0
     45665 TIP3     7116     TIP3     H1       HT       0.417000       1.00800           0
     45666 TIP3     7116     TIP3     H2       HT       0.417000       1.00800           0
     45667 TIP3     7117     TIP3     OH2      OT      -0.834000       15.9994           0
     45668 TIP3     7117     TIP3     H1       HT       0.417000       1.00800           0
     45669 TIP3     7117     TIP3     H2       HT       0.417000       1.00800           0
     45670 TIP3     7118     TIP3     OH2      OT      -0.834000       15.9994           0
     45671 TIP3     7118     TIP3     H1       HT       0.417000       1.00800           0
     45672 TIP3     7118     TIP3     H2       HT       0.417000       1.00800           0
     45673 TIP3     7119     TIP3     OH2      OT      -0.834000       15.9994           0
     45674 TIP3     7119     TIP3     H1       HT       0.417000       1.00800           0
     45675 TIP3     7119     TIP3     H2       HT       0.417000       1.00800           0
     45676 TIP3     7120     TIP3     OH2      OT      -0.834000       15.9994           0
     45677 TIP3     7120     TIP3     H1       HT       0.417000       1.00800           0
     45678 TIP3     7120     TIP3     H2       HT       0.417000       1.00800           0
     45679 TIP3     7121     TIP3     OH2      OT      -0.834000       15.9994           0
     45680 TIP3     7121     TIP3     H1       HT       0.417000       1.00800           0
     45681 TIP3     7121     TIP3     H2       HT       0.417000       1.00800           0
     45682 TIP3     7122     TIP3     OH2      OT      -0.834000       15.9994           0
     45683 TIP3     7122     TIP3     H1       HT       0.417000       1.00800           0
     45684 TIP3     7122     TIP3     H2       HT       0.417000       1.00800           0
     45685 TIP3     7123     TIP3     OH2      OT      -0.834000       15.9994           0
     45686 TIP3     7123     TIP3     H1       HT       0.417000       1.00800           0
     45687 TIP3     7123     TIP3     H2       HT       0.417000       1.00800           0
     45688 TIP3     7124     TIP3     OH2      OT      -0.834000       15.9994           0
     45689 TIP3     7124     TIP3     H1       HT       0.417000       1.00800           0
     45690 TIP3     7124     TIP3     H2       HT       0.417000       1.00800           0
     45691 TIP3     7125     TIP3     OH2      OT      -0.834000       15.9994           0
     45692 TIP3     7125     TIP3     H1       HT       0.417000       1.00800           0
     45693 TIP3     7125     TIP3     H2       HT       0.417000       1.00800           0
     45694 TIP3     7126     TIP3     OH2      OT      -0.834000       15.9994           0
     45695 TIP3     7126     TIP3     H1       HT       0.417000       1.00800           0
     45696 TIP3     7126     TIP3     H2       HT       0.417000       1.00800           0
     45697 TIP3     7127     TIP3     OH2      OT      -0.834000       15.9994           0
     45698 TIP3     7127     TIP3     H1       HT       0.417000       1.00800           0
     45699 TIP3     7127     TIP3     H2       HT       0.417000       1.00800           0
     45700 TIP3     7128     TIP3     OH2      OT      -0.834000       15.9994           0
     45701 TIP3     7128     TIP3     H1       HT       0.417000       1.00800           0
     45702 TIP3     7128     TIP3     H2       HT       0.417000       1.00800           0
     45703 TIP3     7129     TIP3     OH2      OT      -0.834000       15.9994           0
     45704 TIP3     7129     TIP3     H1       HT       0.417000       1.00800           0
     45705 TIP3     7129     TIP3     H2       HT       0.417000       1.00800           0
     45706 TIP3     7130     TIP3     OH2      OT      -0.834000       15.9994           0
     45707 TIP3     7130     TIP3     H1       HT       0.417000       1.00800           0
     45708 TIP3     7130     TIP3     H2       HT       0.417000       1.00800           0
     45709 TIP3     7131     TIP3     OH2      OT      -0.834000       15.9994           0
     45710 TIP3     7131     TIP3     H1       HT       0.417000       1.00800           0
     45711 TIP3     7131     TIP3     H2       HT       0.417000       1.00800           0
     45712 TIP3     7132     TIP3     OH2      OT      -0.834000       15.9994           0
     45713 TIP3     7132     TIP3     H1       HT       0.417000       1.00800           0
     45714 TIP3     7132     TIP3     H2       HT       0.417000       1.00800           0
     45715 TIP3     7133     TIP3     OH2      OT      -0.834000       15.9994           0
     45716 TIP3     7133     TIP3     H1       HT       0.417000       1.00800           0
     45717 TIP3     7133     TIP3     H2       HT       0.417000       1.00800           0
     45718 TIP3     7134     TIP3     OH2      OT      -0.834000       15.9994           0
     45719 TIP3     7134     TIP3     H1       HT       0.417000       1.00800           0
     45720 TIP3     7134     TIP3     H2       HT       0.417000       1.00800           0
     45721 TIP3     7135     TIP3     OH2      OT      -0.834000       15.9994           0
     45722 TIP3     7135     TIP3     H1       HT       0.417000       1.00800           0
     45723 TIP3     7135     TIP3     H2       HT       0.417000       1.00800           0
     45724 TIP3     7136     TIP3     OH2      OT      -0.834000       15.9994           0
     45725 TIP3     7136     TIP3     H1       HT       0.417000       1.00800           0
     45726 TIP3     7136     TIP3     H2       HT       0.417000       1.00800           0
     45727 TIP3     7137     TIP3     OH2      OT      -0.834000       15.9994           0
     45728 TIP3     7137     TIP3     H1       HT       0.417000       1.00800           0
     45729 TIP3     7137     TIP3     H2       HT       0.417000       1.00800           0
     45730 TIP3     7138     TIP3     OH2      OT      -0.834000       15.9994           0
     45731 TIP3     7138     TIP3     H1       HT       0.417000       1.00800           0
     45732 TIP3     7138     TIP3     H2       HT       0.417000       1.00800           0
     45733 TIP3     7139     TIP3     OH2      OT      -0.834000       15.9994           0
     45734 TIP3     7139     TIP3     H1       HT       0.417000       1.00800           0
     45735 TIP3     7139     TIP3     H2       HT       0.417000       1.00800           0
     45736 TIP3     7140     TIP3     OH2      OT      -0.834000       15.9994           0
     45737 TIP3     7140     TIP3     H1       HT       0.417000       1.00800           0
     45738 TIP3     7140     TIP3     H2       HT       0.417000       1.00800           0
     45739 TIP3     7141     TIP3     OH2      OT      -0.834000       15.9994           0
     45740 TIP3     7141     TIP3     H1       HT       0.417000       1.00800           0
     45741 TIP3     7141     TIP3     H2       HT       0.417000       1.00800           0
     45742 TIP3     7142     TIP3     OH2      OT      -0.834000       15.9994           0
     45743 TIP3     7142     TIP3     H1       HT       0.417000       1.00800           0
     45744 TIP3     7142     TIP3     H2       HT       0.417000       1.00800           0
     45745 TIP3     7143     TIP3     OH2      OT      -0.834000       15.9994           0
     45746 TIP3     7143     TIP3     H1       HT       0.417000       1.00800           0
     45747 TIP3     7143     TIP3     H2       HT       0.417000       1.00800           0
     45748 TIP3     7144     TIP3     OH2      OT      -0.834000       15.9994           0
     45749 TIP3     7144     TIP3     H1       HT       0.417000       1.00800           0
     45750 TIP3     7144     TIP3     H2       HT       0.417000       1.00800           0
     45751 TIP3     7145     TIP3     OH2      OT      -0.834000       15.9994           0
     45752 TIP3     7145     TIP3     H1       HT       0.417000       1.00800           0
     45753 TIP3     7145     TIP3     H2       HT       0.417000       1.00800           0
     45754 TIP3     7146     TIP3     OH2      OT      -0.834000       15.9994           0
     45755 TIP3     7146     TIP3     H1       HT       0.417000       1.00800           0
     45756 TIP3     7146     TIP3     H2       HT       0.417000       1.00800           0
     45757 TIP3     7147     TIP3     OH2      OT      -0.834000       15.9994           0
     45758 TIP3     7147     TIP3     H1       HT       0.417000       1.00800           0
     45759 TIP3     7147     TIP3     H2       HT       0.417000       1.00800           0
     45760 TIP3     7148     TIP3     OH2      OT      -0.834000       15.9994           0
     45761 TIP3     7148     TIP3     H1       HT       0.417000       1.00800           0
     45762 TIP3     7148     TIP3     H2       HT       0.417000       1.00800           0
     45763 TIP3     7149     TIP3     OH2      OT      -0.834000       15.9994           0
     45764 TIP3     7149     TIP3     H1       HT       0.417000       1.00800           0
     45765 TIP3     7149     TIP3     H2       HT       0.417000       1.00800           0
     45766 TIP3     7150     TIP3     OH2      OT      -0.834000       15.9994           0
     45767 TIP3     7150     TIP3     H1       HT       0.417000       1.00800           0
     45768 TIP3     7150     TIP3     H2       HT       0.417000       1.00800           0
     45769 TIP3     7151     TIP3     OH2      OT      -0.834000       15.9994           0
     45770 TIP3     7151     TIP3     H1       HT       0.417000       1.00800           0
     45771 TIP3     7151     TIP3     H2       HT       0.417000       1.00800           0
     45772 TIP3     7152     TIP3     OH2      OT      -0.834000       15.9994           0
     45773 TIP3     7152     TIP3     H1       HT       0.417000       1.00800           0
     45774 TIP3     7152     TIP3     H2       HT       0.417000       1.00800           0
     45775 TIP3     7153     TIP3     OH2      OT      -0.834000       15.9994           0
     45776 TIP3     7153     TIP3     H1       HT       0.417000       1.00800           0
     45777 TIP3     7153     TIP3     H2       HT       0.417000       1.00800           0
     45778 TIP3     7154     TIP3     OH2      OT      -0.834000       15.9994           0
     45779 TIP3     7154     TIP3     H1       HT       0.417000       1.00800           0
     45780 TIP3     7154     TIP3     H2       HT       0.417000       1.00800           0
     45781 TIP3     7155     TIP3     OH2      OT      -0.834000       15.9994           0
     45782 TIP3     7155     TIP3     H1       HT       0.417000       1.00800           0
     45783 TIP3     7155     TIP3     H2       HT       0.417000       1.00800           0
     45784 TIP3     7156     TIP3     OH2      OT      -0.834000       15.9994           0
     45785 TIP3     7156     TIP3     H1       HT       0.417000       1.00800           0
     45786 TIP3     7156     TIP3     H2       HT       0.417000       1.00800           0
     45787 TIP3     7157     TIP3     OH2      OT      -0.834000       15.9994           0
     45788 TIP3     7157     TIP3     H1       HT       0.417000       1.00800           0
     45789 TIP3     7157     TIP3     H2       HT       0.417000       1.00800           0
     45790 TIP3     7158     TIP3     OH2      OT      -0.834000       15.9994           0
     45791 TIP3     7158     TIP3     H1       HT       0.417000       1.00800           0
     45792 TIP3     7158     TIP3     H2       HT       0.417000       1.00800           0
     45793 TIP3     7159     TIP3     OH2      OT      -0.834000       15.9994           0
     45794 TIP3     7159     TIP3     H1       HT       0.417000       1.00800           0
     45795 TIP3     7159     TIP3     H2       HT       0.417000       1.00800           0
     45796 TIP3     7160     TIP3     OH2      OT      -0.834000       15.9994           0
     45797 TIP3     7160     TIP3     H1       HT       0.417000       1.00800           0
     45798 TIP3     7160     TIP3     H2       HT       0.417000       1.00800           0
     45799 TIP3     7161     TIP3     OH2      OT      -0.834000       15.9994           0
     45800 TIP3     7161     TIP3     H1       HT       0.417000       1.00800           0
     45801 TIP3     7161     TIP3     H2       HT       0.417000       1.00800           0
     45802 TIP3     7162     TIP3     OH2      OT      -0.834000       15.9994           0
     45803 TIP3     7162     TIP3     H1       HT       0.417000       1.00800           0
     45804 TIP3     7162     TIP3     H2       HT       0.417000       1.00800           0
     45805 TIP3     7163     TIP3     OH2      OT      -0.834000       15.9994           0
     45806 TIP3     7163     TIP3     H1       HT       0.417000       1.00800           0
     45807 TIP3     7163     TIP3     H2       HT       0.417000       1.00800           0
     45808 TIP3     7164     TIP3     OH2      OT      -0.834000       15.9994           0
     45809 TIP3     7164     TIP3     H1       HT       0.417000       1.00800           0
     45810 TIP3     7164     TIP3     H2       HT       0.417000       1.00800           0
     45811 TIP3     7165     TIP3     OH2      OT      -0.834000       15.9994           0
     45812 TIP3     7165     TIP3     H1       HT       0.417000       1.00800           0
     45813 TIP3     7165     TIP3     H2       HT       0.417000       1.00800           0
     45814 TIP3     7166     TIP3     OH2      OT      -0.834000       15.9994           0
     45815 TIP3     7166     TIP3     H1       HT       0.417000       1.00800           0
     45816 TIP3     7166     TIP3     H2       HT       0.417000       1.00800           0
     45817 TIP3     7167     TIP3     OH2      OT      -0.834000       15.9994           0
     45818 TIP3     7167     TIP3     H1       HT       0.417000       1.00800           0
     45819 TIP3     7167     TIP3     H2       HT       0.417000       1.00800           0
     45820 TIP3     7168     TIP3     OH2      OT      -0.834000       15.9994           0
     45821 TIP3     7168     TIP3     H1       HT       0.417000       1.00800           0
     45822 TIP3     7168     TIP3     H2       HT       0.417000       1.00800           0
     45823 TIP3     7169     TIP3     OH2      OT      -0.834000       15.9994           0
     45824 TIP3     7169     TIP3     H1       HT       0.417000       1.00800           0
     45825 TIP3     7169     TIP3     H2       HT       0.417000       1.00800           0
     45826 TIP3     7170     TIP3     OH2      OT      -0.834000       15.9994           0
     45827 TIP3     7170     TIP3     H1       HT       0.417000       1.00800           0
     45828 TIP3     7170     TIP3     H2       HT       0.417000       1.00800           0
     45829 TIP3     7171     TIP3     OH2      OT      -0.834000       15.9994           0
     45830 TIP3     7171     TIP3     H1       HT       0.417000       1.00800           0
     45831 TIP3     7171     TIP3     H2       HT       0.417000       1.00800           0
     45832 TIP3     7172     TIP3     OH2      OT      -0.834000       15.9994           0
     45833 TIP3     7172     TIP3     H1       HT       0.417000       1.00800           0
     45834 TIP3     7172     TIP3     H2       HT       0.417000       1.00800           0
     45835 TIP3     7173     TIP3     OH2      OT      -0.834000       15.9994           0
     45836 TIP3     7173     TIP3     H1       HT       0.417000       1.00800           0
     45837 TIP3     7173     TIP3     H2       HT       0.417000       1.00800           0
     45838 TIP3     7174     TIP3     OH2      OT      -0.834000       15.9994           0
     45839 TIP3     7174     TIP3     H1       HT       0.417000       1.00800           0
     45840 TIP3     7174     TIP3     H2       HT       0.417000       1.00800           0
     45841 TIP3     7175     TIP3     OH2      OT      -0.834000       15.9994           0
     45842 TIP3     7175     TIP3     H1       HT       0.417000       1.00800           0
     45843 TIP3     7175     TIP3     H2       HT       0.417000       1.00800           0
     45844 TIP3     7176     TIP3     OH2      OT      -0.834000       15.9994           0
     45845 TIP3     7176     TIP3     H1       HT       0.417000       1.00800           0
     45846 TIP3     7176     TIP3     H2       HT       0.417000       1.00800           0
     45847 TIP3     7177     TIP3     OH2      OT      -0.834000       15.9994           0
     45848 TIP3     7177     TIP3     H1       HT       0.417000       1.00800           0
     45849 TIP3     7177     TIP3     H2       HT       0.417000       1.00800           0
     45850 TIP3     7178     TIP3     OH2      OT      -0.834000       15.9994           0
     45851 TIP3     7178     TIP3     H1       HT       0.417000       1.00800           0
     45852 TIP3     7178     TIP3     H2       HT       0.417000       1.00800           0
     45853 TIP3     7179     TIP3     OH2      OT      -0.834000       15.9994           0
     45854 TIP3     7179     TIP3     H1       HT       0.417000       1.00800           0
     45855 TIP3     7179     TIP3     H2       HT       0.417000       1.00800           0
     45856 TIP3     7180     TIP3     OH2      OT      -0.834000       15.9994           0
     45857 TIP3     7180     TIP3     H1       HT       0.417000       1.00800           0
     45858 TIP3     7180     TIP3     H2       HT       0.417000       1.00800           0
     45859 TIP3     7181     TIP3     OH2      OT      -0.834000       15.9994           0
     45860 TIP3     7181     TIP3     H1       HT       0.417000       1.00800           0
     45861 TIP3     7181     TIP3     H2       HT       0.417000       1.00800           0
     45862 TIP3     7182     TIP3     OH2      OT      -0.834000       15.9994           0
     45863 TIP3     7182     TIP3     H1       HT       0.417000       1.00800           0
     45864 TIP3     7182     TIP3     H2       HT       0.417000       1.00800           0
     45865 TIP3     7183     TIP3     OH2      OT      -0.834000       15.9994           0
     45866 TIP3     7183     TIP3     H1       HT       0.417000       1.00800           0
     45867 TIP3     7183     TIP3     H2       HT       0.417000       1.00800           0
     45868 TIP3     7184     TIP3     OH2      OT      -0.834000       15.9994           0
     45869 TIP3     7184     TIP3     H1       HT       0.417000       1.00800           0
     45870 TIP3     7184     TIP3     H2       HT       0.417000       1.00800           0
     45871 TIP3     7185     TIP3     OH2      OT      -0.834000       15.9994           0
     45872 TIP3     7185     TIP3     H1       HT       0.417000       1.00800           0
     45873 TIP3     7185     TIP3     H2       HT       0.417000       1.00800           0
     45874 TIP3     7186     TIP3     OH2      OT      -0.834000       15.9994           0
     45875 TIP3     7186     TIP3     H1       HT       0.417000       1.00800           0
     45876 TIP3     7186     TIP3     H2       HT       0.417000       1.00800           0
     45877 TIP3     7187     TIP3     OH2      OT      -0.834000       15.9994           0
     45878 TIP3     7187     TIP3     H1       HT       0.417000       1.00800           0
     45879 TIP3     7187     TIP3     H2       HT       0.417000       1.00800           0
     45880 TIP3     7188     TIP3     OH2      OT      -0.834000       15.9994           0
     45881 TIP3     7188     TIP3     H1       HT       0.417000       1.00800           0
     45882 TIP3     7188     TIP3     H2       HT       0.417000       1.00800           0
     45883 TIP3     7189     TIP3     OH2      OT      -0.834000       15.9994           0
     45884 TIP3     7189     TIP3     H1       HT       0.417000       1.00800           0
     45885 TIP3     7189     TIP3     H2       HT       0.417000       1.00800           0
     45886 TIP3     7190     TIP3     OH2      OT      -0.834000       15.9994           0
     45887 TIP3     7190     TIP3     H1       HT       0.417000       1.00800           0
     45888 TIP3     7190     TIP3     H2       HT       0.417000       1.00800           0
     45889 TIP3     7191     TIP3     OH2      OT      -0.834000       15.9994           0
     45890 TIP3     7191     TIP3     H1       HT       0.417000       1.00800           0
     45891 TIP3     7191     TIP3     H2       HT       0.417000       1.00800           0
     45892 TIP3     7192     TIP3     OH2      OT      -0.834000       15.9994           0
     45893 TIP3     7192     TIP3     H1       HT       0.417000       1.00800           0
     45894 TIP3     7192     TIP3     H2       HT       0.417000       1.00800           0
     45895 TIP3     7193     TIP3     OH2      OT      -0.834000       15.9994           0
     45896 TIP3     7193     TIP3     H1       HT       0.417000       1.00800           0
     45897 TIP3     7193     TIP3     H2       HT       0.417000       1.00800           0
     45898 TIP3     7194     TIP3     OH2      OT      -0.834000       15.9994           0
     45899 TIP3     7194     TIP3     H1       HT       0.417000       1.00800           0
     45900 TIP3     7194     TIP3     H2       HT       0.417000       1.00800           0
     45901 TIP3     7195     TIP3     OH2      OT      -0.834000       15.9994           0
     45902 TIP3     7195     TIP3     H1       HT       0.417000       1.00800           0
     45903 TIP3     7195     TIP3     H2       HT       0.417000       1.00800           0
     45904 TIP3     7196     TIP3     OH2      OT      -0.834000       15.9994           0
     45905 TIP3     7196     TIP3     H1       HT       0.417000       1.00800           0
     45906 TIP3     7196     TIP3     H2       HT       0.417000       1.00800           0
     45907 TIP3     7197     TIP3     OH2      OT      -0.834000       15.9994           0
     45908 TIP3     7197     TIP3     H1       HT       0.417000       1.00800           0
     45909 TIP3     7197     TIP3     H2       HT       0.417000       1.00800           0
     45910 TIP3     7198     TIP3     OH2      OT      -0.834000       15.9994           0
     45911 TIP3     7198     TIP3     H1       HT       0.417000       1.00800           0
     45912 TIP3     7198     TIP3     H2       HT       0.417000       1.00800           0
     45913 TIP3     7199     TIP3     OH2      OT      -0.834000       15.9994           0
     45914 TIP3     7199     TIP3     H1       HT       0.417000       1.00800           0
     45915 TIP3     7199     TIP3     H2       HT       0.417000       1.00800           0
     45916 TIP3     7200     TIP3     OH2      OT      -0.834000       15.9994           0
     45917 TIP3     7200     TIP3     H1       HT       0.417000       1.00800           0
     45918 TIP3     7200     TIP3     H2       HT       0.417000       1.00800           0
     45919 TIP3     7201     TIP3     OH2      OT      -0.834000       15.9994           0
     45920 TIP3     7201     TIP3     H1       HT       0.417000       1.00800           0
     45921 TIP3     7201     TIP3     H2       HT       0.417000       1.00800           0
     45922 TIP3     7202     TIP3     OH2      OT      -0.834000       15.9994           0
     45923 TIP3     7202     TIP3     H1       HT       0.417000       1.00800           0
     45924 TIP3     7202     TIP3     H2       HT       0.417000       1.00800           0
     45925 TIP3     7203     TIP3     OH2      OT      -0.834000       15.9994           0
     45926 TIP3     7203     TIP3     H1       HT       0.417000       1.00800           0
     45927 TIP3     7203     TIP3     H2       HT       0.417000       1.00800           0
     45928 TIP3     7204     TIP3     OH2      OT      -0.834000       15.9994           0
     45929 TIP3     7204     TIP3     H1       HT       0.417000       1.00800           0
     45930 TIP3     7204     TIP3     H2       HT       0.417000       1.00800           0
     45931 TIP3     7205     TIP3     OH2      OT      -0.834000       15.9994           0
     45932 TIP3     7205     TIP3     H1       HT       0.417000       1.00800           0
     45933 TIP3     7205     TIP3     H2       HT       0.417000       1.00800           0
     45934 TIP3     7206     TIP3     OH2      OT      -0.834000       15.9994           0
     45935 TIP3     7206     TIP3     H1       HT       0.417000       1.00800           0
     45936 TIP3     7206     TIP3     H2       HT       0.417000       1.00800           0
     45937 TIP3     7207     TIP3     OH2      OT      -0.834000       15.9994           0
     45938 TIP3     7207     TIP3     H1       HT       0.417000       1.00800           0
     45939 TIP3     7207     TIP3     H2       HT       0.417000       1.00800           0
     45940 TIP3     7208     TIP3     OH2      OT      -0.834000       15.9994           0
     45941 TIP3     7208     TIP3     H1       HT       0.417000       1.00800           0
     45942 TIP3     7208     TIP3     H2       HT       0.417000       1.00800           0
     45943 TIP3     7209     TIP3     OH2      OT      -0.834000       15.9994           0
     45944 TIP3     7209     TIP3     H1       HT       0.417000       1.00800           0
     45945 TIP3     7209     TIP3     H2       HT       0.417000       1.00800           0
     45946 TIP3     7210     TIP3     OH2      OT      -0.834000       15.9994           0
     45947 TIP3     7210     TIP3     H1       HT       0.417000       1.00800           0
     45948 TIP3     7210     TIP3     H2       HT       0.417000       1.00800           0
     45949 TIP3     7211     TIP3     OH2      OT      -0.834000       15.9994           0
     45950 TIP3     7211     TIP3     H1       HT       0.417000       1.00800           0
     45951 TIP3     7211     TIP3     H2       HT       0.417000       1.00800           0
     45952 TIP3     7212     TIP3     OH2      OT      -0.834000       15.9994           0
     45953 TIP3     7212     TIP3     H1       HT       0.417000       1.00800           0
     45954 TIP3     7212     TIP3     H2       HT       0.417000       1.00800           0
     45955 TIP3     7213     TIP3     OH2      OT      -0.834000       15.9994           0
     45956 TIP3     7213     TIP3     H1       HT       0.417000       1.00800           0
     45957 TIP3     7213     TIP3     H2       HT       0.417000       1.00800           0
     45958 TIP3     7214     TIP3     OH2      OT      -0.834000       15.9994           0
     45959 TIP3     7214     TIP3     H1       HT       0.417000       1.00800           0
     45960 TIP3     7214     TIP3     H2       HT       0.417000       1.00800           0
     45961 TIP3     7215     TIP3     OH2      OT      -0.834000       15.9994           0
     45962 TIP3     7215     TIP3     H1       HT       0.417000       1.00800           0
     45963 TIP3     7215     TIP3     H2       HT       0.417000       1.00800           0
     45964 TIP3     7216     TIP3     OH2      OT      -0.834000       15.9994           0
     45965 TIP3     7216     TIP3     H1       HT       0.417000       1.00800           0
     45966 TIP3     7216     TIP3     H2       HT       0.417000       1.00800           0
     45967 TIP3     7217     TIP3     OH2      OT      -0.834000       15.9994           0
     45968 TIP3     7217     TIP3     H1       HT       0.417000       1.00800           0
     45969 TIP3     7217     TIP3     H2       HT       0.417000       1.00800           0
     45970 TIP3     7218     TIP3     OH2      OT      -0.834000       15.9994           0
     45971 TIP3     7218     TIP3     H1       HT       0.417000       1.00800           0
     45972 TIP3     7218     TIP3     H2       HT       0.417000       1.00800           0
     45973 TIP3     7219     TIP3     OH2      OT      -0.834000       15.9994           0
     45974 TIP3     7219     TIP3     H1       HT       0.417000       1.00800           0
     45975 TIP3     7219     TIP3     H2       HT       0.417000       1.00800           0
     45976 TIP3     7220     TIP3     OH2      OT      -0.834000       15.9994           0
     45977 TIP3     7220     TIP3     H1       HT       0.417000       1.00800           0
     45978 TIP3     7220     TIP3     H2       HT       0.417000       1.00800           0
     45979 TIP3     7221     TIP3     OH2      OT      -0.834000       15.9994           0
     45980 TIP3     7221     TIP3     H1       HT       0.417000       1.00800           0
     45981 TIP3     7221     TIP3     H2       HT       0.417000       1.00800           0
     45982 TIP3     7222     TIP3     OH2      OT      -0.834000       15.9994           0
     45983 TIP3     7222     TIP3     H1       HT       0.417000       1.00800           0
     45984 TIP3     7222     TIP3     H2       HT       0.417000       1.00800           0
     45985 TIP3     7223     TIP3     OH2      OT      -0.834000       15.9994           0
     45986 TIP3     7223     TIP3     H1       HT       0.417000       1.00800           0
     45987 TIP3     7223     TIP3     H2       HT       0.417000       1.00800           0
     45988 TIP3     7224     TIP3     OH2      OT      -0.834000       15.9994           0
     45989 TIP3     7224     TIP3     H1       HT       0.417000       1.00800           0
     45990 TIP3     7224     TIP3     H2       HT       0.417000       1.00800           0
     45991 TIP3     7225     TIP3     OH2      OT      -0.834000       15.9994           0
     45992 TIP3     7225     TIP3     H1       HT       0.417000       1.00800           0
     45993 TIP3     7225     TIP3     H2       HT       0.417000       1.00800           0
     45994 TIP3     7226     TIP3     OH2      OT      -0.834000       15.9994           0
     45995 TIP3     7226     TIP3     H1       HT       0.417000       1.00800           0
     45996 TIP3     7226     TIP3     H2       HT       0.417000       1.00800           0
     45997 TIP3     7227     TIP3     OH2      OT      -0.834000       15.9994           0
     45998 TIP3     7227     TIP3     H1       HT       0.417000       1.00800           0
     45999 TIP3     7227     TIP3     H2       HT       0.417000       1.00800           0
     46000 TIP3     7228     TIP3     OH2      OT      -0.834000       15.9994           0
     46001 TIP3     7228     TIP3     H1       HT       0.417000       1.00800           0
     46002 TIP3     7228     TIP3     H2       HT       0.417000       1.00800           0
     46003 TIP3     7229     TIP3     OH2      OT      -0.834000       15.9994           0
     46004 TIP3     7229     TIP3     H1       HT       0.417000       1.00800           0
     46005 TIP3     7229     TIP3     H2       HT       0.417000       1.00800           0
     46006 TIP3     7230     TIP3     OH2      OT      -0.834000       15.9994           0
     46007 TIP3     7230     TIP3     H1       HT       0.417000       1.00800           0
     46008 TIP3     7230     TIP3     H2       HT       0.417000       1.00800           0
     46009 TIP3     7231     TIP3     OH2      OT      -0.834000       15.9994           0
     46010 TIP3     7231     TIP3     H1       HT       0.417000       1.00800           0
     46011 TIP3     7231     TIP3     H2       HT       0.417000       1.00800           0
     46012 TIP3     7232     TIP3     OH2      OT      -0.834000       15.9994           0
     46013 TIP3     7232     TIP3     H1       HT       0.417000       1.00800           0
     46014 TIP3     7232     TIP3     H2       HT       0.417000       1.00800           0
     46015 TIP3     7233     TIP3     OH2      OT      -0.834000       15.9994           0
     46016 TIP3     7233     TIP3     H1       HT       0.417000       1.00800           0
     46017 TIP3     7233     TIP3     H2       HT       0.417000       1.00800           0
     46018 TIP3     7234     TIP3     OH2      OT      -0.834000       15.9994           0
     46019 TIP3     7234     TIP3     H1       HT       0.417000       1.00800           0
     46020 TIP3     7234     TIP3     H2       HT       0.417000       1.00800           0
     46021 TIP3     7235     TIP3     OH2      OT      -0.834000       15.9994           0
     46022 TIP3     7235     TIP3     H1       HT       0.417000       1.00800           0
     46023 TIP3     7235     TIP3     H2       HT       0.417000       1.00800           0
     46024 TIP3     7236     TIP3     OH2      OT      -0.834000       15.9994           0
     46025 TIP3     7236     TIP3     H1       HT       0.417000       1.00800           0
     46026 TIP3     7236     TIP3     H2       HT       0.417000       1.00800           0
     46027 TIP3     7237     TIP3     OH2      OT      -0.834000       15.9994           0
     46028 TIP3     7237     TIP3     H1       HT       0.417000       1.00800           0
     46029 TIP3     7237     TIP3     H2       HT       0.417000       1.00800           0
     46030 TIP3     7238     TIP3     OH2      OT      -0.834000       15.9994           0
     46031 TIP3     7238     TIP3     H1       HT       0.417000       1.00800           0
     46032 TIP3     7238     TIP3     H2       HT       0.417000       1.00800           0
     46033 TIP3     7239     TIP3     OH2      OT      -0.834000       15.9994           0
     46034 TIP3     7239     TIP3     H1       HT       0.417000       1.00800           0
     46035 TIP3     7239     TIP3     H2       HT       0.417000       1.00800           0
     46036 TIP3     7240     TIP3     OH2      OT      -0.834000       15.9994           0
     46037 TIP3     7240     TIP3     H1       HT       0.417000       1.00800           0
     46038 TIP3     7240     TIP3     H2       HT       0.417000       1.00800           0
     46039 TIP3     7241     TIP3     OH2      OT      -0.834000       15.9994           0
     46040 TIP3     7241     TIP3     H1       HT       0.417000       1.00800           0
     46041 TIP3     7241     TIP3     H2       HT       0.417000       1.00800           0
     46042 TIP3     7242     TIP3     OH2      OT      -0.834000       15.9994           0
     46043 TIP3     7242     TIP3     H1       HT       0.417000       1.00800           0
     46044 TIP3     7242     TIP3     H2       HT       0.417000       1.00800           0
     46045 TIP3     7243     TIP3     OH2      OT      -0.834000       15.9994           0
     46046 TIP3     7243     TIP3     H1       HT       0.417000       1.00800           0
     46047 TIP3     7243     TIP3     H2       HT       0.417000       1.00800           0
     46048 TIP3     7244     TIP3     OH2      OT      -0.834000       15.9994           0
     46049 TIP3     7244     TIP3     H1       HT       0.417000       1.00800           0
     46050 TIP3     7244     TIP3     H2       HT       0.417000       1.00800           0
     46051 TIP3     7245     TIP3     OH2      OT      -0.834000       15.9994           0
     46052 TIP3     7245     TIP3     H1       HT       0.417000       1.00800           0
     46053 TIP3     7245     TIP3     H2       HT       0.417000       1.00800           0
     46054 TIP3     7246     TIP3     OH2      OT      -0.834000       15.9994           0
     46055 TIP3     7246     TIP3     H1       HT       0.417000       1.00800           0
     46056 TIP3     7246     TIP3     H2       HT       0.417000       1.00800           0
     46057 TIP3     7247     TIP3     OH2      OT      -0.834000       15.9994           0
     46058 TIP3     7247     TIP3     H1       HT       0.417000       1.00800           0
     46059 TIP3     7247     TIP3     H2       HT       0.417000       1.00800           0
     46060 TIP3     7248     TIP3     OH2      OT      -0.834000       15.9994           0
     46061 TIP3     7248     TIP3     H1       HT       0.417000       1.00800           0
     46062 TIP3     7248     TIP3     H2       HT       0.417000       1.00800           0
     46063 TIP3     7249     TIP3     OH2      OT      -0.834000       15.9994           0
     46064 TIP3     7249     TIP3     H1       HT       0.417000       1.00800           0
     46065 TIP3     7249     TIP3     H2       HT       0.417000       1.00800           0
     46066 TIP3     7250     TIP3     OH2      OT      -0.834000       15.9994           0
     46067 TIP3     7250     TIP3     H1       HT       0.417000       1.00800           0
     46068 TIP3     7250     TIP3     H2       HT       0.417000       1.00800           0
     46069 TIP3     7251     TIP3     OH2      OT      -0.834000       15.9994           0
     46070 TIP3     7251     TIP3     H1       HT       0.417000       1.00800           0
     46071 TIP3     7251     TIP3     H2       HT       0.417000       1.00800           0
     46072 TIP3     7252     TIP3     OH2      OT      -0.834000       15.9994           0
     46073 TIP3     7252     TIP3     H1       HT       0.417000       1.00800           0
     46074 TIP3     7252     TIP3     H2       HT       0.417000       1.00800           0
     46075 TIP3     7253     TIP3     OH2      OT      -0.834000       15.9994           0
     46076 TIP3     7253     TIP3     H1       HT       0.417000       1.00800           0
     46077 TIP3     7253     TIP3     H2       HT       0.417000       1.00800           0
     46078 TIP3     7254     TIP3     OH2      OT      -0.834000       15.9994           0
     46079 TIP3     7254     TIP3     H1       HT       0.417000       1.00800           0
     46080 TIP3     7254     TIP3     H2       HT       0.417000       1.00800           0
     46081 TIP3     7255     TIP3     OH2      OT      -0.834000       15.9994           0
     46082 TIP3     7255     TIP3     H1       HT       0.417000       1.00800           0
     46083 TIP3     7255     TIP3     H2       HT       0.417000       1.00800           0
     46084 TIP3     7256     TIP3     OH2      OT      -0.834000       15.9994           0
     46085 TIP3     7256     TIP3     H1       HT       0.417000       1.00800           0
     46086 TIP3     7256     TIP3     H2       HT       0.417000       1.00800           0
     46087 TIP3     7257     TIP3     OH2      OT      -0.834000       15.9994           0
     46088 TIP3     7257     TIP3     H1       HT       0.417000       1.00800           0
     46089 TIP3     7257     TIP3     H2       HT       0.417000       1.00800           0
     46090 TIP3     7258     TIP3     OH2      OT      -0.834000       15.9994           0
     46091 TIP3     7258     TIP3     H1       HT       0.417000       1.00800           0
     46092 TIP3     7258     TIP3     H2       HT       0.417000       1.00800           0
     46093 TIP3     7259     TIP3     OH2      OT      -0.834000       15.9994           0
     46094 TIP3     7259     TIP3     H1       HT       0.417000       1.00800           0
     46095 TIP3     7259     TIP3     H2       HT       0.417000       1.00800           0
     46096 TIP3     7260     TIP3     OH2      OT      -0.834000       15.9994           0
     46097 TIP3     7260     TIP3     H1       HT       0.417000       1.00800           0
     46098 TIP3     7260     TIP3     H2       HT       0.417000       1.00800           0
     46099 TIP3     7261     TIP3     OH2      OT      -0.834000       15.9994           0
     46100 TIP3     7261     TIP3     H1       HT       0.417000       1.00800           0
     46101 TIP3     7261     TIP3     H2       HT       0.417000       1.00800           0
     46102 TIP3     7262     TIP3     OH2      OT      -0.834000       15.9994           0
     46103 TIP3     7262     TIP3     H1       HT       0.417000       1.00800           0
     46104 TIP3     7262     TIP3     H2       HT       0.417000       1.00800           0
     46105 TIP3     7263     TIP3     OH2      OT      -0.834000       15.9994           0
     46106 TIP3     7263     TIP3     H1       HT       0.417000       1.00800           0
     46107 TIP3     7263     TIP3     H2       HT       0.417000       1.00800           0
     46108 TIP3     7264     TIP3     OH2      OT      -0.834000       15.9994           0
     46109 TIP3     7264     TIP3     H1       HT       0.417000       1.00800           0
     46110 TIP3     7264     TIP3     H2       HT       0.417000       1.00800           0
     46111 TIP3     7265     TIP3     OH2      OT      -0.834000       15.9994           0
     46112 TIP3     7265     TIP3     H1       HT       0.417000       1.00800           0
     46113 TIP3     7265     TIP3     H2       HT       0.417000       1.00800           0
     46114 TIP3     7266     TIP3     OH2      OT      -0.834000       15.9994           0
     46115 TIP3     7266     TIP3     H1       HT       0.417000       1.00800           0
     46116 TIP3     7266     TIP3     H2       HT       0.417000       1.00800           0
     46117 TIP3     7267     TIP3     OH2      OT      -0.834000       15.9994           0
     46118 TIP3     7267     TIP3     H1       HT       0.417000       1.00800           0
     46119 TIP3     7267     TIP3     H2       HT       0.417000       1.00800           0
     46120 TIP3     7268     TIP3     OH2      OT      -0.834000       15.9994           0
     46121 TIP3     7268     TIP3     H1       HT       0.417000       1.00800           0
     46122 TIP3     7268     TIP3     H2       HT       0.417000       1.00800           0
     46123 TIP3     7269     TIP3     OH2      OT      -0.834000       15.9994           0
     46124 TIP3     7269     TIP3     H1       HT       0.417000       1.00800           0
     46125 TIP3     7269     TIP3     H2       HT       0.417000       1.00800           0
     46126 TIP3     7270     TIP3     OH2      OT      -0.834000       15.9994           0
     46127 TIP3     7270     TIP3     H1       HT       0.417000       1.00800           0
     46128 TIP3     7270     TIP3     H2       HT       0.417000       1.00800           0
     46129 TIP3     7271     TIP3     OH2      OT      -0.834000       15.9994           0
     46130 TIP3     7271     TIP3     H1       HT       0.417000       1.00800           0
     46131 TIP3     7271     TIP3     H2       HT       0.417000       1.00800           0
     46132 TIP3     7272     TIP3     OH2      OT      -0.834000       15.9994           0
     46133 TIP3     7272     TIP3     H1       HT       0.417000       1.00800           0
     46134 TIP3     7272     TIP3     H2       HT       0.417000       1.00800           0
     46135 TIP3     7273     TIP3     OH2      OT      -0.834000       15.9994           0
     46136 TIP3     7273     TIP3     H1       HT       0.417000       1.00800           0
     46137 TIP3     7273     TIP3     H2       HT       0.417000       1.00800           0
     46138 TIP3     7274     TIP3     OH2      OT      -0.834000       15.9994           0
     46139 TIP3     7274     TIP3     H1       HT       0.417000       1.00800           0
     46140 TIP3     7274     TIP3     H2       HT       0.417000       1.00800           0
     46141 TIP3     7275     TIP3     OH2      OT      -0.834000       15.9994           0
     46142 TIP3     7275     TIP3     H1       HT       0.417000       1.00800           0
     46143 TIP3     7275     TIP3     H2       HT       0.417000       1.00800           0
     46144 TIP3     7276     TIP3     OH2      OT      -0.834000       15.9994           0
     46145 TIP3     7276     TIP3     H1       HT       0.417000       1.00800           0
     46146 TIP3     7276     TIP3     H2       HT       0.417000       1.00800           0
     46147 TIP3     7277     TIP3     OH2      OT      -0.834000       15.9994           0
     46148 TIP3     7277     TIP3     H1       HT       0.417000       1.00800           0
     46149 TIP3     7277     TIP3     H2       HT       0.417000       1.00800           0
     46150 TIP3     7278     TIP3     OH2      OT      -0.834000       15.9994           0
     46151 TIP3     7278     TIP3     H1       HT       0.417000       1.00800           0
     46152 TIP3     7278     TIP3     H2       HT       0.417000       1.00800           0
     46153 TIP3     7279     TIP3     OH2      OT      -0.834000       15.9994           0
     46154 TIP3     7279     TIP3     H1       HT       0.417000       1.00800           0
     46155 TIP3     7279     TIP3     H2       HT       0.417000       1.00800           0
     46156 TIP3     7280     TIP3     OH2      OT      -0.834000       15.9994           0
     46157 TIP3     7280     TIP3     H1       HT       0.417000       1.00800           0
     46158 TIP3     7280     TIP3     H2       HT       0.417000       1.00800           0
     46159 TIP3     7281     TIP3     OH2      OT      -0.834000       15.9994           0
     46160 TIP3     7281     TIP3     H1       HT       0.417000       1.00800           0
     46161 TIP3     7281     TIP3     H2       HT       0.417000       1.00800           0
     46162 TIP3     7282     TIP3     OH2      OT      -0.834000       15.9994           0
     46163 TIP3     7282     TIP3     H1       HT       0.417000       1.00800           0
     46164 TIP3     7282     TIP3     H2       HT       0.417000       1.00800           0
     46165 TIP3     7283     TIP3     OH2      OT      -0.834000       15.9994           0
     46166 TIP3     7283     TIP3     H1       HT       0.417000       1.00800           0
     46167 TIP3     7283     TIP3     H2       HT       0.417000       1.00800           0
     46168 TIP3     7284     TIP3     OH2      OT      -0.834000       15.9994           0
     46169 TIP3     7284     TIP3     H1       HT       0.417000       1.00800           0
     46170 TIP3     7284     TIP3     H2       HT       0.417000       1.00800           0
     46171 TIP3     7285     TIP3     OH2      OT      -0.834000       15.9994           0
     46172 TIP3     7285     TIP3     H1       HT       0.417000       1.00800           0
     46173 TIP3     7285     TIP3     H2       HT       0.417000       1.00800           0
     46174 TIP3     7286     TIP3     OH2      OT      -0.834000       15.9994           0
     46175 TIP3     7286     TIP3     H1       HT       0.417000       1.00800           0
     46176 TIP3     7286     TIP3     H2       HT       0.417000       1.00800           0
     46177 TIP3     7287     TIP3     OH2      OT      -0.834000       15.9994           0
     46178 TIP3     7287     TIP3     H1       HT       0.417000       1.00800           0
     46179 TIP3     7287     TIP3     H2       HT       0.417000       1.00800           0
     46180 TIP3     7288     TIP3     OH2      OT      -0.834000       15.9994           0
     46181 TIP3     7288     TIP3     H1       HT       0.417000       1.00800           0
     46182 TIP3     7288     TIP3     H2       HT       0.417000       1.00800           0
     46183 TIP3     7289     TIP3     OH2      OT      -0.834000       15.9994           0
     46184 TIP3     7289     TIP3     H1       HT       0.417000       1.00800           0
     46185 TIP3     7289     TIP3     H2       HT       0.417000       1.00800           0
     46186 TIP3     7290     TIP3     OH2      OT      -0.834000       15.9994           0
     46187 TIP3     7290     TIP3     H1       HT       0.417000       1.00800           0
     46188 TIP3     7290     TIP3     H2       HT       0.417000       1.00800           0
     46189 TIP3     7291     TIP3     OH2      OT      -0.834000       15.9994           0
     46190 TIP3     7291     TIP3     H1       HT       0.417000       1.00800           0
     46191 TIP3     7291     TIP3     H2       HT       0.417000       1.00800           0
     46192 TIP3     7292     TIP3     OH2      OT      -0.834000       15.9994           0
     46193 TIP3     7292     TIP3     H1       HT       0.417000       1.00800           0
     46194 TIP3     7292     TIP3     H2       HT       0.417000       1.00800           0
     46195 TIP3     7293     TIP3     OH2      OT      -0.834000       15.9994           0
     46196 TIP3     7293     TIP3     H1       HT       0.417000       1.00800           0
     46197 TIP3     7293     TIP3     H2       HT       0.417000       1.00800           0
     46198 TIP3     7294     TIP3     OH2      OT      -0.834000       15.9994           0
     46199 TIP3     7294     TIP3     H1       HT       0.417000       1.00800           0
     46200 TIP3     7294     TIP3     H2       HT       0.417000       1.00800           0
     46201 TIP3     7295     TIP3     OH2      OT      -0.834000       15.9994           0
     46202 TIP3     7295     TIP3     H1       HT       0.417000       1.00800           0
     46203 TIP3     7295     TIP3     H2       HT       0.417000       1.00800           0
     46204 TIP3     7296     TIP3     OH2      OT      -0.834000       15.9994           0
     46205 TIP3     7296     TIP3     H1       HT       0.417000       1.00800           0
     46206 TIP3     7296     TIP3     H2       HT       0.417000       1.00800           0
     46207 TIP3     7297     TIP3     OH2      OT      -0.834000       15.9994           0
     46208 TIP3     7297     TIP3     H1       HT       0.417000       1.00800           0
     46209 TIP3     7297     TIP3     H2       HT       0.417000       1.00800           0
     46210 TIP3     7298     TIP3     OH2      OT      -0.834000       15.9994           0
     46211 TIP3     7298     TIP3     H1       HT       0.417000       1.00800           0
     46212 TIP3     7298     TIP3     H2       HT       0.417000       1.00800           0
     46213 TIP3     7299     TIP3     OH2      OT      -0.834000       15.9994           0
     46214 TIP3     7299     TIP3     H1       HT       0.417000       1.00800           0
     46215 TIP3     7299     TIP3     H2       HT       0.417000       1.00800           0
     46216 TIP3     7300     TIP3     OH2      OT      -0.834000       15.9994           0
     46217 TIP3     7300     TIP3     H1       HT       0.417000       1.00800           0
     46218 TIP3     7300     TIP3     H2       HT       0.417000       1.00800           0
     46219 TIP3     7301     TIP3     OH2      OT      -0.834000       15.9994           0
     46220 TIP3     7301     TIP3     H1       HT       0.417000       1.00800           0
     46221 TIP3     7301     TIP3     H2       HT       0.417000       1.00800           0
     46222 TIP3     7302     TIP3     OH2      OT      -0.834000       15.9994           0
     46223 TIP3     7302     TIP3     H1       HT       0.417000       1.00800           0
     46224 TIP3     7302     TIP3     H2       HT       0.417000       1.00800           0
     46225 TIP3     7303     TIP3     OH2      OT      -0.834000       15.9994           0
     46226 TIP3     7303     TIP3     H1       HT       0.417000       1.00800           0
     46227 TIP3     7303     TIP3     H2       HT       0.417000       1.00800           0
     46228 TIP3     7304     TIP3     OH2      OT      -0.834000       15.9994           0
     46229 TIP3     7304     TIP3     H1       HT       0.417000       1.00800           0
     46230 TIP3     7304     TIP3     H2       HT       0.417000       1.00800           0
     46231 TIP3     7305     TIP3     OH2      OT      -0.834000       15.9994           0
     46232 TIP3     7305     TIP3     H1       HT       0.417000       1.00800           0
     46233 TIP3     7305     TIP3     H2       HT       0.417000       1.00800           0
     46234 TIP3     7306     TIP3     OH2      OT      -0.834000       15.9994           0
     46235 TIP3     7306     TIP3     H1       HT       0.417000       1.00800           0
     46236 TIP3     7306     TIP3     H2       HT       0.417000       1.00800           0
     46237 TIP3     7307     TIP3     OH2      OT      -0.834000       15.9994           0
     46238 TIP3     7307     TIP3     H1       HT       0.417000       1.00800           0
     46239 TIP3     7307     TIP3     H2       HT       0.417000       1.00800           0
     46240 TIP3     7308     TIP3     OH2      OT      -0.834000       15.9994           0
     46241 TIP3     7308     TIP3     H1       HT       0.417000       1.00800           0
     46242 TIP3     7308     TIP3     H2       HT       0.417000       1.00800           0
     46243 TIP3     7309     TIP3     OH2      OT      -0.834000       15.9994           0
     46244 TIP3     7309     TIP3     H1       HT       0.417000       1.00800           0
     46245 TIP3     7309     TIP3     H2       HT       0.417000       1.00800           0
     46246 TIP3     7310     TIP3     OH2      OT      -0.834000       15.9994           0
     46247 TIP3     7310     TIP3     H1       HT       0.417000       1.00800           0
     46248 TIP3     7310     TIP3     H2       HT       0.417000       1.00800           0
     46249 TIP3     7311     TIP3     OH2      OT      -0.834000       15.9994           0
     46250 TIP3     7311     TIP3     H1       HT       0.417000       1.00800           0
     46251 TIP3     7311     TIP3     H2       HT       0.417000       1.00800           0
     46252 TIP3     7312     TIP3     OH2      OT      -0.834000       15.9994           0
     46253 TIP3     7312     TIP3     H1       HT       0.417000       1.00800           0
     46254 TIP3     7312     TIP3     H2       HT       0.417000       1.00800           0
     46255 TIP3     7313     TIP3     OH2      OT      -0.834000       15.9994           0
     46256 TIP3     7313     TIP3     H1       HT       0.417000       1.00800           0
     46257 TIP3     7313     TIP3     H2       HT       0.417000       1.00800           0
     46258 TIP3     7314     TIP3     OH2      OT      -0.834000       15.9994           0
     46259 TIP3     7314     TIP3     H1       HT       0.417000       1.00800           0
     46260 TIP3     7314     TIP3     H2       HT       0.417000       1.00800           0
     46261 TIP3     7315     TIP3     OH2      OT      -0.834000       15.9994           0
     46262 TIP3     7315     TIP3     H1       HT       0.417000       1.00800           0
     46263 TIP3     7315     TIP3     H2       HT       0.417000       1.00800           0
     46264 TIP3     7316     TIP3     OH2      OT      -0.834000       15.9994           0
     46265 TIP3     7316     TIP3     H1       HT       0.417000       1.00800           0
     46266 TIP3     7316     TIP3     H2       HT       0.417000       1.00800           0
     46267 TIP3     7317     TIP3     OH2      OT      -0.834000       15.9994           0
     46268 TIP3     7317     TIP3     H1       HT       0.417000       1.00800           0
     46269 TIP3     7317     TIP3     H2       HT       0.417000       1.00800           0
     46270 TIP3     7318     TIP3     OH2      OT      -0.834000       15.9994           0
     46271 TIP3     7318     TIP3     H1       HT       0.417000       1.00800           0
     46272 TIP3     7318     TIP3     H2       HT       0.417000       1.00800           0
     46273 TIP3     7319     TIP3     OH2      OT      -0.834000       15.9994           0
     46274 TIP3     7319     TIP3     H1       HT       0.417000       1.00800           0
     46275 TIP3     7319     TIP3     H2       HT       0.417000       1.00800           0
     46276 TIP3     7320     TIP3     OH2      OT      -0.834000       15.9994           0
     46277 TIP3     7320     TIP3     H1       HT       0.417000       1.00800           0
     46278 TIP3     7320     TIP3     H2       HT       0.417000       1.00800           0
     46279 TIP3     7321     TIP3     OH2      OT      -0.834000       15.9994           0
     46280 TIP3     7321     TIP3     H1       HT       0.417000       1.00800           0
     46281 TIP3     7321     TIP3     H2       HT       0.417000       1.00800           0
     46282 TIP3     7322     TIP3     OH2      OT      -0.834000       15.9994           0
     46283 TIP3     7322     TIP3     H1       HT       0.417000       1.00800           0
     46284 TIP3     7322     TIP3     H2       HT       0.417000       1.00800           0
     46285 TIP3     7323     TIP3     OH2      OT      -0.834000       15.9994           0
     46286 TIP3     7323     TIP3     H1       HT       0.417000       1.00800           0
     46287 TIP3     7323     TIP3     H2       HT       0.417000       1.00800           0
     46288 TIP3     7324     TIP3     OH2      OT      -0.834000       15.9994           0
     46289 TIP3     7324     TIP3     H1       HT       0.417000       1.00800           0
     46290 TIP3     7324     TIP3     H2       HT       0.417000       1.00800           0
     46291 TIP3     7325     TIP3     OH2      OT      -0.834000       15.9994           0
     46292 TIP3     7325     TIP3     H1       HT       0.417000       1.00800           0
     46293 TIP3     7325     TIP3     H2       HT       0.417000       1.00800           0
     46294 TIP3     7326     TIP3     OH2      OT      -0.834000       15.9994           0
     46295 TIP3     7326     TIP3     H1       HT       0.417000       1.00800           0
     46296 TIP3     7326     TIP3     H2       HT       0.417000       1.00800           0
     46297 TIP3     7327     TIP3     OH2      OT      -0.834000       15.9994           0
     46298 TIP3     7327     TIP3     H1       HT       0.417000       1.00800           0
     46299 TIP3     7327     TIP3     H2       HT       0.417000       1.00800           0
     46300 TIP3     7328     TIP3     OH2      OT      -0.834000       15.9994           0
     46301 TIP3     7328     TIP3     H1       HT       0.417000       1.00800           0
     46302 TIP3     7328     TIP3     H2       HT       0.417000       1.00800           0
     46303 TIP3     7329     TIP3     OH2      OT      -0.834000       15.9994           0
     46304 TIP3     7329     TIP3     H1       HT       0.417000       1.00800           0
     46305 TIP3     7329     TIP3     H2       HT       0.417000       1.00800           0
     46306 TIP3     7330     TIP3     OH2      OT      -0.834000       15.9994           0
     46307 TIP3     7330     TIP3     H1       HT       0.417000       1.00800           0
     46308 TIP3     7330     TIP3     H2       HT       0.417000       1.00800           0
     46309 TIP3     7331     TIP3     OH2      OT      -0.834000       15.9994           0
     46310 TIP3     7331     TIP3     H1       HT       0.417000       1.00800           0
     46311 TIP3     7331     TIP3     H2       HT       0.417000       1.00800           0
     46312 TIP3     7332     TIP3     OH2      OT      -0.834000       15.9994           0
     46313 TIP3     7332     TIP3     H1       HT       0.417000       1.00800           0
     46314 TIP3     7332     TIP3     H2       HT       0.417000       1.00800           0
     46315 TIP3     7333     TIP3     OH2      OT      -0.834000       15.9994           0
     46316 TIP3     7333     TIP3     H1       HT       0.417000       1.00800           0
     46317 TIP3     7333     TIP3     H2       HT       0.417000       1.00800           0
     46318 TIP3     7334     TIP3     OH2      OT      -0.834000       15.9994           0
     46319 TIP3     7334     TIP3     H1       HT       0.417000       1.00800           0
     46320 TIP3     7334     TIP3     H2       HT       0.417000       1.00800           0
     46321 TIP3     7335     TIP3     OH2      OT      -0.834000       15.9994           0
     46322 TIP3     7335     TIP3     H1       HT       0.417000       1.00800           0
     46323 TIP3     7335     TIP3     H2       HT       0.417000       1.00800           0
     46324 TIP3     7336     TIP3     OH2      OT      -0.834000       15.9994           0
     46325 TIP3     7336     TIP3     H1       HT       0.417000       1.00800           0
     46326 TIP3     7336     TIP3     H2       HT       0.417000       1.00800           0
     46327 TIP3     7337     TIP3     OH2      OT      -0.834000       15.9994           0
     46328 TIP3     7337     TIP3     H1       HT       0.417000       1.00800           0
     46329 TIP3     7337     TIP3     H2       HT       0.417000       1.00800           0
     46330 TIP3     7338     TIP3     OH2      OT      -0.834000       15.9994           0
     46331 TIP3     7338     TIP3     H1       HT       0.417000       1.00800           0
     46332 TIP3     7338     TIP3     H2       HT       0.417000       1.00800           0
     46333 TIP3     7339     TIP3     OH2      OT      -0.834000       15.9994           0
     46334 TIP3     7339     TIP3     H1       HT       0.417000       1.00800           0
     46335 TIP3     7339     TIP3     H2       HT       0.417000       1.00800           0
     46336 TIP3     7340     TIP3     OH2      OT      -0.834000       15.9994           0
     46337 TIP3     7340     TIP3     H1       HT       0.417000       1.00800           0
     46338 TIP3     7340     TIP3     H2       HT       0.417000       1.00800           0
     46339 TIP3     7341     TIP3     OH2      OT      -0.834000       15.9994           0
     46340 TIP3     7341     TIP3     H1       HT       0.417000       1.00800           0
     46341 TIP3     7341     TIP3     H2       HT       0.417000       1.00800           0
     46342 TIP3     7342     TIP3     OH2      OT      -0.834000       15.9994           0
     46343 TIP3     7342     TIP3     H1       HT       0.417000       1.00800           0
     46344 TIP3     7342     TIP3     H2       HT       0.417000       1.00800           0
     46345 TIP3     7343     TIP3     OH2      OT      -0.834000       15.9994           0
     46346 TIP3     7343     TIP3     H1       HT       0.417000       1.00800           0
     46347 TIP3     7343     TIP3     H2       HT       0.417000       1.00800           0
     46348 TIP3     7344     TIP3     OH2      OT      -0.834000       15.9994           0
     46349 TIP3     7344     TIP3     H1       HT       0.417000       1.00800           0
     46350 TIP3     7344     TIP3     H2       HT       0.417000       1.00800           0
     46351 TIP3     7345     TIP3     OH2      OT      -0.834000       15.9994           0
     46352 TIP3     7345     TIP3     H1       HT       0.417000       1.00800           0
     46353 TIP3     7345     TIP3     H2       HT       0.417000       1.00800           0
     46354 TIP3     7346     TIP3     OH2      OT      -0.834000       15.9994           0
     46355 TIP3     7346     TIP3     H1       HT       0.417000       1.00800           0
     46356 TIP3     7346     TIP3     H2       HT       0.417000       1.00800           0
     46357 TIP3     7347     TIP3     OH2      OT      -0.834000       15.9994           0
     46358 TIP3     7347     TIP3     H1       HT       0.417000       1.00800           0
     46359 TIP3     7347     TIP3     H2       HT       0.417000       1.00800           0
     46360 TIP3     7348     TIP3     OH2      OT      -0.834000       15.9994           0
     46361 TIP3     7348     TIP3     H1       HT       0.417000       1.00800           0
     46362 TIP3     7348     TIP3     H2       HT       0.417000       1.00800           0
     46363 TIP3     7349     TIP3     OH2      OT      -0.834000       15.9994           0
     46364 TIP3     7349     TIP3     H1       HT       0.417000       1.00800           0
     46365 TIP3     7349     TIP3     H2       HT       0.417000       1.00800           0
     46366 TIP3     7350     TIP3     OH2      OT      -0.834000       15.9994           0
     46367 TIP3     7350     TIP3     H1       HT       0.417000       1.00800           0
     46368 TIP3     7350     TIP3     H2       HT       0.417000       1.00800           0
     46369 TIP3     7351     TIP3     OH2      OT      -0.834000       15.9994           0
     46370 TIP3     7351     TIP3     H1       HT       0.417000       1.00800           0
     46371 TIP3     7351     TIP3     H2       HT       0.417000       1.00800           0
     46372 TIP3     7352     TIP3     OH2      OT      -0.834000       15.9994           0
     46373 TIP3     7352     TIP3     H1       HT       0.417000       1.00800           0
     46374 TIP3     7352     TIP3     H2       HT       0.417000       1.00800           0
     46375 TIP3     7353     TIP3     OH2      OT      -0.834000       15.9994           0
     46376 TIP3     7353     TIP3     H1       HT       0.417000       1.00800           0
     46377 TIP3     7353     TIP3     H2       HT       0.417000       1.00800           0
     46378 TIP3     7354     TIP3     OH2      OT      -0.834000       15.9994           0
     46379 TIP3     7354     TIP3     H1       HT       0.417000       1.00800           0
     46380 TIP3     7354     TIP3     H2       HT       0.417000       1.00800           0
     46381 TIP3     7355     TIP3     OH2      OT      -0.834000       15.9994           0
     46382 TIP3     7355     TIP3     H1       HT       0.417000       1.00800           0
     46383 TIP3     7355     TIP3     H2       HT       0.417000       1.00800           0
     46384 TIP3     7356     TIP3     OH2      OT      -0.834000       15.9994           0
     46385 TIP3     7356     TIP3     H1       HT       0.417000       1.00800           0
     46386 TIP3     7356     TIP3     H2       HT       0.417000       1.00800           0
     46387 TIP3     7357     TIP3     OH2      OT      -0.834000       15.9994           0
     46388 TIP3     7357     TIP3     H1       HT       0.417000       1.00800           0
     46389 TIP3     7357     TIP3     H2       HT       0.417000       1.00800           0
     46390 TIP3     7358     TIP3     OH2      OT      -0.834000       15.9994           0
     46391 TIP3     7358     TIP3     H1       HT       0.417000       1.00800           0
     46392 TIP3     7358     TIP3     H2       HT       0.417000       1.00800           0
     46393 TIP3     7359     TIP3     OH2      OT      -0.834000       15.9994           0
     46394 TIP3     7359     TIP3     H1       HT       0.417000       1.00800           0
     46395 TIP3     7359     TIP3     H2       HT       0.417000       1.00800           0
     46396 TIP3     7360     TIP3     OH2      OT      -0.834000       15.9994           0
     46397 TIP3     7360     TIP3     H1       HT       0.417000       1.00800           0
     46398 TIP3     7360     TIP3     H2       HT       0.417000       1.00800           0
     46399 TIP3     7361     TIP3     OH2      OT      -0.834000       15.9994           0
     46400 TIP3     7361     TIP3     H1       HT       0.417000       1.00800           0
     46401 TIP3     7361     TIP3     H2       HT       0.417000       1.00800           0
     46402 TIP3     7362     TIP3     OH2      OT      -0.834000       15.9994           0
     46403 TIP3     7362     TIP3     H1       HT       0.417000       1.00800           0
     46404 TIP3     7362     TIP3     H2       HT       0.417000       1.00800           0
     46405 TIP3     7363     TIP3     OH2      OT      -0.834000       15.9994           0
     46406 TIP3     7363     TIP3     H1       HT       0.417000       1.00800           0
     46407 TIP3     7363     TIP3     H2       HT       0.417000       1.00800           0
     46408 TIP3     7364     TIP3     OH2      OT      -0.834000       15.9994           0
     46409 TIP3     7364     TIP3     H1       HT       0.417000       1.00800           0
     46410 TIP3     7364     TIP3     H2       HT       0.417000       1.00800           0
     46411 TIP3     7365     TIP3     OH2      OT      -0.834000       15.9994           0
     46412 TIP3     7365     TIP3     H1       HT       0.417000       1.00800           0
     46413 TIP3     7365     TIP3     H2       HT       0.417000       1.00800           0
     46414 TIP3     7366     TIP3     OH2      OT      -0.834000       15.9994           0
     46415 TIP3     7366     TIP3     H1       HT       0.417000       1.00800           0
     46416 TIP3     7366     TIP3     H2       HT       0.417000       1.00800           0
     46417 TIP3     7367     TIP3     OH2      OT      -0.834000       15.9994           0
     46418 TIP3     7367     TIP3     H1       HT       0.417000       1.00800           0
     46419 TIP3     7367     TIP3     H2       HT       0.417000       1.00800           0
     46420 TIP3     7368     TIP3     OH2      OT      -0.834000       15.9994           0
     46421 TIP3     7368     TIP3     H1       HT       0.417000       1.00800           0
     46422 TIP3     7368     TIP3     H2       HT       0.417000       1.00800           0
     46423 TIP3     7369     TIP3     OH2      OT      -0.834000       15.9994           0
     46424 TIP3     7369     TIP3     H1       HT       0.417000       1.00800           0
     46425 TIP3     7369     TIP3     H2       HT       0.417000       1.00800           0
     46426 TIP3     7370     TIP3     OH2      OT      -0.834000       15.9994           0
     46427 TIP3     7370     TIP3     H1       HT       0.417000       1.00800           0
     46428 TIP3     7370     TIP3     H2       HT       0.417000       1.00800           0
     46429 TIP3     7371     TIP3     OH2      OT      -0.834000       15.9994           0
     46430 TIP3     7371     TIP3     H1       HT       0.417000       1.00800           0
     46431 TIP3     7371     TIP3     H2       HT       0.417000       1.00800           0
     46432 TIP3     7372     TIP3     OH2      OT      -0.834000       15.9994           0
     46433 TIP3     7372     TIP3     H1       HT       0.417000       1.00800           0
     46434 TIP3     7372     TIP3     H2       HT       0.417000       1.00800           0
     46435 TIP3     7373     TIP3     OH2      OT      -0.834000       15.9994           0
     46436 TIP3     7373     TIP3     H1       HT       0.417000       1.00800           0
     46437 TIP3     7373     TIP3     H2       HT       0.417000       1.00800           0
     46438 TIP3     7374     TIP3     OH2      OT      -0.834000       15.9994           0
     46439 TIP3     7374     TIP3     H1       HT       0.417000       1.00800           0
     46440 TIP3     7374     TIP3     H2       HT       0.417000       1.00800           0
     46441 TIP3     7375     TIP3     OH2      OT      -0.834000       15.9994           0
     46442 TIP3     7375     TIP3     H1       HT       0.417000       1.00800           0
     46443 TIP3     7375     TIP3     H2       HT       0.417000       1.00800           0
     46444 TIP3     7376     TIP3     OH2      OT      -0.834000       15.9994           0
     46445 TIP3     7376     TIP3     H1       HT       0.417000       1.00800           0
     46446 TIP3     7376     TIP3     H2       HT       0.417000       1.00800           0
     46447 TIP3     7377     TIP3     OH2      OT      -0.834000       15.9994           0
     46448 TIP3     7377     TIP3     H1       HT       0.417000       1.00800           0
     46449 TIP3     7377     TIP3     H2       HT       0.417000       1.00800           0
     46450 TIP3     7378     TIP3     OH2      OT      -0.834000       15.9994           0
     46451 TIP3     7378     TIP3     H1       HT       0.417000       1.00800           0
     46452 TIP3     7378     TIP3     H2       HT       0.417000       1.00800           0
     46453 TIP3     7379     TIP3     OH2      OT      -0.834000       15.9994           0
     46454 TIP3     7379     TIP3     H1       HT       0.417000       1.00800           0
     46455 TIP3     7379     TIP3     H2       HT       0.417000       1.00800           0
     46456 TIP3     7380     TIP3     OH2      OT      -0.834000       15.9994           0
     46457 TIP3     7380     TIP3     H1       HT       0.417000       1.00800           0
     46458 TIP3     7380     TIP3     H2       HT       0.417000       1.00800           0
     46459 TIP3     7381     TIP3     OH2      OT      -0.834000       15.9994           0
     46460 TIP3     7381     TIP3     H1       HT       0.417000       1.00800           0
     46461 TIP3     7381     TIP3     H2       HT       0.417000       1.00800           0
     46462 TIP3     7382     TIP3     OH2      OT      -0.834000       15.9994           0
     46463 TIP3     7382     TIP3     H1       HT       0.417000       1.00800           0
     46464 TIP3     7382     TIP3     H2       HT       0.417000       1.00800           0
     46465 TIP3     7383     TIP3     OH2      OT      -0.834000       15.9994           0
     46466 TIP3     7383     TIP3     H1       HT       0.417000       1.00800           0
     46467 TIP3     7383     TIP3     H2       HT       0.417000       1.00800           0
     46468 TIP3     7384     TIP3     OH2      OT      -0.834000       15.9994           0
     46469 TIP3     7384     TIP3     H1       HT       0.417000       1.00800           0
     46470 TIP3     7384     TIP3     H2       HT       0.417000       1.00800           0
     46471 TIP3     7385     TIP3     OH2      OT      -0.834000       15.9994           0
     46472 TIP3     7385     TIP3     H1       HT       0.417000       1.00800           0
     46473 TIP3     7385     TIP3     H2       HT       0.417000       1.00800           0
     46474 TIP3     7386     TIP3     OH2      OT      -0.834000       15.9994           0
     46475 TIP3     7386     TIP3     H1       HT       0.417000       1.00800           0
     46476 TIP3     7386     TIP3     H2       HT       0.417000       1.00800           0
     46477 TIP3     7387     TIP3     OH2      OT      -0.834000       15.9994           0
     46478 TIP3     7387     TIP3     H1       HT       0.417000       1.00800           0
     46479 TIP3     7387     TIP3     H2       HT       0.417000       1.00800           0
     46480 TIP3     7388     TIP3     OH2      OT      -0.834000       15.9994           0
     46481 TIP3     7388     TIP3     H1       HT       0.417000       1.00800           0
     46482 TIP3     7388     TIP3     H2       HT       0.417000       1.00800           0
     46483 TIP3     7389     TIP3     OH2      OT      -0.834000       15.9994           0
     46484 TIP3     7389     TIP3     H1       HT       0.417000       1.00800           0
     46485 TIP3     7389     TIP3     H2       HT       0.417000       1.00800           0
     46486 TIP3     7390     TIP3     OH2      OT      -0.834000       15.9994           0
     46487 TIP3     7390     TIP3     H1       HT       0.417000       1.00800           0
     46488 TIP3     7390     TIP3     H2       HT       0.417000       1.00800           0
     46489 TIP3     7391     TIP3     OH2      OT      -0.834000       15.9994           0
     46490 TIP3     7391     TIP3     H1       HT       0.417000       1.00800           0
     46491 TIP3     7391     TIP3     H2       HT       0.417000       1.00800           0
     46492 TIP3     7392     TIP3     OH2      OT      -0.834000       15.9994           0
     46493 TIP3     7392     TIP3     H1       HT       0.417000       1.00800           0
     46494 TIP3     7392     TIP3     H2       HT       0.417000       1.00800           0
     46495 TIP3     7393     TIP3     OH2      OT      -0.834000       15.9994           0
     46496 TIP3     7393     TIP3     H1       HT       0.417000       1.00800           0
     46497 TIP3     7393     TIP3     H2       HT       0.417000       1.00800           0
     46498 TIP3     7394     TIP3     OH2      OT      -0.834000       15.9994           0
     46499 TIP3     7394     TIP3     H1       HT       0.417000       1.00800           0
     46500 TIP3     7394     TIP3     H2       HT       0.417000       1.00800           0
     46501 TIP3     7395     TIP3     OH2      OT      -0.834000       15.9994           0
     46502 TIP3     7395     TIP3     H1       HT       0.417000       1.00800           0
     46503 TIP3     7395     TIP3     H2       HT       0.417000       1.00800           0
     46504 TIP3     7396     TIP3     OH2      OT      -0.834000       15.9994           0
     46505 TIP3     7396     TIP3     H1       HT       0.417000       1.00800           0
     46506 TIP3     7396     TIP3     H2       HT       0.417000       1.00800           0
     46507 TIP3     7397     TIP3     OH2      OT      -0.834000       15.9994           0
     46508 TIP3     7397     TIP3     H1       HT       0.417000       1.00800           0
     46509 TIP3     7397     TIP3     H2       HT       0.417000       1.00800           0
     46510 TIP3     7398     TIP3     OH2      OT      -0.834000       15.9994           0
     46511 TIP3     7398     TIP3     H1       HT       0.417000       1.00800           0
     46512 TIP3     7398     TIP3     H2       HT       0.417000       1.00800           0
     46513 TIP3     7399     TIP3     OH2      OT      -0.834000       15.9994           0
     46514 TIP3     7399     TIP3     H1       HT       0.417000       1.00800           0
     46515 TIP3     7399     TIP3     H2       HT       0.417000       1.00800           0
     46516 TIP3     7400     TIP3     OH2      OT      -0.834000       15.9994           0
     46517 TIP3     7400     TIP3     H1       HT       0.417000       1.00800           0
     46518 TIP3     7400     TIP3     H2       HT       0.417000       1.00800           0
     46519 TIP3     7401     TIP3     OH2      OT      -0.834000       15.9994           0
     46520 TIP3     7401     TIP3     H1       HT       0.417000       1.00800           0
     46521 TIP3     7401     TIP3     H2       HT       0.417000       1.00800           0
     46522 TIP3     7402     TIP3     OH2      OT      -0.834000       15.9994           0
     46523 TIP3     7402     TIP3     H1       HT       0.417000       1.00800           0
     46524 TIP3     7402     TIP3     H2       HT       0.417000       1.00800           0
     46525 TIP3     7403     TIP3     OH2      OT      -0.834000       15.9994           0
     46526 TIP3     7403     TIP3     H1       HT       0.417000       1.00800           0
     46527 TIP3     7403     TIP3     H2       HT       0.417000       1.00800           0
     46528 TIP3     7404     TIP3     OH2      OT      -0.834000       15.9994           0
     46529 TIP3     7404     TIP3     H1       HT       0.417000       1.00800           0
     46530 TIP3     7404     TIP3     H2       HT       0.417000       1.00800           0
     46531 TIP3     7405     TIP3     OH2      OT      -0.834000       15.9994           0
     46532 TIP3     7405     TIP3     H1       HT       0.417000       1.00800           0
     46533 TIP3     7405     TIP3     H2       HT       0.417000       1.00800           0
     46534 TIP3     7406     TIP3     OH2      OT      -0.834000       15.9994           0
     46535 TIP3     7406     TIP3     H1       HT       0.417000       1.00800           0
     46536 TIP3     7406     TIP3     H2       HT       0.417000       1.00800           0
     46537 TIP3     7407     TIP3     OH2      OT      -0.834000       15.9994           0
     46538 TIP3     7407     TIP3     H1       HT       0.417000       1.00800           0
     46539 TIP3     7407     TIP3     H2       HT       0.417000       1.00800           0
     46540 TIP3     7408     TIP3     OH2      OT      -0.834000       15.9994           0
     46541 TIP3     7408     TIP3     H1       HT       0.417000       1.00800           0
     46542 TIP3     7408     TIP3     H2       HT       0.417000       1.00800           0
     46543 TIP3     7409     TIP3     OH2      OT      -0.834000       15.9994           0
     46544 TIP3     7409     TIP3     H1       HT       0.417000       1.00800           0
     46545 TIP3     7409     TIP3     H2       HT       0.417000       1.00800           0
     46546 TIP3     7410     TIP3     OH2      OT      -0.834000       15.9994           0
     46547 TIP3     7410     TIP3     H1       HT       0.417000       1.00800           0
     46548 TIP3     7410     TIP3     H2       HT       0.417000       1.00800           0
     46549 TIP3     7411     TIP3     OH2      OT      -0.834000       15.9994           0
     46550 TIP3     7411     TIP3     H1       HT       0.417000       1.00800           0
     46551 TIP3     7411     TIP3     H2       HT       0.417000       1.00800           0
     46552 TIP3     7412     TIP3     OH2      OT      -0.834000       15.9994           0
     46553 TIP3     7412     TIP3     H1       HT       0.417000       1.00800           0
     46554 TIP3     7412     TIP3     H2       HT       0.417000       1.00800           0
     46555 TIP3     7413     TIP3     OH2      OT      -0.834000       15.9994           0
     46556 TIP3     7413     TIP3     H1       HT       0.417000       1.00800           0
     46557 TIP3     7413     TIP3     H2       HT       0.417000       1.00800           0
     46558 TIP3     7414     TIP3     OH2      OT      -0.834000       15.9994           0
     46559 TIP3     7414     TIP3     H1       HT       0.417000       1.00800           0
     46560 TIP3     7414     TIP3     H2       HT       0.417000       1.00800           0
     46561 TIP3     7415     TIP3     OH2      OT      -0.834000       15.9994           0
     46562 TIP3     7415     TIP3     H1       HT       0.417000       1.00800           0
     46563 TIP3     7415     TIP3     H2       HT       0.417000       1.00800           0
     46564 TIP3     7416     TIP3     OH2      OT      -0.834000       15.9994           0
     46565 TIP3     7416     TIP3     H1       HT       0.417000       1.00800           0
     46566 TIP3     7416     TIP3     H2       HT       0.417000       1.00800           0
     46567 TIP3     7417     TIP3     OH2      OT      -0.834000       15.9994           0
     46568 TIP3     7417     TIP3     H1       HT       0.417000       1.00800           0
     46569 TIP3     7417     TIP3     H2       HT       0.417000       1.00800           0
     46570 TIP3     7418     TIP3     OH2      OT      -0.834000       15.9994           0
     46571 TIP3     7418     TIP3     H1       HT       0.417000       1.00800           0
     46572 TIP3     7418     TIP3     H2       HT       0.417000       1.00800           0
     46573 TIP3     7419     TIP3     OH2      OT      -0.834000       15.9994           0
     46574 TIP3     7419     TIP3     H1       HT       0.417000       1.00800           0
     46575 TIP3     7419     TIP3     H2       HT       0.417000       1.00800           0
     46576 TIP3     7420     TIP3     OH2      OT      -0.834000       15.9994           0
     46577 TIP3     7420     TIP3     H1       HT       0.417000       1.00800           0
     46578 TIP3     7420     TIP3     H2       HT       0.417000       1.00800           0
     46579 TIP3     7421     TIP3     OH2      OT      -0.834000       15.9994           0
     46580 TIP3     7421     TIP3     H1       HT       0.417000       1.00800           0
     46581 TIP3     7421     TIP3     H2       HT       0.417000       1.00800           0
     46582 TIP3     7422     TIP3     OH2      OT      -0.834000       15.9994           0
     46583 TIP3     7422     TIP3     H1       HT       0.417000       1.00800           0
     46584 TIP3     7422     TIP3     H2       HT       0.417000       1.00800           0
     46585 TIP3     7423     TIP3     OH2      OT      -0.834000       15.9994           0
     46586 TIP3     7423     TIP3     H1       HT       0.417000       1.00800           0
     46587 TIP3     7423     TIP3     H2       HT       0.417000       1.00800           0
     46588 TIP3     7424     TIP3     OH2      OT      -0.834000       15.9994           0
     46589 TIP3     7424     TIP3     H1       HT       0.417000       1.00800           0
     46590 TIP3     7424     TIP3     H2       HT       0.417000       1.00800           0
     46591 TIP3     7425     TIP3     OH2      OT      -0.834000       15.9994           0
     46592 TIP3     7425     TIP3     H1       HT       0.417000       1.00800           0
     46593 TIP3     7425     TIP3     H2       HT       0.417000       1.00800           0
     46594 TIP3     7426     TIP3     OH2      OT      -0.834000       15.9994           0
     46595 TIP3     7426     TIP3     H1       HT       0.417000       1.00800           0
     46596 TIP3     7426     TIP3     H2       HT       0.417000       1.00800           0
     46597 TIP3     7427     TIP3     OH2      OT      -0.834000       15.9994           0
     46598 TIP3     7427     TIP3     H1       HT       0.417000       1.00800           0
     46599 TIP3     7427     TIP3     H2       HT       0.417000       1.00800           0
     46600 TIP3     7428     TIP3     OH2      OT      -0.834000       15.9994           0
     46601 TIP3     7428     TIP3     H1       HT       0.417000       1.00800           0
     46602 TIP3     7428     TIP3     H2       HT       0.417000       1.00800           0
     46603 TIP3     7429     TIP3     OH2      OT      -0.834000       15.9994           0
     46604 TIP3     7429     TIP3     H1       HT       0.417000       1.00800           0
     46605 TIP3     7429     TIP3     H2       HT       0.417000       1.00800           0
     46606 TIP3     7430     TIP3     OH2      OT      -0.834000       15.9994           0
     46607 TIP3     7430     TIP3     H1       HT       0.417000       1.00800           0
     46608 TIP3     7430     TIP3     H2       HT       0.417000       1.00800           0
     46609 TIP3     7431     TIP3     OH2      OT      -0.834000       15.9994           0
     46610 TIP3     7431     TIP3     H1       HT       0.417000       1.00800           0
     46611 TIP3     7431     TIP3     H2       HT       0.417000       1.00800           0
     46612 TIP3     7432     TIP3     OH2      OT      -0.834000       15.9994           0
     46613 TIP3     7432     TIP3     H1       HT       0.417000       1.00800           0
     46614 TIP3     7432     TIP3     H2       HT       0.417000       1.00800           0
     46615 TIP3     7433     TIP3     OH2      OT      -0.834000       15.9994           0
     46616 TIP3     7433     TIP3     H1       HT       0.417000       1.00800           0
     46617 TIP3     7433     TIP3     H2       HT       0.417000       1.00800           0
     46618 TIP3     7434     TIP3     OH2      OT      -0.834000       15.9994           0
     46619 TIP3     7434     TIP3     H1       HT       0.417000       1.00800           0
     46620 TIP3     7434     TIP3     H2       HT       0.417000       1.00800           0
     46621 TIP3     7435     TIP3     OH2      OT      -0.834000       15.9994           0
     46622 TIP3     7435     TIP3     H1       HT       0.417000       1.00800           0
     46623 TIP3     7435     TIP3     H2       HT       0.417000       1.00800           0
     46624 TIP3     7436     TIP3     OH2      OT      -0.834000       15.9994           0
     46625 TIP3     7436     TIP3     H1       HT       0.417000       1.00800           0
     46626 TIP3     7436     TIP3     H2       HT       0.417000       1.00800           0
     46627 TIP3     7437     TIP3     OH2      OT      -0.834000       15.9994           0
     46628 TIP3     7437     TIP3     H1       HT       0.417000       1.00800           0
     46629 TIP3     7437     TIP3     H2       HT       0.417000       1.00800           0
     46630 TIP3     7438     TIP3     OH2      OT      -0.834000       15.9994           0
     46631 TIP3     7438     TIP3     H1       HT       0.417000       1.00800           0
     46632 TIP3     7438     TIP3     H2       HT       0.417000       1.00800           0
     46633 TIP3     7439     TIP3     OH2      OT      -0.834000       15.9994           0
     46634 TIP3     7439     TIP3     H1       HT       0.417000       1.00800           0
     46635 TIP3     7439     TIP3     H2       HT       0.417000       1.00800           0
     46636 TIP3     7440     TIP3     OH2      OT      -0.834000       15.9994           0
     46637 TIP3     7440     TIP3     H1       HT       0.417000       1.00800           0
     46638 TIP3     7440     TIP3     H2       HT       0.417000       1.00800           0
     46639 TIP3     7441     TIP3     OH2      OT      -0.834000       15.9994           0
     46640 TIP3     7441     TIP3     H1       HT       0.417000       1.00800           0
     46641 TIP3     7441     TIP3     H2       HT       0.417000       1.00800           0
     46642 TIP3     7442     TIP3     OH2      OT      -0.834000       15.9994           0
     46643 TIP3     7442     TIP3     H1       HT       0.417000       1.00800           0
     46644 TIP3     7442     TIP3     H2       HT       0.417000       1.00800           0
     46645 TIP3     7443     TIP3     OH2      OT      -0.834000       15.9994           0
     46646 TIP3     7443     TIP3     H1       HT       0.417000       1.00800           0
     46647 TIP3     7443     TIP3     H2       HT       0.417000       1.00800           0
     46648 TIP3     7444     TIP3     OH2      OT      -0.834000       15.9994           0
     46649 TIP3     7444     TIP3     H1       HT       0.417000       1.00800           0
     46650 TIP3     7444     TIP3     H2       HT       0.417000       1.00800           0
     46651 TIP3     7445     TIP3     OH2      OT      -0.834000       15.9994           0
     46652 TIP3     7445     TIP3     H1       HT       0.417000       1.00800           0
     46653 TIP3     7445     TIP3     H2       HT       0.417000       1.00800           0
     46654 TIP3     7446     TIP3     OH2      OT      -0.834000       15.9994           0
     46655 TIP3     7446     TIP3     H1       HT       0.417000       1.00800           0
     46656 TIP3     7446     TIP3     H2       HT       0.417000       1.00800           0
     46657 TIP3     7447     TIP3     OH2      OT      -0.834000       15.9994           0
     46658 TIP3     7447     TIP3     H1       HT       0.417000       1.00800           0
     46659 TIP3     7447     TIP3     H2       HT       0.417000       1.00800           0
     46660 TIP3     7448     TIP3     OH2      OT      -0.834000       15.9994           0
     46661 TIP3     7448     TIP3     H1       HT       0.417000       1.00800           0
     46662 TIP3     7448     TIP3     H2       HT       0.417000       1.00800           0
     46663 TIP3     7449     TIP3     OH2      OT      -0.834000       15.9994           0
     46664 TIP3     7449     TIP3     H1       HT       0.417000       1.00800           0
     46665 TIP3     7449     TIP3     H2       HT       0.417000       1.00800           0
     46666 TIP3     7450     TIP3     OH2      OT      -0.834000       15.9994           0
     46667 TIP3     7450     TIP3     H1       HT       0.417000       1.00800           0
     46668 TIP3     7450     TIP3     H2       HT       0.417000       1.00800           0
     46669 TIP3     7451     TIP3     OH2      OT      -0.834000       15.9994           0
     46670 TIP3     7451     TIP3     H1       HT       0.417000       1.00800           0
     46671 TIP3     7451     TIP3     H2       HT       0.417000       1.00800           0
     46672 TIP3     7452     TIP3     OH2      OT      -0.834000       15.9994           0
     46673 TIP3     7452     TIP3     H1       HT       0.417000       1.00800           0
     46674 TIP3     7452     TIP3     H2       HT       0.417000       1.00800           0
     46675 TIP3     7453     TIP3     OH2      OT      -0.834000       15.9994           0
     46676 TIP3     7453     TIP3     H1       HT       0.417000       1.00800           0
     46677 TIP3     7453     TIP3     H2       HT       0.417000       1.00800           0
     46678 TIP3     7454     TIP3     OH2      OT      -0.834000       15.9994           0
     46679 TIP3     7454     TIP3     H1       HT       0.417000       1.00800           0
     46680 TIP3     7454     TIP3     H2       HT       0.417000       1.00800           0
     46681 TIP3     7455     TIP3     OH2      OT      -0.834000       15.9994           0
     46682 TIP3     7455     TIP3     H1       HT       0.417000       1.00800           0
     46683 TIP3     7455     TIP3     H2       HT       0.417000       1.00800           0
     46684 TIP3     7456     TIP3     OH2      OT      -0.834000       15.9994           0
     46685 TIP3     7456     TIP3     H1       HT       0.417000       1.00800           0
     46686 TIP3     7456     TIP3     H2       HT       0.417000       1.00800           0
     46687 TIP3     7457     TIP3     OH2      OT      -0.834000       15.9994           0
     46688 TIP3     7457     TIP3     H1       HT       0.417000       1.00800           0
     46689 TIP3     7457     TIP3     H2       HT       0.417000       1.00800           0
     46690 TIP3     7458     TIP3     OH2      OT      -0.834000       15.9994           0
     46691 TIP3     7458     TIP3     H1       HT       0.417000       1.00800           0
     46692 TIP3     7458     TIP3     H2       HT       0.417000       1.00800           0
     46693 TIP3     7459     TIP3     OH2      OT      -0.834000       15.9994           0
     46694 TIP3     7459     TIP3     H1       HT       0.417000       1.00800           0
     46695 TIP3     7459     TIP3     H2       HT       0.417000       1.00800           0
     46696 TIP3     7460     TIP3     OH2      OT      -0.834000       15.9994           0
     46697 TIP3     7460     TIP3     H1       HT       0.417000       1.00800           0
     46698 TIP3     7460     TIP3     H2       HT       0.417000       1.00800           0
     46699 TIP3     7461     TIP3     OH2      OT      -0.834000       15.9994           0
     46700 TIP3     7461     TIP3     H1       HT       0.417000       1.00800           0
     46701 TIP3     7461     TIP3     H2       HT       0.417000       1.00800           0
     46702 TIP3     7462     TIP3     OH2      OT      -0.834000       15.9994           0
     46703 TIP3     7462     TIP3     H1       HT       0.417000       1.00800           0
     46704 TIP3     7462     TIP3     H2       HT       0.417000       1.00800           0
     46705 TIP3     7463     TIP3     OH2      OT      -0.834000       15.9994           0
     46706 TIP3     7463     TIP3     H1       HT       0.417000       1.00800           0
     46707 TIP3     7463     TIP3     H2       HT       0.417000       1.00800           0
     46708 TIP3     7464     TIP3     OH2      OT      -0.834000       15.9994           0
     46709 TIP3     7464     TIP3     H1       HT       0.417000       1.00800           0
     46710 TIP3     7464     TIP3     H2       HT       0.417000       1.00800           0
     46711 TIP3     7465     TIP3     OH2      OT      -0.834000       15.9994           0
     46712 TIP3     7465     TIP3     H1       HT       0.417000       1.00800           0
     46713 TIP3     7465     TIP3     H2       HT       0.417000       1.00800           0
     46714 TIP3     7466     TIP3     OH2      OT      -0.834000       15.9994           0
     46715 TIP3     7466     TIP3     H1       HT       0.417000       1.00800           0
     46716 TIP3     7466     TIP3     H2       HT       0.417000       1.00800           0
     46717 TIP3     7467     TIP3     OH2      OT      -0.834000       15.9994           0
     46718 TIP3     7467     TIP3     H1       HT       0.417000       1.00800           0
     46719 TIP3     7467     TIP3     H2       HT       0.417000       1.00800           0
     46720 TIP3     7468     TIP3     OH2      OT      -0.834000       15.9994           0
     46721 TIP3     7468     TIP3     H1       HT       0.417000       1.00800           0
     46722 TIP3     7468     TIP3     H2       HT       0.417000       1.00800           0
     46723 TIP3     7469     TIP3     OH2      OT      -0.834000       15.9994           0
     46724 TIP3     7469     TIP3     H1       HT       0.417000       1.00800           0
     46725 TIP3     7469     TIP3     H2       HT       0.417000       1.00800           0
     46726 TIP3     7470     TIP3     OH2      OT      -0.834000       15.9994           0
     46727 TIP3     7470     TIP3     H1       HT       0.417000       1.00800           0
     46728 TIP3     7470     TIP3     H2       HT       0.417000       1.00800           0
     46729 TIP3     7471     TIP3     OH2      OT      -0.834000       15.9994           0
     46730 TIP3     7471     TIP3     H1       HT       0.417000       1.00800           0
     46731 TIP3     7471     TIP3     H2       HT       0.417000       1.00800           0
     46732 TIP3     7472     TIP3     OH2      OT      -0.834000       15.9994           0
     46733 TIP3     7472     TIP3     H1       HT       0.417000       1.00800           0
     46734 TIP3     7472     TIP3     H2       HT       0.417000       1.00800           0
     46735 TIP3     7473     TIP3     OH2      OT      -0.834000       15.9994           0
     46736 TIP3     7473     TIP3     H1       HT       0.417000       1.00800           0
     46737 TIP3     7473     TIP3     H2       HT       0.417000       1.00800           0
     46738 TIP3     7474     TIP3     OH2      OT      -0.834000       15.9994           0
     46739 TIP3     7474     TIP3     H1       HT       0.417000       1.00800           0
     46740 TIP3     7474     TIP3     H2       HT       0.417000       1.00800           0
     46741 TIP3     7475     TIP3     OH2      OT      -0.834000       15.9994           0
     46742 TIP3     7475     TIP3     H1       HT       0.417000       1.00800           0
     46743 TIP3     7475     TIP3     H2       HT       0.417000       1.00800           0
     46744 TIP3     7476     TIP3     OH2      OT      -0.834000       15.9994           0
     46745 TIP3     7476     TIP3     H1       HT       0.417000       1.00800           0
     46746 TIP3     7476     TIP3     H2       HT       0.417000       1.00800           0
     46747 TIP3     7477     TIP3     OH2      OT      -0.834000       15.9994           0
     46748 TIP3     7477     TIP3     H1       HT       0.417000       1.00800           0
     46749 TIP3     7477     TIP3     H2       HT       0.417000       1.00800           0
     46750 TIP3     7478     TIP3     OH2      OT      -0.834000       15.9994           0
     46751 TIP3     7478     TIP3     H1       HT       0.417000       1.00800           0
     46752 TIP3     7478     TIP3     H2       HT       0.417000       1.00800           0
     46753 TIP3     7479     TIP3     OH2      OT      -0.834000       15.9994           0
     46754 TIP3     7479     TIP3     H1       HT       0.417000       1.00800           0
     46755 TIP3     7479     TIP3     H2       HT       0.417000       1.00800           0
     46756 TIP3     7480     TIP3     OH2      OT      -0.834000       15.9994           0
     46757 TIP3     7480     TIP3     H1       HT       0.417000       1.00800           0
     46758 TIP3     7480     TIP3     H2       HT       0.417000       1.00800           0
     46759 TIP3     7481     TIP3     OH2      OT      -0.834000       15.9994           0
     46760 TIP3     7481     TIP3     H1       HT       0.417000       1.00800           0
     46761 TIP3     7481     TIP3     H2       HT       0.417000       1.00800           0
     46762 TIP3     7482     TIP3     OH2      OT      -0.834000       15.9994           0
     46763 TIP3     7482     TIP3     H1       HT       0.417000       1.00800           0
     46764 TIP3     7482     TIP3     H2       HT       0.417000       1.00800           0
     46765 TIP3     7483     TIP3     OH2      OT      -0.834000       15.9994           0
     46766 TIP3     7483     TIP3     H1       HT       0.417000       1.00800           0
     46767 TIP3     7483     TIP3     H2       HT       0.417000       1.00800           0
     46768 TIP3     7484     TIP3     OH2      OT      -0.834000       15.9994           0
     46769 TIP3     7484     TIP3     H1       HT       0.417000       1.00800           0
     46770 TIP3     7484     TIP3     H2       HT       0.417000       1.00800           0
     46771 TIP3     7485     TIP3     OH2      OT      -0.834000       15.9994           0
     46772 TIP3     7485     TIP3     H1       HT       0.417000       1.00800           0
     46773 TIP3     7485     TIP3     H2       HT       0.417000       1.00800           0
     46774 TIP3     7486     TIP3     OH2      OT      -0.834000       15.9994           0
     46775 TIP3     7486     TIP3     H1       HT       0.417000       1.00800           0
     46776 TIP3     7486     TIP3     H2       HT       0.417000       1.00800           0
     46777 TIP3     7487     TIP3     OH2      OT      -0.834000       15.9994           0
     46778 TIP3     7487     TIP3     H1       HT       0.417000       1.00800           0
     46779 TIP3     7487     TIP3     H2       HT       0.417000       1.00800           0
     46780 TIP3     7488     TIP3     OH2      OT      -0.834000       15.9994           0
     46781 TIP3     7488     TIP3     H1       HT       0.417000       1.00800           0
     46782 TIP3     7488     TIP3     H2       HT       0.417000       1.00800           0
     46783 TIP3     7489     TIP3     OH2      OT      -0.834000       15.9994           0
     46784 TIP3     7489     TIP3     H1       HT       0.417000       1.00800           0
     46785 TIP3     7489     TIP3     H2       HT       0.417000       1.00800           0
     46786 TIP3     7490     TIP3     OH2      OT      -0.834000       15.9994           0
     46787 TIP3     7490     TIP3     H1       HT       0.417000       1.00800           0
     46788 TIP3     7490     TIP3     H2       HT       0.417000       1.00800           0
     46789 TIP3     7491     TIP3     OH2      OT      -0.834000       15.9994           0
     46790 TIP3     7491     TIP3     H1       HT       0.417000       1.00800           0
     46791 TIP3     7491     TIP3     H2       HT       0.417000       1.00800           0
     46792 TIP3     7492     TIP3     OH2      OT      -0.834000       15.9994           0
     46793 TIP3     7492     TIP3     H1       HT       0.417000       1.00800           0
     46794 TIP3     7492     TIP3     H2       HT       0.417000       1.00800           0
     46795 TIP3     7493     TIP3     OH2      OT      -0.834000       15.9994           0
     46796 TIP3     7493     TIP3     H1       HT       0.417000       1.00800           0
     46797 TIP3     7493     TIP3     H2       HT       0.417000       1.00800           0
     46798 TIP3     7494     TIP3     OH2      OT      -0.834000       15.9994           0
     46799 TIP3     7494     TIP3     H1       HT       0.417000       1.00800           0
     46800 TIP3     7494     TIP3     H2       HT       0.417000       1.00800           0
     46801 TIP3     7495     TIP3     OH2      OT      -0.834000       15.9994           0
     46802 TIP3     7495     TIP3     H1       HT       0.417000       1.00800           0
     46803 TIP3     7495     TIP3     H2       HT       0.417000       1.00800           0
     46804 TIP3     7496     TIP3     OH2      OT      -0.834000       15.9994           0
     46805 TIP3     7496     TIP3     H1       HT       0.417000       1.00800           0
     46806 TIP3     7496     TIP3     H2       HT       0.417000       1.00800           0
     46807 TIP3     7497     TIP3     OH2      OT      -0.834000       15.9994           0
     46808 TIP3     7497     TIP3     H1       HT       0.417000       1.00800           0
     46809 TIP3     7497     TIP3     H2       HT       0.417000       1.00800           0
     46810 TIP3     7498     TIP3     OH2      OT      -0.834000       15.9994           0
     46811 TIP3     7498     TIP3     H1       HT       0.417000       1.00800           0
     46812 TIP3     7498     TIP3     H2       HT       0.417000       1.00800           0
     46813 TIP3     7499     TIP3     OH2      OT      -0.834000       15.9994           0
     46814 TIP3     7499     TIP3     H1       HT       0.417000       1.00800           0
     46815 TIP3     7499     TIP3     H2       HT       0.417000       1.00800           0
     46816 TIP3     7500     TIP3     OH2      OT      -0.834000       15.9994           0
     46817 TIP3     7500     TIP3     H1       HT       0.417000       1.00800           0
     46818 TIP3     7500     TIP3     H2       HT       0.417000       1.00800           0
     46819 TIP3     7501     TIP3     OH2      OT      -0.834000       15.9994           0
     46820 TIP3     7501     TIP3     H1       HT       0.417000       1.00800           0
     46821 TIP3     7501     TIP3     H2       HT       0.417000       1.00800           0
     46822 TIP3     7502     TIP3     OH2      OT      -0.834000       15.9994           0
     46823 TIP3     7502     TIP3     H1       HT       0.417000       1.00800           0
     46824 TIP3     7502     TIP3     H2       HT       0.417000       1.00800           0
     46825 TIP3     7503     TIP3     OH2      OT      -0.834000       15.9994           0
     46826 TIP3     7503     TIP3     H1       HT       0.417000       1.00800           0
     46827 TIP3     7503     TIP3     H2       HT       0.417000       1.00800           0
     46828 TIP3     7504     TIP3     OH2      OT      -0.834000       15.9994           0
     46829 TIP3     7504     TIP3     H1       HT       0.417000       1.00800           0
     46830 TIP3     7504     TIP3     H2       HT       0.417000       1.00800           0
     46831 TIP3     7505     TIP3     OH2      OT      -0.834000       15.9994           0
     46832 TIP3     7505     TIP3     H1       HT       0.417000       1.00800           0
     46833 TIP3     7505     TIP3     H2       HT       0.417000       1.00800           0
     46834 TIP3     7506     TIP3     OH2      OT      -0.834000       15.9994           0
     46835 TIP3     7506     TIP3     H1       HT       0.417000       1.00800           0
     46836 TIP3     7506     TIP3     H2       HT       0.417000       1.00800           0
     46837 TIP3     7507     TIP3     OH2      OT      -0.834000       15.9994           0
     46838 TIP3     7507     TIP3     H1       HT       0.417000       1.00800           0
     46839 TIP3     7507     TIP3     H2       HT       0.417000       1.00800           0
     46840 TIP3     7508     TIP3     OH2      OT      -0.834000       15.9994           0
     46841 TIP3     7508     TIP3     H1       HT       0.417000       1.00800           0
     46842 TIP3     7508     TIP3     H2       HT       0.417000       1.00800           0
     46843 TIP3     7509     TIP3     OH2      OT      -0.834000       15.9994           0
     46844 TIP3     7509     TIP3     H1       HT       0.417000       1.00800           0
     46845 TIP3     7509     TIP3     H2       HT       0.417000       1.00800           0
     46846 TIP3     7510     TIP3     OH2      OT      -0.834000       15.9994           0
     46847 TIP3     7510     TIP3     H1       HT       0.417000       1.00800           0
     46848 TIP3     7510     TIP3     H2       HT       0.417000       1.00800           0
     46849 TIP3     7511     TIP3     OH2      OT      -0.834000       15.9994           0
     46850 TIP3     7511     TIP3     H1       HT       0.417000       1.00800           0
     46851 TIP3     7511     TIP3     H2       HT       0.417000       1.00800           0
     46852 TIP3     7512     TIP3     OH2      OT      -0.834000       15.9994           0
     46853 TIP3     7512     TIP3     H1       HT       0.417000       1.00800           0
     46854 TIP3     7512     TIP3     H2       HT       0.417000       1.00800           0
     46855 TIP3     7513     TIP3     OH2      OT      -0.834000       15.9994           0
     46856 TIP3     7513     TIP3     H1       HT       0.417000       1.00800           0
     46857 TIP3     7513     TIP3     H2       HT       0.417000       1.00800           0
     46858 TIP3     7514     TIP3     OH2      OT      -0.834000       15.9994           0
     46859 TIP3     7514     TIP3     H1       HT       0.417000       1.00800           0
     46860 TIP3     7514     TIP3     H2       HT       0.417000       1.00800           0
     46861 TIP3     7515     TIP3     OH2      OT      -0.834000       15.9994           0
     46862 TIP3     7515     TIP3     H1       HT       0.417000       1.00800           0
     46863 TIP3     7515     TIP3     H2       HT       0.417000       1.00800           0
     46864 TIP3     7516     TIP3     OH2      OT      -0.834000       15.9994           0
     46865 TIP3     7516     TIP3     H1       HT       0.417000       1.00800           0
     46866 TIP3     7516     TIP3     H2       HT       0.417000       1.00800           0
     46867 TIP3     7517     TIP3     OH2      OT      -0.834000       15.9994           0
     46868 TIP3     7517     TIP3     H1       HT       0.417000       1.00800           0
     46869 TIP3     7517     TIP3     H2       HT       0.417000       1.00800           0
     46870 TIP3     7518     TIP3     OH2      OT      -0.834000       15.9994           0
     46871 TIP3     7518     TIP3     H1       HT       0.417000       1.00800           0
     46872 TIP3     7518     TIP3     H2       HT       0.417000       1.00800           0
     46873 TIP3     7519     TIP3     OH2      OT      -0.834000       15.9994           0
     46874 TIP3     7519     TIP3     H1       HT       0.417000       1.00800           0
     46875 TIP3     7519     TIP3     H2       HT       0.417000       1.00800           0
     46876 TIP3     7520     TIP3     OH2      OT      -0.834000       15.9994           0
     46877 TIP3     7520     TIP3     H1       HT       0.417000       1.00800           0
     46878 TIP3     7520     TIP3     H2       HT       0.417000       1.00800           0
     46879 TIP3     7521     TIP3     OH2      OT      -0.834000       15.9994           0
     46880 TIP3     7521     TIP3     H1       HT       0.417000       1.00800           0
     46881 TIP3     7521     TIP3     H2       HT       0.417000       1.00800           0
     46882 TIP3     7522     TIP3     OH2      OT      -0.834000       15.9994           0
     46883 TIP3     7522     TIP3     H1       HT       0.417000       1.00800           0
     46884 TIP3     7522     TIP3     H2       HT       0.417000       1.00800           0
     46885 TIP3     7523     TIP3     OH2      OT      -0.834000       15.9994           0
     46886 TIP3     7523     TIP3     H1       HT       0.417000       1.00800           0
     46887 TIP3     7523     TIP3     H2       HT       0.417000       1.00800           0
     46888 TIP3     7524     TIP3     OH2      OT      -0.834000       15.9994           0
     46889 TIP3     7524     TIP3     H1       HT       0.417000       1.00800           0
     46890 TIP3     7524     TIP3     H2       HT       0.417000       1.00800           0
     46891 TIP3     7525     TIP3     OH2      OT      -0.834000       15.9994           0
     46892 TIP3     7525     TIP3     H1       HT       0.417000       1.00800           0
     46893 TIP3     7525     TIP3     H2       HT       0.417000       1.00800           0
     46894 TIP3     7526     TIP3     OH2      OT      -0.834000       15.9994           0
     46895 TIP3     7526     TIP3     H1       HT       0.417000       1.00800           0
     46896 TIP3     7526     TIP3     H2       HT       0.417000       1.00800           0
     46897 TIP3     7527     TIP3     OH2      OT      -0.834000       15.9994           0
     46898 TIP3     7527     TIP3     H1       HT       0.417000       1.00800           0
     46899 TIP3     7527     TIP3     H2       HT       0.417000       1.00800           0
     46900 TIP3     7528     TIP3     OH2      OT      -0.834000       15.9994           0
     46901 TIP3     7528     TIP3     H1       HT       0.417000       1.00800           0
     46902 TIP3     7528     TIP3     H2       HT       0.417000       1.00800           0
     46903 TIP3     7529     TIP3     OH2      OT      -0.834000       15.9994           0
     46904 TIP3     7529     TIP3     H1       HT       0.417000       1.00800           0
     46905 TIP3     7529     TIP3     H2       HT       0.417000       1.00800           0
     46906 TIP3     7530     TIP3     OH2      OT      -0.834000       15.9994           0
     46907 TIP3     7530     TIP3     H1       HT       0.417000       1.00800           0
     46908 TIP3     7530     TIP3     H2       HT       0.417000       1.00800           0
     46909 TIP3     7531     TIP3     OH2      OT      -0.834000       15.9994           0
     46910 TIP3     7531     TIP3     H1       HT       0.417000       1.00800           0
     46911 TIP3     7531     TIP3     H2       HT       0.417000       1.00800           0
     46912 TIP3     7532     TIP3     OH2      OT      -0.834000       15.9994           0
     46913 TIP3     7532     TIP3     H1       HT       0.417000       1.00800           0
     46914 TIP3     7532     TIP3     H2       HT       0.417000       1.00800           0
     46915 TIP3     7533     TIP3     OH2      OT      -0.834000       15.9994           0
     46916 TIP3     7533     TIP3     H1       HT       0.417000       1.00800           0
     46917 TIP3     7533     TIP3     H2       HT       0.417000       1.00800           0
     46918 TIP3     7534     TIP3     OH2      OT      -0.834000       15.9994           0
     46919 TIP3     7534     TIP3     H1       HT       0.417000       1.00800           0
     46920 TIP3     7534     TIP3     H2       HT       0.417000       1.00800           0
     46921 TIP3     7535     TIP3     OH2      OT      -0.834000       15.9994           0
     46922 TIP3     7535     TIP3     H1       HT       0.417000       1.00800           0
     46923 TIP3     7535     TIP3     H2       HT       0.417000       1.00800           0
     46924 TIP3     7536     TIP3     OH2      OT      -0.834000       15.9994           0
     46925 TIP3     7536     TIP3     H1       HT       0.417000       1.00800           0
     46926 TIP3     7536     TIP3     H2       HT       0.417000       1.00800           0
     46927 TIP3     7537     TIP3     OH2      OT      -0.834000       15.9994           0
     46928 TIP3     7537     TIP3     H1       HT       0.417000       1.00800           0
     46929 TIP3     7537     TIP3     H2       HT       0.417000       1.00800           0
     46930 TIP3     7538     TIP3     OH2      OT      -0.834000       15.9994           0
     46931 TIP3     7538     TIP3     H1       HT       0.417000       1.00800           0
     46932 TIP3     7538     TIP3     H2       HT       0.417000       1.00800           0
     46933 TIP3     7539     TIP3     OH2      OT      -0.834000       15.9994           0
     46934 TIP3     7539     TIP3     H1       HT       0.417000       1.00800           0
     46935 TIP3     7539     TIP3     H2       HT       0.417000       1.00800           0
     46936 TIP3     7540     TIP3     OH2      OT      -0.834000       15.9994           0
     46937 TIP3     7540     TIP3     H1       HT       0.417000       1.00800           0
     46938 TIP3     7540     TIP3     H2       HT       0.417000       1.00800           0
     46939 TIP3     7541     TIP3     OH2      OT      -0.834000       15.9994           0
     46940 TIP3     7541     TIP3     H1       HT       0.417000       1.00800           0
     46941 TIP3     7541     TIP3     H2       HT       0.417000       1.00800           0
     46942 TIP3     7542     TIP3     OH2      OT      -0.834000       15.9994           0
     46943 TIP3     7542     TIP3     H1       HT       0.417000       1.00800           0
     46944 TIP3     7542     TIP3     H2       HT       0.417000       1.00800           0
     46945 TIP3     7543     TIP3     OH2      OT      -0.834000       15.9994           0
     46946 TIP3     7543     TIP3     H1       HT       0.417000       1.00800           0
     46947 TIP3     7543     TIP3     H2       HT       0.417000       1.00800           0
     46948 TIP3     7544     TIP3     OH2      OT      -0.834000       15.9994           0
     46949 TIP3     7544     TIP3     H1       HT       0.417000       1.00800           0
     46950 TIP3     7544     TIP3     H2       HT       0.417000       1.00800           0
     46951 TIP3     7545     TIP3     OH2      OT      -0.834000       15.9994           0
     46952 TIP3     7545     TIP3     H1       HT       0.417000       1.00800           0
     46953 TIP3     7545     TIP3     H2       HT       0.417000       1.00800           0
     46954 TIP3     7546     TIP3     OH2      OT      -0.834000       15.9994           0
     46955 TIP3     7546     TIP3     H1       HT       0.417000       1.00800           0
     46956 TIP3     7546     TIP3     H2       HT       0.417000       1.00800           0
     46957 TIP3     7547     TIP3     OH2      OT      -0.834000       15.9994           0
     46958 TIP3     7547     TIP3     H1       HT       0.417000       1.00800           0
     46959 TIP3     7547     TIP3     H2       HT       0.417000       1.00800           0
     46960 TIP3     7548     TIP3     OH2      OT      -0.834000       15.9994           0
     46961 TIP3     7548     TIP3     H1       HT       0.417000       1.00800           0
     46962 TIP3     7548     TIP3     H2       HT       0.417000       1.00800           0
     46963 TIP3     7549     TIP3     OH2      OT      -0.834000       15.9994           0
     46964 TIP3     7549     TIP3     H1       HT       0.417000       1.00800           0
     46965 TIP3     7549     TIP3     H2       HT       0.417000       1.00800           0
     46966 TIP3     7550     TIP3     OH2      OT      -0.834000       15.9994           0
     46967 TIP3     7550     TIP3     H1       HT       0.417000       1.00800           0
     46968 TIP3     7550     TIP3     H2       HT       0.417000       1.00800           0
     46969 TIP3     7551     TIP3     OH2      OT      -0.834000       15.9994           0
     46970 TIP3     7551     TIP3     H1       HT       0.417000       1.00800           0
     46971 TIP3     7551     TIP3     H2       HT       0.417000       1.00800           0
     46972 TIP3     7552     TIP3     OH2      OT      -0.834000       15.9994           0
     46973 TIP3     7552     TIP3     H1       HT       0.417000       1.00800           0
     46974 TIP3     7552     TIP3     H2       HT       0.417000       1.00800           0
     46975 TIP3     7553     TIP3     OH2      OT      -0.834000       15.9994           0
     46976 TIP3     7553     TIP3     H1       HT       0.417000       1.00800           0
     46977 TIP3     7553     TIP3     H2       HT       0.417000       1.00800           0
     46978 TIP3     7554     TIP3     OH2      OT      -0.834000       15.9994           0
     46979 TIP3     7554     TIP3     H1       HT       0.417000       1.00800           0
     46980 TIP3     7554     TIP3     H2       HT       0.417000       1.00800           0
     46981 TIP3     7555     TIP3     OH2      OT      -0.834000       15.9994           0
     46982 TIP3     7555     TIP3     H1       HT       0.417000       1.00800           0
     46983 TIP3     7555     TIP3     H2       HT       0.417000       1.00800           0
     46984 TIP3     7556     TIP3     OH2      OT      -0.834000       15.9994           0
     46985 TIP3     7556     TIP3     H1       HT       0.417000       1.00800           0
     46986 TIP3     7556     TIP3     H2       HT       0.417000       1.00800           0
     46987 TIP3     7557     TIP3     OH2      OT      -0.834000       15.9994           0
     46988 TIP3     7557     TIP3     H1       HT       0.417000       1.00800           0
     46989 TIP3     7557     TIP3     H2       HT       0.417000       1.00800           0
     46990 TIP3     7558     TIP3     OH2      OT      -0.834000       15.9994           0
     46991 TIP3     7558     TIP3     H1       HT       0.417000       1.00800           0
     46992 TIP3     7558     TIP3     H2       HT       0.417000       1.00800           0
     46993 TIP3     7559     TIP3     OH2      OT      -0.834000       15.9994           0
     46994 TIP3     7559     TIP3     H1       HT       0.417000       1.00800           0
     46995 TIP3     7559     TIP3     H2       HT       0.417000       1.00800           0
     46996 TIP3     7560     TIP3     OH2      OT      -0.834000       15.9994           0
     46997 TIP3     7560     TIP3     H1       HT       0.417000       1.00800           0
     46998 TIP3     7560     TIP3     H2       HT       0.417000       1.00800           0
     46999 TIP3     7561     TIP3     OH2      OT      -0.834000       15.9994           0
     47000 TIP3     7561     TIP3     H1       HT       0.417000       1.00800           0
     47001 TIP3     7561     TIP3     H2       HT       0.417000       1.00800           0
     47002 TIP3     7562     TIP3     OH2      OT      -0.834000       15.9994           0
     47003 TIP3     7562     TIP3     H1       HT       0.417000       1.00800           0
     47004 TIP3     7562     TIP3     H2       HT       0.417000       1.00800           0
     47005 TIP3     7563     TIP3     OH2      OT      -0.834000       15.9994           0
     47006 TIP3     7563     TIP3     H1       HT       0.417000       1.00800           0
     47007 TIP3     7563     TIP3     H2       HT       0.417000       1.00800           0
     47008 TIP3     7564     TIP3     OH2      OT      -0.834000       15.9994           0
     47009 TIP3     7564     TIP3     H1       HT       0.417000       1.00800           0
     47010 TIP3     7564     TIP3     H2       HT       0.417000       1.00800           0
     47011 TIP3     7565     TIP3     OH2      OT      -0.834000       15.9994           0
     47012 TIP3     7565     TIP3     H1       HT       0.417000       1.00800           0
     47013 TIP3     7565     TIP3     H2       HT       0.417000       1.00800           0
     47014 TIP3     7566     TIP3     OH2      OT      -0.834000       15.9994           0
     47015 TIP3     7566     TIP3     H1       HT       0.417000       1.00800           0
     47016 TIP3     7566     TIP3     H2       HT       0.417000       1.00800           0
     47017 TIP3     7567     TIP3     OH2      OT      -0.834000       15.9994           0
     47018 TIP3     7567     TIP3     H1       HT       0.417000       1.00800           0
     47019 TIP3     7567     TIP3     H2       HT       0.417000       1.00800           0
     47020 TIP3     7568     TIP3     OH2      OT      -0.834000       15.9994           0
     47021 TIP3     7568     TIP3     H1       HT       0.417000       1.00800           0
     47022 TIP3     7568     TIP3     H2       HT       0.417000       1.00800           0
     47023 TIP3     7569     TIP3     OH2      OT      -0.834000       15.9994           0
     47024 TIP3     7569     TIP3     H1       HT       0.417000       1.00800           0
     47025 TIP3     7569     TIP3     H2       HT       0.417000       1.00800           0
     47026 TIP3     7570     TIP3     OH2      OT      -0.834000       15.9994           0
     47027 TIP3     7570     TIP3     H1       HT       0.417000       1.00800           0
     47028 TIP3     7570     TIP3     H2       HT       0.417000       1.00800           0
     47029 TIP3     7571     TIP3     OH2      OT      -0.834000       15.9994           0
     47030 TIP3     7571     TIP3     H1       HT       0.417000       1.00800           0
     47031 TIP3     7571     TIP3     H2       HT       0.417000       1.00800           0
     47032 TIP3     7572     TIP3     OH2      OT      -0.834000       15.9994           0
     47033 TIP3     7572     TIP3     H1       HT       0.417000       1.00800           0
     47034 TIP3     7572     TIP3     H2       HT       0.417000       1.00800           0
     47035 TIP3     7573     TIP3     OH2      OT      -0.834000       15.9994           0
     47036 TIP3     7573     TIP3     H1       HT       0.417000       1.00800           0
     47037 TIP3     7573     TIP3     H2       HT       0.417000       1.00800           0
     47038 TIP3     7574     TIP3     OH2      OT      -0.834000       15.9994           0
     47039 TIP3     7574     TIP3     H1       HT       0.417000       1.00800           0
     47040 TIP3     7574     TIP3     H2       HT       0.417000       1.00800           0
     47041 TIP3     7575     TIP3     OH2      OT      -0.834000       15.9994           0
     47042 TIP3     7575     TIP3     H1       HT       0.417000       1.00800           0
     47043 TIP3     7575     TIP3     H2       HT       0.417000       1.00800           0
     47044 TIP3     7576     TIP3     OH2      OT      -0.834000       15.9994           0
     47045 TIP3     7576     TIP3     H1       HT       0.417000       1.00800           0
     47046 TIP3     7576     TIP3     H2       HT       0.417000       1.00800           0
     47047 TIP3     7577     TIP3     OH2      OT      -0.834000       15.9994           0
     47048 TIP3     7577     TIP3     H1       HT       0.417000       1.00800           0
     47049 TIP3     7577     TIP3     H2       HT       0.417000       1.00800           0
     47050 TIP3     7578     TIP3     OH2      OT      -0.834000       15.9994           0
     47051 TIP3     7578     TIP3     H1       HT       0.417000       1.00800           0
     47052 TIP3     7578     TIP3     H2       HT       0.417000       1.00800           0
     47053 TIP3     7579     TIP3     OH2      OT      -0.834000       15.9994           0
     47054 TIP3     7579     TIP3     H1       HT       0.417000       1.00800           0
     47055 TIP3     7579     TIP3     H2       HT       0.417000       1.00800           0
     47056 TIP3     7580     TIP3     OH2      OT      -0.834000       15.9994           0
     47057 TIP3     7580     TIP3     H1       HT       0.417000       1.00800           0
     47058 TIP3     7580     TIP3     H2       HT       0.417000       1.00800           0
     47059 TIP3     7581     TIP3     OH2      OT      -0.834000       15.9994           0
     47060 TIP3     7581     TIP3     H1       HT       0.417000       1.00800           0
     47061 TIP3     7581     TIP3     H2       HT       0.417000       1.00800           0
     47062 TIP3     7582     TIP3     OH2      OT      -0.834000       15.9994           0
     47063 TIP3     7582     TIP3     H1       HT       0.417000       1.00800           0
     47064 TIP3     7582     TIP3     H2       HT       0.417000       1.00800           0
     47065 TIP3     7583     TIP3     OH2      OT      -0.834000       15.9994           0
     47066 TIP3     7583     TIP3     H1       HT       0.417000       1.00800           0
     47067 TIP3     7583     TIP3     H2       HT       0.417000       1.00800           0
     47068 TIP3     7584     TIP3     OH2      OT      -0.834000       15.9994           0
     47069 TIP3     7584     TIP3     H1       HT       0.417000       1.00800           0
     47070 TIP3     7584     TIP3     H2       HT       0.417000       1.00800           0
     47071 TIP3     7585     TIP3     OH2      OT      -0.834000       15.9994           0
     47072 TIP3     7585     TIP3     H1       HT       0.417000       1.00800           0
     47073 TIP3     7585     TIP3     H2       HT       0.417000       1.00800           0
     47074 TIP3     7586     TIP3     OH2      OT      -0.834000       15.9994           0
     47075 TIP3     7586     TIP3     H1       HT       0.417000       1.00800           0
     47076 TIP3     7586     TIP3     H2       HT       0.417000       1.00800           0
     47077 TIP3     7587     TIP3     OH2      OT      -0.834000       15.9994           0
     47078 TIP3     7587     TIP3     H1       HT       0.417000       1.00800           0
     47079 TIP3     7587     TIP3     H2       HT       0.417000       1.00800           0
     47080 TIP3     7588     TIP3     OH2      OT      -0.834000       15.9994           0
     47081 TIP3     7588     TIP3     H1       HT       0.417000       1.00800           0
     47082 TIP3     7588     TIP3     H2       HT       0.417000       1.00800           0
     47083 TIP3     7589     TIP3     OH2      OT      -0.834000       15.9994           0
     47084 TIP3     7589     TIP3     H1       HT       0.417000       1.00800           0
     47085 TIP3     7589     TIP3     H2       HT       0.417000       1.00800           0
     47086 TIP3     7590     TIP3     OH2      OT      -0.834000       15.9994           0
     47087 TIP3     7590     TIP3     H1       HT       0.417000       1.00800           0
     47088 TIP3     7590     TIP3     H2       HT       0.417000       1.00800           0
     47089 TIP3     7591     TIP3     OH2      OT      -0.834000       15.9994           0
     47090 TIP3     7591     TIP3     H1       HT       0.417000       1.00800           0
     47091 TIP3     7591     TIP3     H2       HT       0.417000       1.00800           0
     47092 TIP3     7592     TIP3     OH2      OT      -0.834000       15.9994           0
     47093 TIP3     7592     TIP3     H1       HT       0.417000       1.00800           0
     47094 TIP3     7592     TIP3     H2       HT       0.417000       1.00800           0
     47095 TIP3     7593     TIP3     OH2      OT      -0.834000       15.9994           0
     47096 TIP3     7593     TIP3     H1       HT       0.417000       1.00800           0
     47097 TIP3     7593     TIP3     H2       HT       0.417000       1.00800           0
     47098 TIP3     7594     TIP3     OH2      OT      -0.834000       15.9994           0
     47099 TIP3     7594     TIP3     H1       HT       0.417000       1.00800           0
     47100 TIP3     7594     TIP3     H2       HT       0.417000       1.00800           0
     47101 TIP3     7595     TIP3     OH2      OT      -0.834000       15.9994           0
     47102 TIP3     7595     TIP3     H1       HT       0.417000       1.00800           0
     47103 TIP3     7595     TIP3     H2       HT       0.417000       1.00800           0
     47104 TIP3     7596     TIP3     OH2      OT      -0.834000       15.9994           0
     47105 TIP3     7596     TIP3     H1       HT       0.417000       1.00800           0
     47106 TIP3     7596     TIP3     H2       HT       0.417000       1.00800           0
     47107 TIP3     7597     TIP3     OH2      OT      -0.834000       15.9994           0
     47108 TIP3     7597     TIP3     H1       HT       0.417000       1.00800           0
     47109 TIP3     7597     TIP3     H2       HT       0.417000       1.00800           0
     47110 TIP3     7598     TIP3     OH2      OT      -0.834000       15.9994           0
     47111 TIP3     7598     TIP3     H1       HT       0.417000       1.00800           0
     47112 TIP3     7598     TIP3     H2       HT       0.417000       1.00800           0
     47113 TIP3     7599     TIP3     OH2      OT      -0.834000       15.9994           0
     47114 TIP3     7599     TIP3     H1       HT       0.417000       1.00800           0
     47115 TIP3     7599     TIP3     H2       HT       0.417000       1.00800           0
     47116 TIP3     7600     TIP3     OH2      OT      -0.834000       15.9994           0
     47117 TIP3     7600     TIP3     H1       HT       0.417000       1.00800           0
     47118 TIP3     7600     TIP3     H2       HT       0.417000       1.00800           0
     47119 TIP3     7601     TIP3     OH2      OT      -0.834000       15.9994           0
     47120 TIP3     7601     TIP3     H1       HT       0.417000       1.00800           0
     47121 TIP3     7601     TIP3     H2       HT       0.417000       1.00800           0
     47122 TIP3     7602     TIP3     OH2      OT      -0.834000       15.9994           0
     47123 TIP3     7602     TIP3     H1       HT       0.417000       1.00800           0
     47124 TIP3     7602     TIP3     H2       HT       0.417000       1.00800           0
     47125 TIP3     7603     TIP3     OH2      OT      -0.834000       15.9994           0
     47126 TIP3     7603     TIP3     H1       HT       0.417000       1.00800           0
     47127 TIP3     7603     TIP3     H2       HT       0.417000       1.00800           0
     47128 TIP3     7604     TIP3     OH2      OT      -0.834000       15.9994           0
     47129 TIP3     7604     TIP3     H1       HT       0.417000       1.00800           0
     47130 TIP3     7604     TIP3     H2       HT       0.417000       1.00800           0
     47131 TIP3     7605     TIP3     OH2      OT      -0.834000       15.9994           0
     47132 TIP3     7605     TIP3     H1       HT       0.417000       1.00800           0
     47133 TIP3     7605     TIP3     H2       HT       0.417000       1.00800           0
     47134 TIP3     7606     TIP3     OH2      OT      -0.834000       15.9994           0
     47135 TIP3     7606     TIP3     H1       HT       0.417000       1.00800           0
     47136 TIP3     7606     TIP3     H2       HT       0.417000       1.00800           0
     47137 TIP3     7607     TIP3     OH2      OT      -0.834000       15.9994           0
     47138 TIP3     7607     TIP3     H1       HT       0.417000       1.00800           0
     47139 TIP3     7607     TIP3     H2       HT       0.417000       1.00800           0
     47140 TIP3     7608     TIP3     OH2      OT      -0.834000       15.9994           0
     47141 TIP3     7608     TIP3     H1       HT       0.417000       1.00800           0
     47142 TIP3     7608     TIP3     H2       HT       0.417000       1.00800           0
     47143 TIP3     7609     TIP3     OH2      OT      -0.834000       15.9994           0
     47144 TIP3     7609     TIP3     H1       HT       0.417000       1.00800           0
     47145 TIP3     7609     TIP3     H2       HT       0.417000       1.00800           0
     47146 TIP3     7610     TIP3     OH2      OT      -0.834000       15.9994           0
     47147 TIP3     7610     TIP3     H1       HT       0.417000       1.00800           0
     47148 TIP3     7610     TIP3     H2       HT       0.417000       1.00800           0
     47149 TIP3     7611     TIP3     OH2      OT      -0.834000       15.9994           0
     47150 TIP3     7611     TIP3     H1       HT       0.417000       1.00800           0
     47151 TIP3     7611     TIP3     H2       HT       0.417000       1.00800           0
     47152 TIP3     7612     TIP3     OH2      OT      -0.834000       15.9994           0
     47153 TIP3     7612     TIP3     H1       HT       0.417000       1.00800           0
     47154 TIP3     7612     TIP3     H2       HT       0.417000       1.00800           0
     47155 TIP3     7613     TIP3     OH2      OT      -0.834000       15.9994           0
     47156 TIP3     7613     TIP3     H1       HT       0.417000       1.00800           0
     47157 TIP3     7613     TIP3     H2       HT       0.417000       1.00800           0
     47158 TIP3     7614     TIP3     OH2      OT      -0.834000       15.9994           0
     47159 TIP3     7614     TIP3     H1       HT       0.417000       1.00800           0
     47160 TIP3     7614     TIP3     H2       HT       0.417000       1.00800           0
     47161 TIP3     7615     TIP3     OH2      OT      -0.834000       15.9994           0
     47162 TIP3     7615     TIP3     H1       HT       0.417000       1.00800           0
     47163 TIP3     7615     TIP3     H2       HT       0.417000       1.00800           0
     47164 TIP3     7616     TIP3     OH2      OT      -0.834000       15.9994           0
     47165 TIP3     7616     TIP3     H1       HT       0.417000       1.00800           0
     47166 TIP3     7616     TIP3     H2       HT       0.417000       1.00800           0
     47167 TIP3     7617     TIP3     OH2      OT      -0.834000       15.9994           0
     47168 TIP3     7617     TIP3     H1       HT       0.417000       1.00800           0
     47169 TIP3     7617     TIP3     H2       HT       0.417000       1.00800           0
     47170 TIP3     7618     TIP3     OH2      OT      -0.834000       15.9994           0
     47171 TIP3     7618     TIP3     H1       HT       0.417000       1.00800           0
     47172 TIP3     7618     TIP3     H2       HT       0.417000       1.00800           0
     47173 TIP3     7619     TIP3     OH2      OT      -0.834000       15.9994           0
     47174 TIP3     7619     TIP3     H1       HT       0.417000       1.00800           0
     47175 TIP3     7619     TIP3     H2       HT       0.417000       1.00800           0
     47176 TIP3     7620     TIP3     OH2      OT      -0.834000       15.9994           0
     47177 TIP3     7620     TIP3     H1       HT       0.417000       1.00800           0
     47178 TIP3     7620     TIP3     H2       HT       0.417000       1.00800           0
     47179 TIP3     7621     TIP3     OH2      OT      -0.834000       15.9994           0
     47180 TIP3     7621     TIP3     H1       HT       0.417000       1.00800           0
     47181 TIP3     7621     TIP3     H2       HT       0.417000       1.00800           0
     47182 TIP3     7622     TIP3     OH2      OT      -0.834000       15.9994           0
     47183 TIP3     7622     TIP3     H1       HT       0.417000       1.00800           0
     47184 TIP3     7622     TIP3     H2       HT       0.417000       1.00800           0
     47185 TIP3     7623     TIP3     OH2      OT      -0.834000       15.9994           0
     47186 TIP3     7623     TIP3     H1       HT       0.417000       1.00800           0
     47187 TIP3     7623     TIP3     H2       HT       0.417000       1.00800           0
     47188 TIP3     7624     TIP3     OH2      OT      -0.834000       15.9994           0
     47189 TIP3     7624     TIP3     H1       HT       0.417000       1.00800           0
     47190 TIP3     7624     TIP3     H2       HT       0.417000       1.00800           0
     47191 TIP3     7625     TIP3     OH2      OT      -0.834000       15.9994           0
     47192 TIP3     7625     TIP3     H1       HT       0.417000       1.00800           0
     47193 TIP3     7625     TIP3     H2       HT       0.417000       1.00800           0
     47194 TIP3     7626     TIP3     OH2      OT      -0.834000       15.9994           0
     47195 TIP3     7626     TIP3     H1       HT       0.417000       1.00800           0
     47196 TIP3     7626     TIP3     H2       HT       0.417000       1.00800           0
     47197 TIP3     7627     TIP3     OH2      OT      -0.834000       15.9994           0
     47198 TIP3     7627     TIP3     H1       HT       0.417000       1.00800           0
     47199 TIP3     7627     TIP3     H2       HT       0.417000       1.00800           0
     47200 TIP3     7628     TIP3     OH2      OT      -0.834000       15.9994           0
     47201 TIP3     7628     TIP3     H1       HT       0.417000       1.00800           0
     47202 TIP3     7628     TIP3     H2       HT       0.417000       1.00800           0
     47203 TIP3     7629     TIP3     OH2      OT      -0.834000       15.9994           0
     47204 TIP3     7629     TIP3     H1       HT       0.417000       1.00800           0
     47205 TIP3     7629     TIP3     H2       HT       0.417000       1.00800           0
     47206 TIP3     7630     TIP3     OH2      OT      -0.834000       15.9994           0
     47207 TIP3     7630     TIP3     H1       HT       0.417000       1.00800           0
     47208 TIP3     7630     TIP3     H2       HT       0.417000       1.00800           0
     47209 TIP3     7631     TIP3     OH2      OT      -0.834000       15.9994           0
     47210 TIP3     7631     TIP3     H1       HT       0.417000       1.00800           0
     47211 TIP3     7631     TIP3     H2       HT       0.417000       1.00800           0
     47212 TIP3     7632     TIP3     OH2      OT      -0.834000       15.9994           0
     47213 TIP3     7632     TIP3     H1       HT       0.417000       1.00800           0
     47214 TIP3     7632     TIP3     H2       HT       0.417000       1.00800           0
     47215 TIP3     7633     TIP3     OH2      OT      -0.834000       15.9994           0
     47216 TIP3     7633     TIP3     H1       HT       0.417000       1.00800           0
     47217 TIP3     7633     TIP3     H2       HT       0.417000       1.00800           0
     47218 TIP3     7634     TIP3     OH2      OT      -0.834000       15.9994           0
     47219 TIP3     7634     TIP3     H1       HT       0.417000       1.00800           0
     47220 TIP3     7634     TIP3     H2       HT       0.417000       1.00800           0
     47221 TIP3     7635     TIP3     OH2      OT      -0.834000       15.9994           0
     47222 TIP3     7635     TIP3     H1       HT       0.417000       1.00800           0
     47223 TIP3     7635     TIP3     H2       HT       0.417000       1.00800           0
     47224 TIP3     7636     TIP3     OH2      OT      -0.834000       15.9994           0
     47225 TIP3     7636     TIP3     H1       HT       0.417000       1.00800           0
     47226 TIP3     7636     TIP3     H2       HT       0.417000       1.00800           0
     47227 TIP3     7637     TIP3     OH2      OT      -0.834000       15.9994           0
     47228 TIP3     7637     TIP3     H1       HT       0.417000       1.00800           0
     47229 TIP3     7637     TIP3     H2       HT       0.417000       1.00800           0
     47230 TIP3     7638     TIP3     OH2      OT      -0.834000       15.9994           0
     47231 TIP3     7638     TIP3     H1       HT       0.417000       1.00800           0
     47232 TIP3     7638     TIP3     H2       HT       0.417000       1.00800           0
     47233 TIP3     7639     TIP3     OH2      OT      -0.834000       15.9994           0
     47234 TIP3     7639     TIP3     H1       HT       0.417000       1.00800           0
     47235 TIP3     7639     TIP3     H2       HT       0.417000       1.00800           0
     47236 TIP3     7640     TIP3     OH2      OT      -0.834000       15.9994           0
     47237 TIP3     7640     TIP3     H1       HT       0.417000       1.00800           0
     47238 TIP3     7640     TIP3     H2       HT       0.417000       1.00800           0
     47239 TIP3     7641     TIP3     OH2      OT      -0.834000       15.9994           0
     47240 TIP3     7641     TIP3     H1       HT       0.417000       1.00800           0
     47241 TIP3     7641     TIP3     H2       HT       0.417000       1.00800           0
     47242 TIP3     7642     TIP3     OH2      OT      -0.834000       15.9994           0
     47243 TIP3     7642     TIP3     H1       HT       0.417000       1.00800           0
     47244 TIP3     7642     TIP3     H2       HT       0.417000       1.00800           0
     47245 TIP3     7643     TIP3     OH2      OT      -0.834000       15.9994           0
     47246 TIP3     7643     TIP3     H1       HT       0.417000       1.00800           0
     47247 TIP3     7643     TIP3     H2       HT       0.417000       1.00800           0
     47248 TIP3     7644     TIP3     OH2      OT      -0.834000       15.9994           0
     47249 TIP3     7644     TIP3     H1       HT       0.417000       1.00800           0
     47250 TIP3     7644     TIP3     H2       HT       0.417000       1.00800           0
     47251 TIP3     7645     TIP3     OH2      OT      -0.834000       15.9994           0
     47252 TIP3     7645     TIP3     H1       HT       0.417000       1.00800           0
     47253 TIP3     7645     TIP3     H2       HT       0.417000       1.00800           0
     47254 TIP3     7646     TIP3     OH2      OT      -0.834000       15.9994           0
     47255 TIP3     7646     TIP3     H1       HT       0.417000       1.00800           0
     47256 TIP3     7646     TIP3     H2       HT       0.417000       1.00800           0
     47257 TIP3     7647     TIP3     OH2      OT      -0.834000       15.9994           0
     47258 TIP3     7647     TIP3     H1       HT       0.417000       1.00800           0
     47259 TIP3     7647     TIP3     H2       HT       0.417000       1.00800           0
     47260 TIP3     7648     TIP3     OH2      OT      -0.834000       15.9994           0
     47261 TIP3     7648     TIP3     H1       HT       0.417000       1.00800           0
     47262 TIP3     7648     TIP3     H2       HT       0.417000       1.00800           0
     47263 TIP3     7649     TIP3     OH2      OT      -0.834000       15.9994           0
     47264 TIP3     7649     TIP3     H1       HT       0.417000       1.00800           0
     47265 TIP3     7649     TIP3     H2       HT       0.417000       1.00800           0
     47266 TIP3     7650     TIP3     OH2      OT      -0.834000       15.9994           0
     47267 TIP3     7650     TIP3     H1       HT       0.417000       1.00800           0
     47268 TIP3     7650     TIP3     H2       HT       0.417000       1.00800           0
     47269 TIP3     7651     TIP3     OH2      OT      -0.834000       15.9994           0
     47270 TIP3     7651     TIP3     H1       HT       0.417000       1.00800           0
     47271 TIP3     7651     TIP3     H2       HT       0.417000       1.00800           0
     47272 TIP3     7652     TIP3     OH2      OT      -0.834000       15.9994           0
     47273 TIP3     7652     TIP3     H1       HT       0.417000       1.00800           0
     47274 TIP3     7652     TIP3     H2       HT       0.417000       1.00800           0
     47275 TIP3     7653     TIP3     OH2      OT      -0.834000       15.9994           0
     47276 TIP3     7653     TIP3     H1       HT       0.417000       1.00800           0
     47277 TIP3     7653     TIP3     H2       HT       0.417000       1.00800           0
     47278 TIP3     7654     TIP3     OH2      OT      -0.834000       15.9994           0
     47279 TIP3     7654     TIP3     H1       HT       0.417000       1.00800           0
     47280 TIP3     7654     TIP3     H2       HT       0.417000       1.00800           0
     47281 TIP3     7655     TIP3     OH2      OT      -0.834000       15.9994           0
     47282 TIP3     7655     TIP3     H1       HT       0.417000       1.00800           0
     47283 TIP3     7655     TIP3     H2       HT       0.417000       1.00800           0
     47284 TIP3     7656     TIP3     OH2      OT      -0.834000       15.9994           0
     47285 TIP3     7656     TIP3     H1       HT       0.417000       1.00800           0
     47286 TIP3     7656     TIP3     H2       HT       0.417000       1.00800           0
     47287 TIP3     7657     TIP3     OH2      OT      -0.834000       15.9994           0
     47288 TIP3     7657     TIP3     H1       HT       0.417000       1.00800           0
     47289 TIP3     7657     TIP3     H2       HT       0.417000       1.00800           0
     47290 TIP3     7658     TIP3     OH2      OT      -0.834000       15.9994           0
     47291 TIP3     7658     TIP3     H1       HT       0.417000       1.00800           0
     47292 TIP3     7658     TIP3     H2       HT       0.417000       1.00800           0
     47293 TIP3     7659     TIP3     OH2      OT      -0.834000       15.9994           0
     47294 TIP3     7659     TIP3     H1       HT       0.417000       1.00800           0
     47295 TIP3     7659     TIP3     H2       HT       0.417000       1.00800           0
     47296 TIP3     7660     TIP3     OH2      OT      -0.834000       15.9994           0
     47297 TIP3     7660     TIP3     H1       HT       0.417000       1.00800           0
     47298 TIP3     7660     TIP3     H2       HT       0.417000       1.00800           0
     47299 TIP3     7661     TIP3     OH2      OT      -0.834000       15.9994           0
     47300 TIP3     7661     TIP3     H1       HT       0.417000       1.00800           0
     47301 TIP3     7661     TIP3     H2       HT       0.417000       1.00800           0
     47302 TIP3     7662     TIP3     OH2      OT      -0.834000       15.9994           0
     47303 TIP3     7662     TIP3     H1       HT       0.417000       1.00800           0
     47304 TIP3     7662     TIP3     H2       HT       0.417000       1.00800           0
     47305 TIP3     7663     TIP3     OH2      OT      -0.834000       15.9994           0
     47306 TIP3     7663     TIP3     H1       HT       0.417000       1.00800           0
     47307 TIP3     7663     TIP3     H2       HT       0.417000       1.00800           0
     47308 TIP3     7664     TIP3     OH2      OT      -0.834000       15.9994           0
     47309 TIP3     7664     TIP3     H1       HT       0.417000       1.00800           0
     47310 TIP3     7664     TIP3     H2       HT       0.417000       1.00800           0
     47311 TIP3     7665     TIP3     OH2      OT      -0.834000       15.9994           0
     47312 TIP3     7665     TIP3     H1       HT       0.417000       1.00800           0
     47313 TIP3     7665     TIP3     H2       HT       0.417000       1.00800           0
     47314 TIP3     7666     TIP3     OH2      OT      -0.834000       15.9994           0
     47315 TIP3     7666     TIP3     H1       HT       0.417000       1.00800           0
     47316 TIP3     7666     TIP3     H2       HT       0.417000       1.00800           0
     47317 TIP3     7667     TIP3     OH2      OT      -0.834000       15.9994           0
     47318 TIP3     7667     TIP3     H1       HT       0.417000       1.00800           0
     47319 TIP3     7667     TIP3     H2       HT       0.417000       1.00800           0
     47320 TIP3     7668     TIP3     OH2      OT      -0.834000       15.9994           0
     47321 TIP3     7668     TIP3     H1       HT       0.417000       1.00800           0
     47322 TIP3     7668     TIP3     H2       HT       0.417000       1.00800           0
     47323 TIP3     7669     TIP3     OH2      OT      -0.834000       15.9994           0
     47324 TIP3     7669     TIP3     H1       HT       0.417000       1.00800           0
     47325 TIP3     7669     TIP3     H2       HT       0.417000       1.00800           0
     47326 TIP3     7670     TIP3     OH2      OT      -0.834000       15.9994           0
     47327 TIP3     7670     TIP3     H1       HT       0.417000       1.00800           0
     47328 TIP3     7670     TIP3     H2       HT       0.417000       1.00800           0
     47329 TIP3     7671     TIP3     OH2      OT      -0.834000       15.9994           0
     47330 TIP3     7671     TIP3     H1       HT       0.417000       1.00800           0
     47331 TIP3     7671     TIP3     H2       HT       0.417000       1.00800           0
     47332 TIP3     7672     TIP3     OH2      OT      -0.834000       15.9994           0
     47333 TIP3     7672     TIP3     H1       HT       0.417000       1.00800           0
     47334 TIP3     7672     TIP3     H2       HT       0.417000       1.00800           0
     47335 TIP3     7673     TIP3     OH2      OT      -0.834000       15.9994           0
     47336 TIP3     7673     TIP3     H1       HT       0.417000       1.00800           0
     47337 TIP3     7673     TIP3     H2       HT       0.417000       1.00800           0
     47338 TIP3     7674     TIP3     OH2      OT      -0.834000       15.9994           0
     47339 TIP3     7674     TIP3     H1       HT       0.417000       1.00800           0
     47340 TIP3     7674     TIP3     H2       HT       0.417000       1.00800           0
     47341 TIP3     7675     TIP3     OH2      OT      -0.834000       15.9994           0
     47342 TIP3     7675     TIP3     H1       HT       0.417000       1.00800           0
     47343 TIP3     7675     TIP3     H2       HT       0.417000       1.00800           0
     47344 TIP3     7676     TIP3     OH2      OT      -0.834000       15.9994           0
     47345 TIP3     7676     TIP3     H1       HT       0.417000       1.00800           0
     47346 TIP3     7676     TIP3     H2       HT       0.417000       1.00800           0
     47347 TIP3     7677     TIP3     OH2      OT      -0.834000       15.9994           0
     47348 TIP3     7677     TIP3     H1       HT       0.417000       1.00800           0
     47349 TIP3     7677     TIP3     H2       HT       0.417000       1.00800           0
     47350 TIP3     7678     TIP3     OH2      OT      -0.834000       15.9994           0
     47351 TIP3     7678     TIP3     H1       HT       0.417000       1.00800           0
     47352 TIP3     7678     TIP3     H2       HT       0.417000       1.00800           0
     47353 TIP3     7679     TIP3     OH2      OT      -0.834000       15.9994           0
     47354 TIP3     7679     TIP3     H1       HT       0.417000       1.00800           0
     47355 TIP3     7679     TIP3     H2       HT       0.417000       1.00800           0
     47356 TIP3     7680     TIP3     OH2      OT      -0.834000       15.9994           0
     47357 TIP3     7680     TIP3     H1       HT       0.417000       1.00800           0
     47358 TIP3     7680     TIP3     H2       HT       0.417000       1.00800           0
     47359 TIP3     7681     TIP3     OH2      OT      -0.834000       15.9994           0
     47360 TIP3     7681     TIP3     H1       HT       0.417000       1.00800           0
     47361 TIP3     7681     TIP3     H2       HT       0.417000       1.00800           0
     47362 TIP3     7682     TIP3     OH2      OT      -0.834000       15.9994           0
     47363 TIP3     7682     TIP3     H1       HT       0.417000       1.00800           0
     47364 TIP3     7682     TIP3     H2       HT       0.417000       1.00800           0
     47365 TIP3     7683     TIP3     OH2      OT      -0.834000       15.9994           0
     47366 TIP3     7683     TIP3     H1       HT       0.417000       1.00800           0
     47367 TIP3     7683     TIP3     H2       HT       0.417000       1.00800           0
     47368 TIP3     7684     TIP3     OH2      OT      -0.834000       15.9994           0
     47369 TIP3     7684     TIP3     H1       HT       0.417000       1.00800           0
     47370 TIP3     7684     TIP3     H2       HT       0.417000       1.00800           0
     47371 TIP3     7685     TIP3     OH2      OT      -0.834000       15.9994           0
     47372 TIP3     7685     TIP3     H1       HT       0.417000       1.00800           0
     47373 TIP3     7685     TIP3     H2       HT       0.417000       1.00800           0
     47374 TIP3     7686     TIP3     OH2      OT      -0.834000       15.9994           0
     47375 TIP3     7686     TIP3     H1       HT       0.417000       1.00800           0
     47376 TIP3     7686     TIP3     H2       HT       0.417000       1.00800           0
     47377 TIP3     7687     TIP3     OH2      OT      -0.834000       15.9994           0
     47378 TIP3     7687     TIP3     H1       HT       0.417000       1.00800           0
     47379 TIP3     7687     TIP3     H2       HT       0.417000       1.00800           0
     47380 TIP3     7688     TIP3     OH2      OT      -0.834000       15.9994           0
     47381 TIP3     7688     TIP3     H1       HT       0.417000       1.00800           0
     47382 TIP3     7688     TIP3     H2       HT       0.417000       1.00800           0
     47383 TIP3     7689     TIP3     OH2      OT      -0.834000       15.9994           0
     47384 TIP3     7689     TIP3     H1       HT       0.417000       1.00800           0
     47385 TIP3     7689     TIP3     H2       HT       0.417000       1.00800           0
     47386 TIP3     7690     TIP3     OH2      OT      -0.834000       15.9994           0
     47387 TIP3     7690     TIP3     H1       HT       0.417000       1.00800           0
     47388 TIP3     7690     TIP3     H2       HT       0.417000       1.00800           0
     47389 TIP3     7691     TIP3     OH2      OT      -0.834000       15.9994           0
     47390 TIP3     7691     TIP3     H1       HT       0.417000       1.00800           0
     47391 TIP3     7691     TIP3     H2       HT       0.417000       1.00800           0
     47392 TIP3     7692     TIP3     OH2      OT      -0.834000       15.9994           0
     47393 TIP3     7692     TIP3     H1       HT       0.417000       1.00800           0
     47394 TIP3     7692     TIP3     H2       HT       0.417000       1.00800           0
     47395 TIP3     7693     TIP3     OH2      OT      -0.834000       15.9994           0
     47396 TIP3     7693     TIP3     H1       HT       0.417000       1.00800           0
     47397 TIP3     7693     TIP3     H2       HT       0.417000       1.00800           0
     47398 TIP3     7694     TIP3     OH2      OT      -0.834000       15.9994           0
     47399 TIP3     7694     TIP3     H1       HT       0.417000       1.00800           0
     47400 TIP3     7694     TIP3     H2       HT       0.417000       1.00800           0
     47401 TIP3     7695     TIP3     OH2      OT      -0.834000       15.9994           0
     47402 TIP3     7695     TIP3     H1       HT       0.417000       1.00800           0
     47403 TIP3     7695     TIP3     H2       HT       0.417000       1.00800           0
     47404 TIP3     7696     TIP3     OH2      OT      -0.834000       15.9994           0
     47405 TIP3     7696     TIP3     H1       HT       0.417000       1.00800           0
     47406 TIP3     7696     TIP3     H2       HT       0.417000       1.00800           0
     47407 TIP3     7697     TIP3     OH2      OT      -0.834000       15.9994           0
     47408 TIP3     7697     TIP3     H1       HT       0.417000       1.00800           0
     47409 TIP3     7697     TIP3     H2       HT       0.417000       1.00800           0
     47410 TIP3     7698     TIP3     OH2      OT      -0.834000       15.9994           0
     47411 TIP3     7698     TIP3     H1       HT       0.417000       1.00800           0
     47412 TIP3     7698     TIP3     H2       HT       0.417000       1.00800           0
     47413 TIP3     7699     TIP3     OH2      OT      -0.834000       15.9994           0
     47414 TIP3     7699     TIP3     H1       HT       0.417000       1.00800           0
     47415 TIP3     7699     TIP3     H2       HT       0.417000       1.00800           0
     47416 TIP3     7700     TIP3     OH2      OT      -0.834000       15.9994           0
     47417 TIP3     7700     TIP3     H1       HT       0.417000       1.00800           0
     47418 TIP3     7700     TIP3     H2       HT       0.417000       1.00800           0
     47419 TIP3     7701     TIP3     OH2      OT      -0.834000       15.9994           0
     47420 TIP3     7701     TIP3     H1       HT       0.417000       1.00800           0
     47421 TIP3     7701     TIP3     H2       HT       0.417000       1.00800           0
     47422 TIP3     7702     TIP3     OH2      OT      -0.834000       15.9994           0
     47423 TIP3     7702     TIP3     H1       HT       0.417000       1.00800           0
     47424 TIP3     7702     TIP3     H2       HT       0.417000       1.00800           0
     47425 TIP3     7703     TIP3     OH2      OT      -0.834000       15.9994           0
     47426 TIP3     7703     TIP3     H1       HT       0.417000       1.00800           0
     47427 TIP3     7703     TIP3     H2       HT       0.417000       1.00800           0
     47428 TIP3     7704     TIP3     OH2      OT      -0.834000       15.9994           0
     47429 TIP3     7704     TIP3     H1       HT       0.417000       1.00800           0
     47430 TIP3     7704     TIP3     H2       HT       0.417000       1.00800           0
     47431 TIP3     7705     TIP3     OH2      OT      -0.834000       15.9994           0
     47432 TIP3     7705     TIP3     H1       HT       0.417000       1.00800           0
     47433 TIP3     7705     TIP3     H2       HT       0.417000       1.00800           0
     47434 TIP3     7706     TIP3     OH2      OT      -0.834000       15.9994           0
     47435 TIP3     7706     TIP3     H1       HT       0.417000       1.00800           0
     47436 TIP3     7706     TIP3     H2       HT       0.417000       1.00800           0
     47437 TIP3     7707     TIP3     OH2      OT      -0.834000       15.9994           0
     47438 TIP3     7707     TIP3     H1       HT       0.417000       1.00800           0
     47439 TIP3     7707     TIP3     H2       HT       0.417000       1.00800           0
     47440 TIP3     7708     TIP3     OH2      OT      -0.834000       15.9994           0
     47441 TIP3     7708     TIP3     H1       HT       0.417000       1.00800           0
     47442 TIP3     7708     TIP3     H2       HT       0.417000       1.00800           0
     47443 TIP3     7709     TIP3     OH2      OT      -0.834000       15.9994           0
     47444 TIP3     7709     TIP3     H1       HT       0.417000       1.00800           0
     47445 TIP3     7709     TIP3     H2       HT       0.417000       1.00800           0
     47446 TIP3     7710     TIP3     OH2      OT      -0.834000       15.9994           0
     47447 TIP3     7710     TIP3     H1       HT       0.417000       1.00800           0
     47448 TIP3     7710     TIP3     H2       HT       0.417000       1.00800           0
     47449 TIP3     7711     TIP3     OH2      OT      -0.834000       15.9994           0
     47450 TIP3     7711     TIP3     H1       HT       0.417000       1.00800           0
     47451 TIP3     7711     TIP3     H2       HT       0.417000       1.00800           0
     47452 TIP3     7712     TIP3     OH2      OT      -0.834000       15.9994           0
     47453 TIP3     7712     TIP3     H1       HT       0.417000       1.00800           0
     47454 TIP3     7712     TIP3     H2       HT       0.417000       1.00800           0
     47455 TIP3     7713     TIP3     OH2      OT      -0.834000       15.9994           0
     47456 TIP3     7713     TIP3     H1       HT       0.417000       1.00800           0
     47457 TIP3     7713     TIP3     H2       HT       0.417000       1.00800           0
     47458 TIP3     7714     TIP3     OH2      OT      -0.834000       15.9994           0
     47459 TIP3     7714     TIP3     H1       HT       0.417000       1.00800           0
     47460 TIP3     7714     TIP3     H2       HT       0.417000       1.00800           0
     47461 TIP3     7715     TIP3     OH2      OT      -0.834000       15.9994           0
     47462 TIP3     7715     TIP3     H1       HT       0.417000       1.00800           0
     47463 TIP3     7715     TIP3     H2       HT       0.417000       1.00800           0
     47464 TIP3     7716     TIP3     OH2      OT      -0.834000       15.9994           0
     47465 TIP3     7716     TIP3     H1       HT       0.417000       1.00800           0
     47466 TIP3     7716     TIP3     H2       HT       0.417000       1.00800           0
     47467 TIP3     7717     TIP3     OH2      OT      -0.834000       15.9994           0
     47468 TIP3     7717     TIP3     H1       HT       0.417000       1.00800           0
     47469 TIP3     7717     TIP3     H2       HT       0.417000       1.00800           0
     47470 TIP3     7718     TIP3     OH2      OT      -0.834000       15.9994           0
     47471 TIP3     7718     TIP3     H1       HT       0.417000       1.00800           0
     47472 TIP3     7718     TIP3     H2       HT       0.417000       1.00800           0
     47473 TIP3     7719     TIP3     OH2      OT      -0.834000       15.9994           0
     47474 TIP3     7719     TIP3     H1       HT       0.417000       1.00800           0
     47475 TIP3     7719     TIP3     H2       HT       0.417000       1.00800           0
     47476 TIP3     7720     TIP3     OH2      OT      -0.834000       15.9994           0
     47477 TIP3     7720     TIP3     H1       HT       0.417000       1.00800           0
     47478 TIP3     7720     TIP3     H2       HT       0.417000       1.00800           0
     47479 TIP3     7721     TIP3     OH2      OT      -0.834000       15.9994           0
     47480 TIP3     7721     TIP3     H1       HT       0.417000       1.00800           0
     47481 TIP3     7721     TIP3     H2       HT       0.417000       1.00800           0
     47482 TIP3     7722     TIP3     OH2      OT      -0.834000       15.9994           0
     47483 TIP3     7722     TIP3     H1       HT       0.417000       1.00800           0
     47484 TIP3     7722     TIP3     H2       HT       0.417000       1.00800           0
     47485 TIP3     7723     TIP3     OH2      OT      -0.834000       15.9994           0
     47486 TIP3     7723     TIP3     H1       HT       0.417000       1.00800           0
     47487 TIP3     7723     TIP3     H2       HT       0.417000       1.00800           0
     47488 TIP3     7724     TIP3     OH2      OT      -0.834000       15.9994           0
     47489 TIP3     7724     TIP3     H1       HT       0.417000       1.00800           0
     47490 TIP3     7724     TIP3     H2       HT       0.417000       1.00800           0
     47491 TIP3     7725     TIP3     OH2      OT      -0.834000       15.9994           0
     47492 TIP3     7725     TIP3     H1       HT       0.417000       1.00800           0
     47493 TIP3     7725     TIP3     H2       HT       0.417000       1.00800           0
     47494 TIP3     7726     TIP3     OH2      OT      -0.834000       15.9994           0
     47495 TIP3     7726     TIP3     H1       HT       0.417000       1.00800           0
     47496 TIP3     7726     TIP3     H2       HT       0.417000       1.00800           0
     47497 TIP3     7727     TIP3     OH2      OT      -0.834000       15.9994           0
     47498 TIP3     7727     TIP3     H1       HT       0.417000       1.00800           0
     47499 TIP3     7727     TIP3     H2       HT       0.417000       1.00800           0
     47500 TIP3     7728     TIP3     OH2      OT      -0.834000       15.9994           0
     47501 TIP3     7728     TIP3     H1       HT       0.417000       1.00800           0
     47502 TIP3     7728     TIP3     H2       HT       0.417000       1.00800           0
     47503 TIP3     7729     TIP3     OH2      OT      -0.834000       15.9994           0
     47504 TIP3     7729     TIP3     H1       HT       0.417000       1.00800           0
     47505 TIP3     7729     TIP3     H2       HT       0.417000       1.00800           0
     47506 TIP3     7730     TIP3     OH2      OT      -0.834000       15.9994           0
     47507 TIP3     7730     TIP3     H1       HT       0.417000       1.00800           0
     47508 TIP3     7730     TIP3     H2       HT       0.417000       1.00800           0
     47509 TIP3     7731     TIP3     OH2      OT      -0.834000       15.9994           0
     47510 TIP3     7731     TIP3     H1       HT       0.417000       1.00800           0
     47511 TIP3     7731     TIP3     H2       HT       0.417000       1.00800           0
     47512 TIP3     7732     TIP3     OH2      OT      -0.834000       15.9994           0
     47513 TIP3     7732     TIP3     H1       HT       0.417000       1.00800           0
     47514 TIP3     7732     TIP3     H2       HT       0.417000       1.00800           0
     47515 TIP3     7733     TIP3     OH2      OT      -0.834000       15.9994           0
     47516 TIP3     7733     TIP3     H1       HT       0.417000       1.00800           0
     47517 TIP3     7733     TIP3     H2       HT       0.417000       1.00800           0
     47518 TIP3     7734     TIP3     OH2      OT      -0.834000       15.9994           0
     47519 TIP3     7734     TIP3     H1       HT       0.417000       1.00800           0
     47520 TIP3     7734     TIP3     H2       HT       0.417000       1.00800           0
     47521 TIP3     7735     TIP3     OH2      OT      -0.834000       15.9994           0
     47522 TIP3     7735     TIP3     H1       HT       0.417000       1.00800           0
     47523 TIP3     7735     TIP3     H2       HT       0.417000       1.00800           0
     47524 TIP3     7736     TIP3     OH2      OT      -0.834000       15.9994           0
     47525 TIP3     7736     TIP3     H1       HT       0.417000       1.00800           0
     47526 TIP3     7736     TIP3     H2       HT       0.417000       1.00800           0
     47527 TIP3     7737     TIP3     OH2      OT      -0.834000       15.9994           0
     47528 TIP3     7737     TIP3     H1       HT       0.417000       1.00800           0
     47529 TIP3     7737     TIP3     H2       HT       0.417000       1.00800           0
     47530 TIP3     7738     TIP3     OH2      OT      -0.834000       15.9994           0
     47531 TIP3     7738     TIP3     H1       HT       0.417000       1.00800           0
     47532 TIP3     7738     TIP3     H2       HT       0.417000       1.00800           0
     47533 TIP3     7739     TIP3     OH2      OT      -0.834000       15.9994           0
     47534 TIP3     7739     TIP3     H1       HT       0.417000       1.00800           0
     47535 TIP3     7739     TIP3     H2       HT       0.417000       1.00800           0
     47536 TIP3     7740     TIP3     OH2      OT      -0.834000       15.9994           0
     47537 TIP3     7740     TIP3     H1       HT       0.417000       1.00800           0
     47538 TIP3     7740     TIP3     H2       HT       0.417000       1.00800           0
     47539 TIP3     7741     TIP3     OH2      OT      -0.834000       15.9994           0
     47540 TIP3     7741     TIP3     H1       HT       0.417000       1.00800           0
     47541 TIP3     7741     TIP3     H2       HT       0.417000       1.00800           0
     47542 TIP3     7742     TIP3     OH2      OT      -0.834000       15.9994           0
     47543 TIP3     7742     TIP3     H1       HT       0.417000       1.00800           0
     47544 TIP3     7742     TIP3     H2       HT       0.417000       1.00800           0
     47545 TIP3     7743     TIP3     OH2      OT      -0.834000       15.9994           0
     47546 TIP3     7743     TIP3     H1       HT       0.417000       1.00800           0
     47547 TIP3     7743     TIP3     H2       HT       0.417000       1.00800           0
     47548 TIP3     7744     TIP3     OH2      OT      -0.834000       15.9994           0
     47549 TIP3     7744     TIP3     H1       HT       0.417000       1.00800           0
     47550 TIP3     7744     TIP3     H2       HT       0.417000       1.00800           0
     47551 TIP3     7745     TIP3     OH2      OT      -0.834000       15.9994           0
     47552 TIP3     7745     TIP3     H1       HT       0.417000       1.00800           0
     47553 TIP3     7745     TIP3     H2       HT       0.417000       1.00800           0
     47554 TIP3     7746     TIP3     OH2      OT      -0.834000       15.9994           0
     47555 TIP3     7746     TIP3     H1       HT       0.417000       1.00800           0
     47556 TIP3     7746     TIP3     H2       HT       0.417000       1.00800           0
     47557 TIP3     7747     TIP3     OH2      OT      -0.834000       15.9994           0
     47558 TIP3     7747     TIP3     H1       HT       0.417000       1.00800           0
     47559 TIP3     7747     TIP3     H2       HT       0.417000       1.00800           0
     47560 TIP3     7748     TIP3     OH2      OT      -0.834000       15.9994           0
     47561 TIP3     7748     TIP3     H1       HT       0.417000       1.00800           0
     47562 TIP3     7748     TIP3     H2       HT       0.417000       1.00800           0
     47563 TIP3     7749     TIP3     OH2      OT      -0.834000       15.9994           0
     47564 TIP3     7749     TIP3     H1       HT       0.417000       1.00800           0
     47565 TIP3     7749     TIP3     H2       HT       0.417000       1.00800           0
     47566 TIP3     7750     TIP3     OH2      OT      -0.834000       15.9994           0
     47567 TIP3     7750     TIP3     H1       HT       0.417000       1.00800           0
     47568 TIP3     7750     TIP3     H2       HT       0.417000       1.00800           0
     47569 TIP3     7751     TIP3     OH2      OT      -0.834000       15.9994           0
     47570 TIP3     7751     TIP3     H1       HT       0.417000       1.00800           0
     47571 TIP3     7751     TIP3     H2       HT       0.417000       1.00800           0
     47572 TIP3     7752     TIP3     OH2      OT      -0.834000       15.9994           0
     47573 TIP3     7752     TIP3     H1       HT       0.417000       1.00800           0
     47574 TIP3     7752     TIP3     H2       HT       0.417000       1.00800           0
     47575 TIP3     7753     TIP3     OH2      OT      -0.834000       15.9994           0
     47576 TIP3     7753     TIP3     H1       HT       0.417000       1.00800           0
     47577 TIP3     7753     TIP3     H2       HT       0.417000       1.00800           0
     47578 TIP3     7754     TIP3     OH2      OT      -0.834000       15.9994           0
     47579 TIP3     7754     TIP3     H1       HT       0.417000       1.00800           0
     47580 TIP3     7754     TIP3     H2       HT       0.417000       1.00800           0
     47581 TIP3     7755     TIP3     OH2      OT      -0.834000       15.9994           0
     47582 TIP3     7755     TIP3     H1       HT       0.417000       1.00800           0
     47583 TIP3     7755     TIP3     H2       HT       0.417000       1.00800           0
     47584 TIP3     7756     TIP3     OH2      OT      -0.834000       15.9994           0
     47585 TIP3     7756     TIP3     H1       HT       0.417000       1.00800           0
     47586 TIP3     7756     TIP3     H2       HT       0.417000       1.00800           0
     47587 TIP3     7757     TIP3     OH2      OT      -0.834000       15.9994           0
     47588 TIP3     7757     TIP3     H1       HT       0.417000       1.00800           0
     47589 TIP3     7757     TIP3     H2       HT       0.417000       1.00800           0
     47590 TIP3     7758     TIP3     OH2      OT      -0.834000       15.9994           0
     47591 TIP3     7758     TIP3     H1       HT       0.417000       1.00800           0
     47592 TIP3     7758     TIP3     H2       HT       0.417000       1.00800           0
     47593 TIP3     7759     TIP3     OH2      OT      -0.834000       15.9994           0
     47594 TIP3     7759     TIP3     H1       HT       0.417000       1.00800           0
     47595 TIP3     7759     TIP3     H2       HT       0.417000       1.00800           0
     47596 TIP3     7760     TIP3     OH2      OT      -0.834000       15.9994           0
     47597 TIP3     7760     TIP3     H1       HT       0.417000       1.00800           0
     47598 TIP3     7760     TIP3     H2       HT       0.417000       1.00800           0
     47599 TIP3     7761     TIP3     OH2      OT      -0.834000       15.9994           0
     47600 TIP3     7761     TIP3     H1       HT       0.417000       1.00800           0
     47601 TIP3     7761     TIP3     H2       HT       0.417000       1.00800           0
     47602 TIP3     7762     TIP3     OH2      OT      -0.834000       15.9994           0
     47603 TIP3     7762     TIP3     H1       HT       0.417000       1.00800           0
     47604 TIP3     7762     TIP3     H2       HT       0.417000       1.00800           0
     47605 TIP3     7763     TIP3     OH2      OT      -0.834000       15.9994           0
     47606 TIP3     7763     TIP3     H1       HT       0.417000       1.00800           0
     47607 TIP3     7763     TIP3     H2       HT       0.417000       1.00800           0
     47608 TIP3     7764     TIP3     OH2      OT      -0.834000       15.9994           0
     47609 TIP3     7764     TIP3     H1       HT       0.417000       1.00800           0
     47610 TIP3     7764     TIP3     H2       HT       0.417000       1.00800           0
     47611 TIP3     7765     TIP3     OH2      OT      -0.834000       15.9994           0
     47612 TIP3     7765     TIP3     H1       HT       0.417000       1.00800           0
     47613 TIP3     7765     TIP3     H2       HT       0.417000       1.00800           0
     47614 TIP3     7766     TIP3     OH2      OT      -0.834000       15.9994           0
     47615 TIP3     7766     TIP3     H1       HT       0.417000       1.00800           0
     47616 TIP3     7766     TIP3     H2       HT       0.417000       1.00800           0
     47617 TIP3     7767     TIP3     OH2      OT      -0.834000       15.9994           0
     47618 TIP3     7767     TIP3     H1       HT       0.417000       1.00800           0
     47619 TIP3     7767     TIP3     H2       HT       0.417000       1.00800           0
     47620 TIP3     7768     TIP3     OH2      OT      -0.834000       15.9994           0
     47621 TIP3     7768     TIP3     H1       HT       0.417000       1.00800           0
     47622 TIP3     7768     TIP3     H2       HT       0.417000       1.00800           0
     47623 TIP3     7769     TIP3     OH2      OT      -0.834000       15.9994           0
     47624 TIP3     7769     TIP3     H1       HT       0.417000       1.00800           0
     47625 TIP3     7769     TIP3     H2       HT       0.417000       1.00800           0
     47626 TIP3     7770     TIP3     OH2      OT      -0.834000       15.9994           0
     47627 TIP3     7770     TIP3     H1       HT       0.417000       1.00800           0
     47628 TIP3     7770     TIP3     H2       HT       0.417000       1.00800           0
     47629 TIP3     7771     TIP3     OH2      OT      -0.834000       15.9994           0
     47630 TIP3     7771     TIP3     H1       HT       0.417000       1.00800           0
     47631 TIP3     7771     TIP3     H2       HT       0.417000       1.00800           0
     47632 TIP3     7772     TIP3     OH2      OT      -0.834000       15.9994           0
     47633 TIP3     7772     TIP3     H1       HT       0.417000       1.00800           0
     47634 TIP3     7772     TIP3     H2       HT       0.417000       1.00800           0
     47635 TIP3     7773     TIP3     OH2      OT      -0.834000       15.9994           0
     47636 TIP3     7773     TIP3     H1       HT       0.417000       1.00800           0
     47637 TIP3     7773     TIP3     H2       HT       0.417000       1.00800           0
     47638 TIP3     7774     TIP3     OH2      OT      -0.834000       15.9994           0
     47639 TIP3     7774     TIP3     H1       HT       0.417000       1.00800           0
     47640 TIP3     7774     TIP3     H2       HT       0.417000       1.00800           0
     47641 TIP3     7775     TIP3     OH2      OT      -0.834000       15.9994           0
     47642 TIP3     7775     TIP3     H1       HT       0.417000       1.00800           0
     47643 TIP3     7775     TIP3     H2       HT       0.417000       1.00800           0
     47644 TIP3     7776     TIP3     OH2      OT      -0.834000       15.9994           0
     47645 TIP3     7776     TIP3     H1       HT       0.417000       1.00800           0
     47646 TIP3     7776     TIP3     H2       HT       0.417000       1.00800           0
     47647 TIP3     7777     TIP3     OH2      OT      -0.834000       15.9994           0
     47648 TIP3     7777     TIP3     H1       HT       0.417000       1.00800           0
     47649 TIP3     7777     TIP3     H2       HT       0.417000       1.00800           0
     47650 TIP3     7778     TIP3     OH2      OT      -0.834000       15.9994           0
     47651 TIP3     7778     TIP3     H1       HT       0.417000       1.00800           0
     47652 TIP3     7778     TIP3     H2       HT       0.417000       1.00800           0
     47653 TIP3     7779     TIP3     OH2      OT      -0.834000       15.9994           0
     47654 TIP3     7779     TIP3     H1       HT       0.417000       1.00800           0
     47655 TIP3     7779     TIP3     H2       HT       0.417000       1.00800           0
     47656 TIP3     7780     TIP3     OH2      OT      -0.834000       15.9994           0
     47657 TIP3     7780     TIP3     H1       HT       0.417000       1.00800           0
     47658 TIP3     7780     TIP3     H2       HT       0.417000       1.00800           0
     47659 TIP3     7781     TIP3     OH2      OT      -0.834000       15.9994           0
     47660 TIP3     7781     TIP3     H1       HT       0.417000       1.00800           0
     47661 TIP3     7781     TIP3     H2       HT       0.417000       1.00800           0
     47662 TIP3     7782     TIP3     OH2      OT      -0.834000       15.9994           0
     47663 TIP3     7782     TIP3     H1       HT       0.417000       1.00800           0
     47664 TIP3     7782     TIP3     H2       HT       0.417000       1.00800           0
     47665 TIP3     7783     TIP3     OH2      OT      -0.834000       15.9994           0
     47666 TIP3     7783     TIP3     H1       HT       0.417000       1.00800           0
     47667 TIP3     7783     TIP3     H2       HT       0.417000       1.00800           0
     47668 TIP3     7784     TIP3     OH2      OT      -0.834000       15.9994           0
     47669 TIP3     7784     TIP3     H1       HT       0.417000       1.00800           0
     47670 TIP3     7784     TIP3     H2       HT       0.417000       1.00800           0
     47671 TIP3     7785     TIP3     OH2      OT      -0.834000       15.9994           0
     47672 TIP3     7785     TIP3     H1       HT       0.417000       1.00800           0
     47673 TIP3     7785     TIP3     H2       HT       0.417000       1.00800           0
     47674 TIP3     7786     TIP3     OH2      OT      -0.834000       15.9994           0
     47675 TIP3     7786     TIP3     H1       HT       0.417000       1.00800           0
     47676 TIP3     7786     TIP3     H2       HT       0.417000       1.00800           0
     47677 TIP3     7787     TIP3     OH2      OT      -0.834000       15.9994           0
     47678 TIP3     7787     TIP3     H1       HT       0.417000       1.00800           0
     47679 TIP3     7787     TIP3     H2       HT       0.417000       1.00800           0
     47680 TIP3     7788     TIP3     OH2      OT      -0.834000       15.9994           0
     47681 TIP3     7788     TIP3     H1       HT       0.417000       1.00800           0
     47682 TIP3     7788     TIP3     H2       HT       0.417000       1.00800           0
     47683 TIP3     7789     TIP3     OH2      OT      -0.834000       15.9994           0
     47684 TIP3     7789     TIP3     H1       HT       0.417000       1.00800           0
     47685 TIP3     7789     TIP3     H2       HT       0.417000       1.00800           0
     47686 TIP3     7790     TIP3     OH2      OT      -0.834000       15.9994           0
     47687 TIP3     7790     TIP3     H1       HT       0.417000       1.00800           0
     47688 TIP3     7790     TIP3     H2       HT       0.417000       1.00800           0
     47689 TIP3     7791     TIP3     OH2      OT      -0.834000       15.9994           0
     47690 TIP3     7791     TIP3     H1       HT       0.417000       1.00800           0
     47691 TIP3     7791     TIP3     H2       HT       0.417000       1.00800           0
     47692 TIP3     7792     TIP3     OH2      OT      -0.834000       15.9994           0
     47693 TIP3     7792     TIP3     H1       HT       0.417000       1.00800           0
     47694 TIP3     7792     TIP3     H2       HT       0.417000       1.00800           0
     47695 TIP3     7793     TIP3     OH2      OT      -0.834000       15.9994           0
     47696 TIP3     7793     TIP3     H1       HT       0.417000       1.00800           0
     47697 TIP3     7793     TIP3     H2       HT       0.417000       1.00800           0
     47698 TIP3     7794     TIP3     OH2      OT      -0.834000       15.9994           0
     47699 TIP3     7794     TIP3     H1       HT       0.417000       1.00800           0
     47700 TIP3     7794     TIP3     H2       HT       0.417000       1.00800           0
     47701 TIP3     7795     TIP3     OH2      OT      -0.834000       15.9994           0
     47702 TIP3     7795     TIP3     H1       HT       0.417000       1.00800           0
     47703 TIP3     7795     TIP3     H2       HT       0.417000       1.00800           0
     47704 TIP3     7796     TIP3     OH2      OT      -0.834000       15.9994           0
     47705 TIP3     7796     TIP3     H1       HT       0.417000       1.00800           0
     47706 TIP3     7796     TIP3     H2       HT       0.417000       1.00800           0
     47707 TIP3     7797     TIP3     OH2      OT      -0.834000       15.9994           0
     47708 TIP3     7797     TIP3     H1       HT       0.417000       1.00800           0
     47709 TIP3     7797     TIP3     H2       HT       0.417000       1.00800           0
     47710 TIP3     7798     TIP3     OH2      OT      -0.834000       15.9994           0
     47711 TIP3     7798     TIP3     H1       HT       0.417000       1.00800           0
     47712 TIP3     7798     TIP3     H2       HT       0.417000       1.00800           0
     47713 TIP3     7799     TIP3     OH2      OT      -0.834000       15.9994           0
     47714 TIP3     7799     TIP3     H1       HT       0.417000       1.00800           0
     47715 TIP3     7799     TIP3     H2       HT       0.417000       1.00800           0
     47716 TIP3     7800     TIP3     OH2      OT      -0.834000       15.9994           0
     47717 TIP3     7800     TIP3     H1       HT       0.417000       1.00800           0
     47718 TIP3     7800     TIP3     H2       HT       0.417000       1.00800           0
     47719 TIP3     7801     TIP3     OH2      OT      -0.834000       15.9994           0
     47720 TIP3     7801     TIP3     H1       HT       0.417000       1.00800           0
     47721 TIP3     7801     TIP3     H2       HT       0.417000       1.00800           0
     47722 TIP3     7802     TIP3     OH2      OT      -0.834000       15.9994           0
     47723 TIP3     7802     TIP3     H1       HT       0.417000       1.00800           0
     47724 TIP3     7802     TIP3     H2       HT       0.417000       1.00800           0
     47725 TIP3     7803     TIP3     OH2      OT      -0.834000       15.9994           0
     47726 TIP3     7803     TIP3     H1       HT       0.417000       1.00800           0
     47727 TIP3     7803     TIP3     H2       HT       0.417000       1.00800           0
     47728 TIP3     7804     TIP3     OH2      OT      -0.834000       15.9994           0
     47729 TIP3     7804     TIP3     H1       HT       0.417000       1.00800           0
     47730 TIP3     7804     TIP3     H2       HT       0.417000       1.00800           0
     47731 TIP3     7805     TIP3     OH2      OT      -0.834000       15.9994           0
     47732 TIP3     7805     TIP3     H1       HT       0.417000       1.00800           0
     47733 TIP3     7805     TIP3     H2       HT       0.417000       1.00800           0
     47734 TIP3     7806     TIP3     OH2      OT      -0.834000       15.9994           0
     47735 TIP3     7806     TIP3     H1       HT       0.417000       1.00800           0
     47736 TIP3     7806     TIP3     H2       HT       0.417000       1.00800           0
     47737 TIP3     7807     TIP3     OH2      OT      -0.834000       15.9994           0
     47738 TIP3     7807     TIP3     H1       HT       0.417000       1.00800           0
     47739 TIP3     7807     TIP3     H2       HT       0.417000       1.00800           0
     47740 TIP3     7808     TIP3     OH2      OT      -0.834000       15.9994           0
     47741 TIP3     7808     TIP3     H1       HT       0.417000       1.00800           0
     47742 TIP3     7808     TIP3     H2       HT       0.417000       1.00800           0

     47584 !NBOND: bonds
         1         3         1         2         3         4         1        47
        47        48        47        49        47        44        44        45
        44        46         1         5         5         6         5         7
         5         8         8        39        39        44        39        40
        40        41        40        42        40        43         8         9
         9        10         9        11        11        12        11        13
        11        14        14        15        14        37        37        38
        37        39        14        16        16        17        16        26
        26        31        31        32        31        33        31        34
        34        35        34        36        34        37        26        27
        27        28        27        29        27        30        16        18
        18        19        18        20        18        21        21        22
        21        23        21        24        24        25        24        26
        24        50        50        51        50        52        52        53
        52        54        52        55        50        56        56        57
        56        58        56        59        59        60        59        61
        59        62        62        63        62        64        62        65
        65        66        65        67        67        68        67        69
        67        70        65        71        71        72        71        73
        71        74      2221      2222      2221      2223      2221      2224
      2221      2225      2225      2226      2225      2227      2225      2228
      2228      2229      2228      2230      2228      2235      2235      2231
      2231      2234      2231      2232      2231      2233      2236      2237
      2236      2238      2236      2239      2236      2234      2239      2240
      2239      2247      2239      2241      2247      2248      2247      2249
      2247      2250      2241      2242      2242      2244      2242      2243
      2244      2245      2244      2246      2244      2256      2256      2257
      2256      2258      2256      2259      2259      2260      2259      2261
      2259      2262      2262      2263      2262      2264      2262      2265
      2265      2266      2265      2267      2265      2268      2268      2269
      2268      2270      2268      2271      2271      2272      2271      2273
      2271      2274      2274      2275      2274      2276      2276      2277
      2276      2278      2278      2279      2278      2280      2278      2281
      2281      2282      2281      2283      2281      2284      2284      2285
      2284      2286      2284      2287      2287      2288      2287      2289
      2287      2290      2290      2291      2290      2292      2290      2293
      2293      2294      2293      2295      2293      2296      2296      2297
      2296      2298      2296      2299      2299      2300      2299      2301
      2299      2302      2250      2251      2251      2253      2251      2252
      2253      2254      2253      2255      2253      2303      2303      2304
      2303      2305      2303      2306      2306      2307      2306      2308
      2306      2309      2309      2310      2309      2311      2309      2312
      2312      2313      2312      2314      2312      2315      2315      2316
      2315      2317      2315      2318      2318      2319      2318      2320
      2318      2321      2321      2322      2321      2323      2321      2324
      2324      2325      2324      2326      2324      2327      2327      2328
      2327      2329      2327      2330      2330      2331      2330      2332
      2330      2333      2333      2334      2333      2335      2333      2336
      2336      2337      2336      2338      2336      2339      2339      2340
      2339      2341      2339      2342      2342      2343      2342      2344
      2342      2345      8471      8472      8471      8473      8471      8474
      8471      8475      8479      8477      8477      8475      8477      8478
      8475      8476      8475      8480      8488      8487      8480      8481
      8480      8482      8480      8486      8486      8483      8483      8487
      8483      8484      8483      8485      8488      8489      8488      8490
      8488      8491      8491      8492      8491      8499      8491      8493
      8499      8500      8499      8501      8499      8502      8493      8494
      8494      8496      8494      8495      8496      8497      8496      8498
      8496      8508      8508      8509      8508      8510      8508      8511
      8511      8512      8511      8513      8511      8514      8514      8515
      8514      8516      8514      8517      8517      8518      8517      8519
      8517      8520      8520      8521      8520      8522      8520      8523
      8523      8524      8523      8525      8523      8526      8526      8527
      8526      8528      8528      8529      8528      8530      8530      8531
      8530      8532      8530      8533      8533      8534      8533      8535
      8533      8536      8536      8537      8536      8538      8536      8539
      8539      8540      8539      8541      8539      8542      8542      8543
      8542      8544      8542      8545      8545      8546      8545      8547
      8545      8548      8548      8549      8548      8550      8548      8551
      8551      8552      8551      8553      8551      8554      8502      8503
      8503      8505      8503      8504      8505      8506      8505      8507
      8505      8555      8555      8556      8555      8557      8555      8558
      8558      8559      8558      8560      8558      8561      8561      8562
      8561      8563      8561      8564      8564      8565      8564      8566
      8564      8567      8567      8568      8567      8569      8567      8570
      8570      8571      8570      8572      8570      8573      8573      8574
      8573      8575      8573      8576      8576      8577      8576      8578
      8576      8579      8579      8580      8579      8581      8579      8582
      8582      8583      8582      8584      8582      8585      8585      8586
      8585      8587      8585      8588      8588      8589      8588      8590
      8588      8591      8591      8592      8591      8593      8591      8594
      8594      8595      8594      8596      8594      8597        75        77
        75        76        77        78        75       121       121       122
       121       123       121       118       118       119       118       120
        75        79        79        80        79        81        79        82
        82       113       113       118       113       114       114       115
       114       116       114       117        82        83        83        84
        83        85        85        86        85        87        85        88
        88        89        88       111       111       112       111       113
        88        90        90        91        90       100       100       105
       105       106       105       107       105       108       108       109
       108       110       108       111       100       101       101       102
       101       103       101       104        90        92        92        93
        92        94        92        95        95        96        95        97
        95        98        98        99        98       100        98       124
       124       125       124       126       126       127       126       128
       126       129       124       130       130       131       130       132
       130       133       133       134       133       135       133       136
       136       137       136       138       136       139       139       140
       139       141       141       142       141       143       141       144
       139       145       145       146       145       147       145       148
     13551     13555     13551     13559     13551     13563     13555     13556
     13555     13557     13555     13558     13559     13560     13559     13561
     13559     13562     13563     13564     13563     13565     13563     13566
     13551     13552     13552     13553     13552     13554     13552     13567
     13567     13568     13567     13569     13567     13573     13574     13575
     13573     13570     13570     13574     13570     13571     13570     13572
     13575     13576     13575     13577     13575     13578     13578     13579
     13578     13586     13578     13580     13586     13587     13586     13588
     13586     13589     13580     13581     13581     13583     13581     13582
     13583     13584     13583     13585     13583     13595     13595     13596
     13595     13597     13595     13598     13598     13599     13598     13600
     13598     13601     13601     13602     13601     13603     13601     13604
     13604     13605     13604     13606     13604     13607     13607     13608
     13607     13609     13607     13610     13610     13611     13610     13612
     13610     13613     13613     13614     13613     13615     13615     13616
     13615     13617     13617     13618     13617     13619     13617     13620
     13620     13621     13620     13622     13620     13623     13623     13624
     13623     13625     13623     13626     13626     13627     13626     13628
     13626     13629     13629     13630     13629     13631     13629     13632
     13632     13633     13632     13634     13632     13635     13635     13636
     13635     13637     13635     13638     13638     13639     13638     13640
     13638     13641     13589     13590     13590     13592     13590     13591
     13592     13593     13592     13594     13592     13642     13642     13643
     13642     13644     13642     13645     13645     13646     13645     13647
     13645     13648     13648     13649     13648     13650     13648     13651
     13651     13652     13651     13653     13651     13654     13654     13655
     13654     13656     13654     13657     13657     13658     13657     13659
     13657     13660     13660     13661     13660     13662     13660     13663
     13663     13664     13663     13665     13663     13666     13666     13667
     13666     13668     13666     13669     13669     13670     13669     13671
     13669     13672     13672     13673     13672     13674     13672     13675
     13675     13676     13675     13677     13675     13678     13678     13679
     13678     13680     13678     13681     13681     13682     13681     13683
     13681     13684       149       151       149       150       151       152
       149       195       195       196       195       197       195       192
       192       193       192       194       149       153       153       154
       153       155       153       156       156       187       187       192
       187       188       188       189       188       190       188       191
       156       157       157       158       157       159       159       160
       159       161       159       162       162       163       162       185
       185       186       185       187       162       164       164       165
       164       174       174       179       179       180       179       181
       179       182       182       183       182       184       182       185
       174       175       175       176       175       177       175       178
       164       166       166       167       166       168       166       169
       169       170       169       171       169       172       172       173
       172       174       172       198       198       199       198       200
       200       201       200       202       200       203       198       204
       204       205       204       206       204       207       207       208
       207       209       207       210       210       211       210       212
       210       213       213       214       213       215       215       216
       215       217       215       218       213       219       219       220
       219       221       219       222      2346      2347      2346      2348
      2346      2349      2346      2350      2350      2351      2350      2352
      2350      2353      2353      2354      2353      2355      2353      2360
      2360      2356      2356      2359      2356      2357      2356      2358
      2361      2362      2361      2363      2361      2364      2361      2359
      2364      2365      2364      2372      2364      2366      2372      2373
      2372      2374      2372      2375      2366      2367      2367      2369
      2367      2368      2369      2370      2369      2371      2369      2381
      2381      2382      2381      2383      2381      2384      2384      2385
      2384      2386      2384      2387      2387      2388      2387      2389
      2387      2390      2390      2391      2390      2392      2390      2393
      2393      2394      2393      2395      2393      2396      2396      2397
      2396      2398      2396      2399      2399      2400      2399      2401
      2401      2402      2401      2403      2403      2404      2403      2405
      2403      2406      2406      2407      2406      2408      2406      2409
      2409      2410      2409      2411      2409      2412      2412      2413
      2412      2414      2412      2415      2415      2416      2415      2417
      2415      2418      2418      2419      2418      2420      2418      2421
      2421      2422      2421      2423      2421      2424      2424      2425
      2424      2426      2424      2427      2375      2376      2376      2378
      2376      2377      2378      2379      2378      2380      2378      2428
      2428      2429      2428      2430      2428      2431      2431      2432
      2431      2433      2431      2434      2434      2435      2434      2436
      2434      2437      2437      2438      2437      2439      2437      2440
      2440      2441      2440      2442      2440      2443      2443      2444
      2443      2445      2443      2446      2446      2447      2446      2448
      2446      2449      2449      2450      2449      2451      2449      2452
      2452      2453      2452      2454      2452      2455      2455      2456
      2455      2457      2455      2458      2458      2459      2458      2460
      2458      2461      2461      2462      2461      2463      2461      2464
      2464      2465      2464      2466      2464      2467      2467      2468
      2467      2469      2467      2470     21611     21612     21611     21607
     21611     21591     21611     21616     21591     21592     21591     21593
     21593     21594     21591     21595     21595     21596     21595     21597
     21597     21598     21595     21599     21599     21600     21599     21601
     21601     21602     21599     21603     21603     21604     21603     21607
     21607     21608     21607     21609     21609     21610     21603     21605
     21605     21606     21616     21613     21613     21617     21613     21614
     21613     21615     21617     21618     21618     21619     21618     21620
     21618     21621     21621     21622     21621     21629     21621     21623
     21629     21630     21629     21631     21629     21632     21623     21624
     21624     21626     21624     21625     21626     21627     21626     21628
     21626     21638     21638     21639     21638     21640     21638     21641
     21641     21642     21641     21643     21641     21644     21644     21645
     21644     21646     21644     21647     21647     21648     21647     21649
     21647     21650     21650     21651     21650     21652     21650     21653
     21653     21654     21653     21655     21653     21656     21656     21657
     21656     21658     21658     21659     21658     21660     21660     21661
     21660     21662     21660     21663     21663     21664     21663     21665
     21663     21666     21666     21667     21666     21668     21666     21669
     21669     21670     21669     21671     21669     21672     21672     21673
     21672     21674     21672     21675     21675     21676     21675     21677
     21675     21678     21678     21679     21678     21680     21678     21681
     21681     21682     21681     21683     21681     21684     21632     21633
     21633     21635     21633     21634     21635     21636     21635     21637
     21635     21685     21685     21686     21685     21687     21685     21688
     21688     21689     21688     21690     21688     21691     21691     21692
     21691     21693     21691     21694     21694     21695     21694     21696
     21694     21697     21697     21698     21697     21699     21697     21700
     21700     21701     21700     21702     21700     21703     21703     21704
     21703     21705     21703     21706     21706     21707     21706     21708
     21706     21709     21709     21710     21709     21711     21709     21712
     21712     21713     21712     21714     21712     21715     21715     21716
     21715     21717     21715     21718     21718     21719     21718     21720
     21718     21721     21721     21722     21721     21723     21721     21724
     21724     21725     21724     21726     21724     21727       223       225
       223       224       225       226       223       269       269       270
       269       271       269       266       266       267       266       268
       223       227       227       228       227       229       227       230
       230       261       261       266       261       262       262       263
       262       264       262       265       230       231       231       232
       231       233       233       234       233       235       233       236
       236       237       236       259       259       260       259       261
       236       238       238       239       238       248       248       253
       253       254       253       255       253       256       256       257
       256       258       256       259       248       249       249       250
       249       251       249       252       238       240       240       241
       240       242       240       243       243       244       243       245
       243       246       246       247       246       248       246       272
       272       273       272       274       274       275       274       276
       274       277       272       278       278       279       278       280
       278       281       281       282       281       283       281       284
       284       285       284       286       284       287       287       288
       287       289       289       290       289       291       289       292
       287       293       293       294       293       295       293       296
      2471      2472      2471      2473      2471      2474      2471      2475
      2475      2476      2475      2477      2475      2478      2478      2479
      2478      2480      2478      2485      2485      2481      2481      2484
      2481      2482      2481      2483      2486      2487      2486      2488
      2486      2489      2486      2484      2489      2490      2489      2497
      2489      2491      2497      2498      2497      2499      2497      2500
      2491      2492      2492      2494      2492      2493      2494      2495
      2494      2496      2494      2506      2506      2507      2506      2508
      2506      2509      2509      2510      2509      2511      2509      2512
      2512      2513      2512      2514      2512      2515      2515      2516
      2515      2517      2515      2518      2518      2519      2518      2520
      2518      2521      2521      2522      2521      2523      2521      2524
      2524      2525      2524      2526      2526      2527      2526      2528
      2528      2529      2528      2530      2528      2531      2531      2532
      2531      2533      2531      2534      2534      2535      2534      2536
      2534      2537      2537      2538      2537      2539      2537      2540
      2540      2541      2540      2542      2540      2543      2543      2544
      2543      2545      2543      2546      2546      2547      2546      2548
      2546      2549      2549      2550      2549      2551      2549      2552
      2500      2501      2501      2503      2501      2502      2503      2504
      2503      2505      2503      2553      2553      2554      2553      2555
      2553      2556      2556      2557      2556      2558      2556      2559
      2559      2560      2559      2561      2559      2562      2562      2563
      2562      2564      2562      2565      2565      2566      2565      2567
      2565      2568      2568      2569      2568      2570      2568      2571
      2571      2572      2571      2573      2571      2574      2574      2575
      2574      2576      2574      2577      2577      2578      2577      2579
      2577      2580      2580      2581      2580      2582      2580      2583
      2583      2584      2583      2585      2583      2586      2586      2587
      2586      2588      2586      2589      2589      2590      2589      2591
      2589      2592      2592      2593      2592      2594      2592      2595
     13685     13689     13685     13693     13685     13697     13689     13690
     13689     13691     13689     13692     13693     13694     13693     13695
     13693     13696     13697     13698     13697     13699     13697     13700
     13685     13686     13686     13687     13686     13688     13686     13701
     13701     13702     13701     13703     13701     13707     13708     13709
     13707     13704     13704     13708     13704     13705     13704     13706
     13709     13710     13709     13711     13709     13712     13712     13713
     13712     13720     13712     13714     13720     13721     13720     13722
     13720     13723     13714     13715     13715     13717     13715     13716
     13717     13718     13717     13719     13717     13729     13729     13730
     13729     13731     13729     13732     13732     13733     13732     13734
     13732     13735     13735     13736     13735     13737     13735     13738
     13738     13739     13738     13740     13738     13741     13741     13742
     13741     13743     13741     13744     13744     13745     13744     13746
     13744     13747     13747     13748     13747     13749     13749     13750
     13749     13751     13751     13752     13751     13753     13751     13754
     13754     13755     13754     13756     13754     13757     13757     13758
     13757     13759     13757     13760     13760     13761     13760     13762
     13760     13763     13763     13764     13763     13765     13763     13766
     13766     13767     13766     13768     13766     13769     13769     13770
     13769     13771     13769     13772     13772     13773     13772     13774
     13772     13775     13723     13724     13724     13726     13724     13725
     13726     13727     13726     13728     13726     13776     13776     13777
     13776     13778     13776     13779     13779     13780     13779     13781
     13779     13782     13782     13783     13782     13784     13782     13785
     13785     13786     13785     13787     13785     13788     13788     13789
     13788     13790     13788     13791     13791     13792     13791     13793
     13791     13794     13794     13795     13794     13796     13794     13797
     13797     13798     13797     13799     13797     13800     13800     13801
     13800     13802     13800     13803     13803     13804     13803     13805
     13803     13806     13806     13807     13806     13808     13806     13809
     13809     13810     13809     13811     13809     13812     13812     13813
     13812     13814     13812     13815     13815     13816     13815     13817
     13815     13818     13819     13823     13819     13827     13819     13831
     13823     13824     13823     13825     13823     13826     13827     13828
     13827     13829     13827     13830     13831     13832     13831     13833
     13831     13834     13819     13820     13820     13821     13820     13822
     13820     13835     13835     13836     13835     13837     13835     13841
     13842     13843     13841     13838     13838     13842     13838     13839
     13838     13840     13843     13844     13843     13845     13843     13846
     13846     13847     13846     13854     13846     13848     13854     13855
     13854     13856     13854     13857     13848     13849     13849     13851
     13849     13850     13851     13852     13851     13853     13851     13863
     13863     13864     13863     13865     13863     13866     13866     13867
     13866     13868     13866     13869     13869     13870     13869     13871
     13869     13872     13872     13873     13872     13874     13872     13875
     13875     13876     13875     13877     13875     13878     13878     13879
     13878     13880     13878     13881     13881     13882     13881     13883
     13883     13884     13883     13885     13885     13886     13885     13887
     13885     13888     13888     13889     13888     13890     13888     13891
     13891     13892     13891     13893     13891     13894     13894     13895
     13894     13896     13894     13897     13897     13898     13897     13899
     13897     13900     13900     13901     13900     13902     13900     13903
     13903     13904     13903     13905     13903     13906     13906     13907
     13906     13908     13906     13909     13857     13858     13858     13860
     13858     13859     13860     13861     13860     13862     13860     13910
     13910     13911     13910     13912     13910     13913     13913     13914
     13913     13915     13913     13916     13916     13917     13916     13918
     13916     13919     13919     13920     13919     13921     13919     13922
     13922     13923     13922     13924     13922     13925     13925     13926
     13925     13927     13925     13928     13928     13929     13928     13930
     13928     13931     13931     13932     13931     13933     13931     13934
     13934     13935     13934     13936     13934     13937     13937     13938
     13937     13939     13937     13940     13940     13941     13940     13942
     13940     13943     13943     13944     13943     13945     13943     13946
     13946     13947     13946     13948     13946     13949     13949     13950
     13949     13951     13949     13952     23036     23037     23036     23038
     23036     23039     23036     23033     23033     23034     23033     23035
     23033     23030     23030     23031     23030     23032     23030     23027
     23027     23028     23027     23029     23027     23024     23024     23025
     23024     23026     23024     23021     23021     23022     23021     23023
     23021     23018     23018     23019     23018     23020     23018     23015
     23015     23016     23015     23017     23015     23012     23012     23013
     23012     23014     23012     23009     23009     23010     23009     23011
     23009     23006     23006     23007     23006     23008     23006     23003
     23003     23004     23003     23005     23003     23000     23000     23001
     23000     23002     23000     22998     22998     22999     22996     22997
     22996     22992     22992     22993     22992     22994     22994     22995
     22992     22990     22990     22991     22990     22985     22985     22986
     22985     22987     22985     22983     22983     22980     22984     22980
     22981     22980     22982     22980     22984     22977     22977     22978
     22977     22979     22977     22974     22974     22975     22974     22976
     22974     22961     22961     22970     22961     22966     22961     22962
     22970     22971     22970     22972     22970     22973     22966     22967
     22966     22968     22966     22969     22962     22963     22962     22964
     22962     22965     22990     22988     22988     22989     22988     23040
     23040     23042     23042     23043     23042     23044     23042     23045
     23045     23046     23045     23047     23045     23048     23048     23049
     23048     23050     23048     23051     23051     23052     23051     23053
     23051     23054     23054     23055     23054     23056     23054     23057
     23057     23058     23057     23059     23057     23060     23060     23061
     23060     23062     23060     23063     23063     23064     23063     23065
     23063     23066     23066     23067     23066     23068     23066     23069
     23069     23070     23069     23071     23069     23072     23072     23073
     23072     23074     23072     23075     23075     23076     23075     23077
     23075     23078     23078     23079     23078     23080     23078     23081
     23081     23082     23081     23083     23081     23084     23084     23085
     23084     23086     23084     23087     22996     22998     23040     23041
       297       299       297       298       299       300       297       343
       343       344       343       345       343       340       340       341
       340       342       297       301       301       302       301       303
       301       304       304       335       335       340       335       336
       336       337       336       338       336       339       304       305
       305       306       305       307       307       308       307       309
       307       310       310       311       310       333       333       334
       333       335       310       312       312       313       312       322
       322       327       327       328       327       329       327       330
       330       331       330       332       330       333       322       323
       323       324       323       325       323       326       312       314
       314       315       314       316       314       317       317       318
       317       319       317       320       320       321       320       322
       320       346       346       347       346       348       348       349
       348       350       348       351       346       352       352       353
       352       354       352       355       355       356       355       357
       355       358       358       359       358       360       358       361
       361       362       361       363       363       364       363       365
       363       366       361       367       367       368       367       369
       367       370     13953     13957     13953     13961     13953     13965
     13957     13958     13957     13959     13957     13960     13961     13962
     13961     13963     13961     13964     13965     13966     13965     13967
     13965     13968     13953     13954     13954     13955     13954     13956
     13954     13969     13969     13970     13969     13971     13969     13975
     13976     13977     13975     13972     13972     13976     13972     13973
     13972     13974     13977     13978     13977     13979     13977     13980
     13980     13981     13980     13988     13980     13982     13988     13989
     13988     13990     13988     13991     13982     13983     13983     13985
     13983     13984     13985     13986     13985     13987     13985     13997
     13997     13998     13997     13999     13997     14000     14000     14001
     14000     14002     14000     14003     14003     14004     14003     14005
     14003     14006     14006     14007     14006     14008     14006     14009
     14009     14010     14009     14011     14009     14012     14012     14013
     14012     14014     14012     14015     14015     14016     14015     14017
     14017     14018     14017     14019     14019     14020     14019     14021
     14019     14022     14022     14023     14022     14024     14022     14025
     14025     14026     14025     14027     14025     14028     14028     14029
     14028     14030     14028     14031     14031     14032     14031     14033
     14031     14034     14034     14035     14034     14036     14034     14037
     14037     14038     14037     14039     14037     14040     14040     14041
     14040     14042     14040     14043     13991     13992     13992     13994
     13992     13993     13994     13995     13994     13996     13994     14044
     14044     14045     14044     14046     14044     14047     14047     14048
     14047     14049     14047     14050     14050     14051     14050     14052
     14050     14053     14053     14054     14053     14055     14053     14056
     14056     14057     14056     14058     14056     14059     14059     14060
     14059     14061     14059     14062     14062     14063     14062     14064
     14062     14065     14065     14066     14065     14067     14065     14068
     14068     14069     14068     14070     14068     14071     14071     14072
     14071     14073     14071     14074     14074     14075     14074     14076
     14074     14077     14077     14078     14077     14079     14077     14080
     14080     14081     14080     14082     14080     14083     14083     14084
     14083     14085     14083     14086      8598      8599      8598      8600
      8598      8601      8598      8602      8606      8604      8604      8602
      8604      8605      8602      8603      8602      8607      8615      8614
      8607      8608      8607      8609      8607      8613      8613      8610
      8610      8614      8610      8611      8610      8612      8615      8616
      8615      8617      8615      8618      8618      8619      8618      8626
      8618      8620      8626      8627      8626      8628      8626      8629
      8620      8621      8621      8623      8621      8622      8623      8624
      8623      8625      8623      8635      8635      8636      8635      8637
      8635      8638      8638      8639      8638      8640      8638      8641
      8641      8642      8641      8643      8641      8644      8644      8645
      8644      8646      8644      8647      8647      8648      8647      8649
      8647      8650      8650      8651      8650      8652      8650      8653
      8653      8654      8653      8655      8655      8656      8655      8657
      8657      8658      8657      8659      8657      8660      8660      8661
      8660      8662      8660      8663      8663      8664      8663      8665
      8663      8666      8666      8667      8666      8668      8666      8669
      8669      8670      8669      8671      8669      8672      8672      8673
      8672      8674      8672      8675      8675      8676      8675      8677
      8675      8678      8678      8679      8678      8680      8678      8681
      8629      8630      8630      8632      8630      8631      8632      8633
      8632      8634      8632      8682      8682      8683      8682      8684
      8682      8685      8685      8686      8685      8687      8685      8688
      8688      8689      8688      8690      8688      8691      8691      8692
      8691      8693      8691      8694      8694      8695      8694      8696
      8694      8697      8697      8698      8697      8699      8697      8700
      8700      8701      8700      8702      8700      8703      8703      8704
      8703      8705      8703      8706      8706      8707      8706      8708
      8706      8709      8709      8710      8709      8711      8709      8712
      8712      8713      8712      8714      8712      8715      8715      8716
      8715      8717      8715      8718      8718      8719      8718      8720
      8718      8721      8721      8722      8721      8723      8721      8724
     14087     14091     14087     14095     14087     14099     14091     14092
     14091     14093     14091     14094     14095     14096     14095     14097
     14095     14098     14099     14100     14099     14101     14099     14102
     14087     14088     14088     14089     14088     14090     14088     14103
     14103     14104     14103     14105     14103     14109     14110     14111
     14109     14106     14106     14110     14106     14107     14106     14108
     14111     14112     14111     14113     14111     14114     14114     14115
     14114     14122     14114     14116     14122     14123     14122     14124
     14122     14125     14116     14117     14117     14119     14117     14118
     14119     14120     14119     14121     14119     14131     14131     14132
     14131     14133     14131     14134     14134     14135     14134     14136
     14134     14137     14137     14138     14137     14139     14137     14140
     14140     14141     14140     14142     14140     14143     14143     14144
     14143     14145     14143     14146     14146     14147     14146     14148
     14146     14149     14149     14150     14149     14151     14151     14152
     14151     14153     14153     14154     14153     14155     14153     14156
     14156     14157     14156     14158     14156     14159     14159     14160
     14159     14161     14159     14162     14162     14163     14162     14164
     14162     14165     14165     14166     14165     14167     14165     14168
     14168     14169     14168     14170     14168     14171     14171     14172
     14171     14173     14171     14174     14174     14175     14174     14176
     14174     14177     14125     14126     14126     14128     14126     14127
     14128     14129     14128     14130     14128     14178     14178     14179
     14178     14180     14178     14181     14181     14182     14181     14183
     14181     14184     14184     14185     14184     14186     14184     14187
     14187     14188     14187     14189     14187     14190     14190     14191
     14190     14192     14190     14193     14193     14194     14193     14195
     14193     14196     14196     14197     14196     14198     14196     14199
     14199     14200     14199     14201     14199     14202     14202     14203
     14202     14204     14202     14205     14205     14206     14205     14207
     14205     14208     14208     14209     14208     14210     14208     14211
     14211     14212     14211     14213     14211     14214     14214     14215
     14214     14216     14214     14217     14217     14218     14217     14219
     14217     14220      2596      2597      2596      2598      2596      2599
      2596      2600      2600      2601      2600      2602      2600      2603
      2603      2604      2603      2605      2603      2610      2610      2606
      2606      2609      2606      2607      2606      2608      2611      2612
      2611      2613      2611      2614      2611      2609      2614      2615
      2614      2622      2614      2616      2622      2623      2622      2624
      2622      2625      2616      2617      2617      2619      2617      2618
      2619      2620      2619      2621      2619      2631      2631      2632
      2631      2633      2631      2634      2634      2635      2634      2636
      2634      2637      2637      2638      2637      2639      2637      2640
      2640      2641      2640      2642      2640      2643      2643      2644
      2643      2645      2643      2646      2646      2647      2646      2648
      2646      2649      2649      2650      2649      2651      2651      2652
      2651      2653      2653      2654      2653      2655      2653      2656
      2656      2657      2656      2658      2656      2659      2659      2660
      2659      2661      2659      2662      2662      2663      2662      2664
      2662      2665      2665      2666      2665      2667      2665      2668
      2668      2669      2668      2670      2668      2671      2671      2672
      2671      2673      2671      2674      2674      2675      2674      2676
      2674      2677      2625      2626      2626      2628      2626      2627
      2628      2629      2628      2630      2628      2678      2678      2679
      2678      2680      2678      2681      2681      2682      2681      2683
      2681      2684      2684      2685      2684      2686      2684      2687
      2687      2688      2687      2689      2687      2690      2690      2691
      2690      2692      2690      2693      2693      2694      2693      2695
      2693      2696      2696      2697      2696      2698      2696      2699
      2699      2700      2699      2701      2699      2702      2702      2703
      2702      2704      2702      2705      2705      2706      2705      2707
      2705      2708      2708      2709      2708      2710      2708      2711
      2711      2712      2711      2713      2711      2714      2714      2715
      2714      2716      2714      2717      2717      2718      2717      2719
      2717      2720     14221     14225     14221     14229     14221     14233
     14225     14226     14225     14227     14225     14228     14229     14230
     14229     14231     14229     14232     14233     14234     14233     14235
     14233     14236     14221     14222     14222     14223     14222     14224
     14222     14237     14237     14238     14237     14239     14237     14243
     14244     14245     14243     14240     14240     14244     14240     14241
     14240     14242     14245     14246     14245     14247     14245     14248
     14248     14249     14248     14256     14248     14250     14256     14257
     14256     14258     14256     14259     14250     14251     14251     14253
     14251     14252     14253     14254     14253     14255     14253     14265
     14265     14266     14265     14267     14265     14268     14268     14269
     14268     14270     14268     14271     14271     14272     14271     14273
     14271     14274     14274     14275     14274     14276     14274     14277
     14277     14278     14277     14279     14277     14280     14280     14281
     14280     14282     14280     14283     14283     14284     14283     14285
     14285     14286     14285     14287     14287     14288     14287     14289
     14287     14290     14290     14291     14290     14292     14290     14293
     14293     14294     14293     14295     14293     14296     14296     14297
     14296     14298     14296     14299     14299     14300     14299     14301
     14299     14302     14302     14303     14302     14304     14302     14305
     14305     14306     14305     14307     14305     14308     14308     14309
     14308     14310     14308     14311     14259     14260     14260     14262
     14260     14261     14262     14263     14262     14264     14262     14312
     14312     14313     14312     14314     14312     14315     14315     14316
     14315     14317     14315     14318     14318     14319     14318     14320
     14318     14321     14321     14322     14321     14323     14321     14324
     14324     14325     14324     14326     14324     14327     14327     14328
     14327     14329     14327     14330     14330     14331     14330     14332
     14330     14333     14333     14334     14333     14335     14333     14336
     14336     14337     14336     14338     14336     14339     14339     14340
     14339     14341     14339     14342     14342     14343     14342     14344
     14342     14345     14345     14346     14345     14347     14345     14348
     14348     14349     14348     14350     14348     14351     14351     14352
     14351     14353     14351     14354     23163     23164     23163     23165
     23163     23166     23163     23160     23160     23161     23160     23162
     23160     23157     23157     23158     23157     23159     23157     23154
     23154     23155     23154     23156     23154     23151     23151     23152
     23151     23153     23151     23148     23148     23149     23148     23150
     23148     23145     23145     23146     23145     23147     23145     23142
     23142     23143     23142     23144     23142     23139     23139     23140
     23139     23141     23139     23136     23136     23137     23136     23138
     23136     23133     23133     23134     23133     23135     23133     23130
     23130     23131     23130     23132     23130     23127     23127     23128
     23127     23129     23127     23125     23125     23126     23123     23124
     23123     23119     23119     23120     23119     23121     23121     23122
     23119     23117     23117     23118     23117     23112     23112     23113
     23112     23114     23112     23110     23110     23107     23111     23107
     23108     23107     23109     23107     23111     23104     23104     23105
     23104     23106     23104     23101     23101     23102     23101     23103
     23101     23088     23088     23097     23088     23093     23088     23089
     23097     23098     23097     23099     23097     23100     23093     23094
     23093     23095     23093     23096     23089     23090     23089     23091
     23089     23092     23117     23115     23115     23116     23115     23167
     23167     23169     23169     23170     23169     23171     23169     23172
     23172     23173     23172     23174     23172     23175     23175     23176
     23175     23177     23175     23178     23178     23179     23178     23180
     23178     23181     23181     23182     23181     23183     23181     23184
     23184     23185     23184     23186     23184     23187     23187     23188
     23187     23189     23187     23190     23190     23191     23190     23192
     23190     23193     23193     23194     23193     23195     23193     23196
     23196     23197     23196     23198     23196     23199     23199     23200
     23199     23201     23199     23202     23202     23203     23202     23204
     23202     23205     23205     23206     23205     23207     23205     23208
     23208     23209     23208     23210     23208     23211     23211     23212
     23211     23213     23211     23214     23123     23125     23167     23168
      2721      2722      2721      2723      2721      2724      2721      2725
      2725      2726      2725      2727      2725      2728      2728      2729
      2728      2730      2728      2735      2735      2731      2731      2734
      2731      2732      2731      2733      2736      2737      2736      2738
      2736      2739      2736      2734      2739      2740      2739      2747
      2739      2741      2747      2748      2747      2749      2747      2750
      2741      2742      2742      2744      2742      2743      2744      2745
      2744      2746      2744      2756      2756      2757      2756      2758
      2756      2759      2759      2760      2759      2761      2759      2762
      2762      2763      2762      2764      2762      2765      2765      2766
      2765      2767      2765      2768      2768      2769      2768      2770
      2768      2771      2771      2772      2771      2773      2771      2774
      2774      2775      2774      2776      2776      2777      2776      2778
      2778      2779      2778      2780      2778      2781      2781      2782
      2781      2783      2781      2784      2784      2785      2784      2786
      2784      2787      2787      2788      2787      2789      2787      2790
      2790      2791      2790      2792      2790      2793      2793      2794
      2793      2795      2793      2796      2796      2797      2796      2798
      2796      2799      2799      2800      2799      2801      2799      2802
      2750      2751      2751      2753      2751      2752      2753      2754
      2753      2755      2753      2803      2803      2804      2803      2805
      2803      2806      2806      2807      2806      2808      2806      2809
      2809      2810      2809      2811      2809      2812      2812      2813
      2812      2814      2812      2815      2815      2816      2815      2817
      2815      2818      2818      2819      2818      2820      2818      2821
      2821      2822      2821      2823      2821      2824      2824      2825
      2824      2826      2824      2827      2827      2828      2827      2829
      2827      2830      2830      2831      2830      2832      2830      2833
      2833      2834      2833      2835      2833      2836      2836      2837
      2836      2838      2836      2839      2839      2840      2839      2841
      2839      2842      2842      2843      2842      2844      2842      2845
       371       373       371       372       373       374       371       417
       417       418       417       419       417       414       414       415
       414       416       371       375       375       376       375       377
       375       378       378       409       409       414       409       410
       410       411       410       412       410       413       378       379
       379       380       379       381       381       382       381       383
       381       384       384       385       384       407       407       408
       407       409       384       386       386       387       386       396
       396       401       401       402       401       403       401       404
       404       405       404       406       404       407       396       397
       397       398       397       399       397       400       386       388
       388       389       388       390       388       391       391       392
       391       393       391       394       394       395       394       396
       394       420       420       421       420       422       422       423
       422       424       422       425       420       426       426       427
       426       428       426       429       429       430       429       431
       429       432       432       433       432       434       432       435
       435       436       435       437       437       438       437       439
       437       440       435       441       441       442       441       443
       441       444     14355     14359     14355     14363     14355     14367
     14359     14360     14359     14361     14359     14362     14363     14364
     14363     14365     14363     14366     14367     14368     14367     14369
     14367     14370     14355     14356     14356     14357     14356     14358
     14356     14371     14371     14372     14371     14373     14371     14377
     14378     14379     14377     14374     14374     14378     14374     14375
     14374     14376     14379     14380     14379     14381     14379     14382
     14382     14383     14382     14390     14382     14384     14390     14391
     14390     14392     14390     14393     14384     14385     14385     14387
     14385     14386     14387     14388     14387     14389     14387     14399
     14399     14400     14399     14401     14399     14402     14402     14403
     14402     14404     14402     14405     14405     14406     14405     14407
     14405     14408     14408     14409     14408     14410     14408     14411
     14411     14412     14411     14413     14411     14414     14414     14415
     14414     14416     14414     14417     14417     14418     14417     14419
     14419     14420     14419     14421     14421     14422     14421     14423
     14421     14424     14424     14425     14424     14426     14424     14427
     14427     14428     14427     14429     14427     14430     14430     14431
     14430     14432     14430     14433     14433     14434     14433     14435
     14433     14436     14436     14437     14436     14438     14436     14439
     14439     14440     14439     14441     14439     14442     14442     14443
     14442     14444     14442     14445     14393     14394     14394     14396
     14394     14395     14396     14397     14396     14398     14396     14446
     14446     14447     14446     14448     14446     14449     14449     14450
     14449     14451     14449     14452     14452     14453     14452     14454
     14452     14455     14455     14456     14455     14457     14455     14458
     14458     14459     14458     14460     14458     14461     14461     14462
     14461     14463     14461     14464     14464     14465     14464     14466
     14464     14467     14467     14468     14467     14469     14467     14470
     14470     14471     14470     14472     14470     14473     14473     14474
     14473     14475     14473     14476     14476     14477     14476     14478
     14476     14479     14479     14480     14479     14481     14479     14482
     14482     14483     14482     14484     14482     14485     14485     14486
     14485     14487     14485     14488      8725      8726      8725      8727
      8725      8728      8725      8729      8733      8731      8731      8729
      8731      8732      8729      8730      8729      8734      8742      8741
      8734      8735      8734      8736      8734      8740      8740      8737
      8737      8741      8737      8738      8737      8739      8742      8743
      8742      8744      8742      8745      8745      8746      8745      8753
      8745      8747      8753      8754      8753      8755      8753      8756
      8747      8748      8748      8750      8748      8749      8750      8751
      8750      8752      8750      8762      8762      8763      8762      8764
      8762      8765      8765      8766      8765      8767      8765      8768
      8768      8769      8768      8770      8768      8771      8771      8772
      8771      8773      8771      8774      8774      8775      8774      8776
      8774      8777      8777      8778      8777      8779      8777      8780
      8780      8781      8780      8782      8782      8783      8782      8784
      8784      8785      8784      8786      8784      8787      8787      8788
      8787      8789      8787      8790      8790      8791      8790      8792
      8790      8793      8793      8794      8793      8795      8793      8796
      8796      8797      8796      8798      8796      8799      8799      8800
      8799      8801      8799      8802      8802      8803      8802      8804
      8802      8805      8805      8806      8805      8807      8805      8808
      8756      8757      8757      8759      8757      8758      8759      8760
      8759      8761      8759      8809      8809      8810      8809      8811
      8809      8812      8812      8813      8812      8814      8812      8815
      8815      8816      8815      8817      8815      8818      8818      8819
      8818      8820      8818      8821      8821      8822      8821      8823
      8821      8824      8824      8825      8824      8826      8824      8827
      8827      8828      8827      8829      8827      8830      8830      8831
      8830      8832      8830      8833      8833      8834      8833      8835
      8833      8836      8836      8837      8836      8838      8836      8839
      8839      8840      8839      8841      8839      8842      8842      8843
      8842      8844      8842      8845      8845      8846      8845      8847
      8845      8848      8848      8849      8848      8850      8848      8851
      8852      8853      8852      8854      8852      8855      8852      8856
      8860      8858      8858      8856      8858      8859      8856      8857
      8856      8861      8869      8868      8861      8862      8861      8863
      8861      8867      8867      8864      8864      8868      8864      8865
      8864      8866      8869      8870      8869      8871      8869      8872
      8872      8873      8872      8880      8872      8874      8880      8881
      8880      8882      8880      8883      8874      8875      8875      8877
      8875      8876      8877      8878      8877      8879      8877      8889
      8889      8890      8889      8891      8889      8892      8892      8893
      8892      8894      8892      8895      8895      8896      8895      8897
      8895      8898      8898      8899      8898      8900      8898      8901
      8901      8902      8901      8903      8901      8904      8904      8905
      8904      8906      8904      8907      8907      8908      8907      8909
      8909      8910      8909      8911      8911      8912      8911      8913
      8911      8914      8914      8915      8914      8916      8914      8917
      8917      8918      8917      8919      8917      8920      8920      8921
      8920      8922      8920      8923      8923      8924      8923      8925
      8923      8926      8926      8927      8926      8928      8926      8929
      8929      8930      8929      8931      8929      8932      8932      8933
      8932      8934      8932      8935      8883      8884      8884      8886
      8884      8885      8886      8887      8886      8888      8886      8936
      8936      8937      8936      8938      8936      8939      8939      8940
      8939      8941      8939      8942      8942      8943      8942      8944
      8942      8945      8945      8946      8945      8947      8945      8948
      8948      8949      8948      8950      8948      8951      8951      8952
      8951      8953      8951      8954      8954      8955      8954      8956
      8954      8957      8957      8958      8957      8959      8957      8960
      8960      8961      8960      8962      8960      8963      8963      8964
      8963      8965      8963      8966      8966      8967      8966      8968
      8966      8969      8969      8970      8969      8971      8969      8972
      8972      8973      8972      8974      8972      8975      8975      8976
      8975      8977      8975      8978      2846      2847      2846      2848
      2846      2849      2846      2850      2850      2851      2850      2852
      2850      2853      2853      2854      2853      2855      2853      2860
      2860      2856      2856      2859      2856      2857      2856      2858
      2861      2862      2861      2863      2861      2864      2861      2859
      2864      2865      2864      2872      2864      2866      2872      2873
      2872      2874      2872      2875      2866      2867      2867      2869
      2867      2868      2869      2870      2869      2871      2869      2881
      2881      2882      2881      2883      2881      2884      2884      2885
      2884      2886      2884      2887      2887      2888      2887      2889
      2887      2890      2890      2891      2890      2892      2890      2893
      2893      2894      2893      2895      2893      2896      2896      2897
      2896      2898      2896      2899      2899      2900      2899      2901
      2901      2902      2901      2903      2903      2904      2903      2905
      2903      2906      2906      2907      2906      2908      2906      2909
      2909      2910      2909      2911      2909      2912      2912      2913
      2912      2914      2912      2915      2915      2916      2915      2917
      2915      2918      2918      2919      2918      2920      2918      2921
      2921      2922      2921      2923      2921      2924      2924      2925
      2924      2926      2924      2927      2875      2876      2876      2878
      2876      2877      2878      2879      2878      2880      2878      2928
      2928      2929      2928      2930      2928      2931      2931      2932
      2931      2933      2931      2934      2934      2935      2934      2936
      2934      2937      2937      2938      2937      2939      2937      2940
      2940      2941      2940      2942      2940      2943      2943      2944
      2943      2945      2943      2946      2946      2947      2946      2948
      2946      2949      2949      2950      2949      2951      2949      2952
      2952      2953      2952      2954      2952      2955      2955      2956
      2955      2957      2955      2958      2958      2959      2958      2960
      2958      2961      2961      2962      2961      2963      2961      2964
      2964      2965      2964      2966      2964      2967      2967      2968
      2967      2969      2967      2970      8979      8980      8979      8981
      8979      8982      8979      8983      8987      8985      8985      8983
      8985      8986      8983      8984      8983      8988      8996      8995
      8988      8989      8988      8990      8988      8994      8994      8991
      8991      8995      8991      8992      8991      8993      8996      8997
      8996      8998      8996      8999      8999      9000      8999      9007
      8999      9001      9007      9008      9007      9009      9007      9010
      9001      9002      9002      9004      9002      9003      9004      9005
      9004      9006      9004      9016      9016      9017      9016      9018
      9016      9019      9019      9020      9019      9021      9019      9022
      9022      9023      9022      9024      9022      9025      9025      9026
      9025      9027      9025      9028      9028      9029      9028      9030
      9028      9031      9031      9032      9031      9033      9031      9034
      9034      9035      9034      9036      9036      9037      9036      9038
      9038      9039      9038      9040      9038      9041      9041      9042
      9041      9043      9041      9044      9044      9045      9044      9046
      9044      9047      9047      9048      9047      9049      9047      9050
      9050      9051      9050      9052      9050      9053      9053      9054
      9053      9055      9053      9056      9056      9057      9056      9058
      9056      9059      9059      9060      9059      9061      9059      9062
      9010      9011      9011      9013      9011      9012      9013      9014
      9013      9015      9013      9063      9063      9064      9063      9065
      9063      9066      9066      9067      9066      9068      9066      9069
      9069      9070      9069      9071      9069      9072      9072      9073
      9072      9074      9072      9075      9075      9076      9075      9077
      9075      9078      9078      9079      9078      9080      9078      9081
      9081      9082      9081      9083      9081      9084      9084      9085
      9084      9086      9084      9087      9087      9088      9087      9089
      9087      9090      9090      9091      9090      9092      9090      9093
      9093      9094      9093      9095      9093      9096      9096      9097
      9096      9098      9096      9099      9099      9100      9099      9101
      9099      9102      9102      9103      9102      9104      9102      9105
      9106      9107      9106      9108      9106      9109      9106      9110
      9114      9112      9112      9110      9112      9113      9110      9111
      9110      9115      9123      9122      9115      9116      9115      9117
      9115      9121      9121      9118      9118      9122      9118      9119
      9118      9120      9123      9124      9123      9125      9123      9126
      9126      9127      9126      9134      9126      9128      9134      9135
      9134      9136      9134      9137      9128      9129      9129      9131
      9129      9130      9131      9132      9131      9133      9131      9143
      9143      9144      9143      9145      9143      9146      9146      9147
      9146      9148      9146      9149      9149      9150      9149      9151
      9149      9152      9152      9153      9152      9154      9152      9155
      9155      9156      9155      9157      9155      9158      9158      9159
      9158      9160      9158      9161      9161      9162      9161      9163
      9163      9164      9163      9165      9165      9166      9165      9167
      9165      9168      9168      9169      9168      9170      9168      9171
      9171      9172      9171      9173      9171      9174      9174      9175
      9174      9176      9174      9177      9177      9178      9177      9179
      9177      9180      9180      9181      9180      9182      9180      9183
      9183      9184      9183      9185      9183      9186      9186      9187
      9186      9188      9186      9189      9137      9138      9138      9140
      9138      9139      9140      9141      9140      9142      9140      9190
      9190      9191      9190      9192      9190      9193      9193      9194
      9193      9195      9193      9196      9196      9197      9196      9198
      9196      9199      9199      9200      9199      9201      9199      9202
      9202      9203      9202      9204      9202      9205      9205      9206
      9205      9207      9205      9208      9208      9209      9208      9210
      9208      9211      9211      9212      9211      9213      9211      9214
      9214      9215      9214      9216      9214      9217      9217      9218
      9217      9219      9217      9220      9220      9221      9220      9222
      9220      9223      9223      9224      9223      9225      9223      9226
      9226      9227      9226      9228      9226      9229      9229      9230
      9229      9231      9229      9232     14489     14493     14489     14497
     14489     14501     14493     14494     14493     14495     14493     14496
     14497     14498     14497     14499     14497     14500     14501     14502
     14501     14503     14501     14504     14489     14490     14490     14491
     14490     14492     14490     14505     14505     14506     14505     14507
     14505     14511     14512     14513     14511     14508     14508     14512
     14508     14509     14508     14510     14513     14514     14513     14515
     14513     14516     14516     14517     14516     14524     14516     14518
     14524     14525     14524     14526     14524     14527     14518     14519
     14519     14521     14519     14520     14521     14522     14521     14523
     14521     14533     14533     14534     14533     14535     14533     14536
     14536     14537     14536     14538     14536     14539     14539     14540
     14539     14541     14539     14542     14542     14543     14542     14544
     14542     14545     14545     14546     14545     14547     14545     14548
     14548     14549     14548     14550     14548     14551     14551     14552
     14551     14553     14553     14554     14553     14555     14555     14556
     14555     14557     14555     14558     14558     14559     14558     14560
     14558     14561     14561     14562     14561     14563     14561     14564
     14564     14565     14564     14566     14564     14567     14567     14568
     14567     14569     14567     14570     14570     14571     14570     14572
     14570     14573     14573     14574     14573     14575     14573     14576
     14576     14577     14576     14578     14576     14579     14527     14528
     14528     14530     14528     14529     14530     14531     14530     14532
     14530     14580     14580     14581     14580     14582     14580     14583
     14583     14584     14583     14585     14583     14586     14586     14587
     14586     14588     14586     14589     14589     14590     14589     14591
     14589     14592     14592     14593     14592     14594     14592     14595
     14595     14596     14595     14597     14595     14598     14598     14599
     14598     14600     14598     14601     14601     14602     14601     14603
     14601     14604     14604     14605     14604     14606     14604     14607
     14607     14608     14607     14609     14607     14610     14610     14611
     14610     14612     14610     14613     14613     14614     14613     14615
     14613     14616     14616     14617     14616     14618     14616     14619
     14619     14620     14619     14621     14619     14622     14623     14627
     14623     14631     14623     14635     14627     14628     14627     14629
     14627     14630     14631     14632     14631     14633     14631     14634
     14635     14636     14635     14637     14635     14638     14623     14624
     14624     14625     14624     14626     14624     14639     14639     14640
     14639     14641     14639     14645     14646     14647     14645     14642
     14642     14646     14642     14643     14642     14644     14647     14648
     14647     14649     14647     14650     14650     14651     14650     14658
     14650     14652     14658     14659     14658     14660     14658     14661
     14652     14653     14653     14655     14653     14654     14655     14656
     14655     14657     14655     14667     14667     14668     14667     14669
     14667     14670     14670     14671     14670     14672     14670     14673
     14673     14674     14673     14675     14673     14676     14676     14677
     14676     14678     14676     14679     14679     14680     14679     14681
     14679     14682     14682     14683     14682     14684     14682     14685
     14685     14686     14685     14687     14687     14688     14687     14689
     14689     14690     14689     14691     14689     14692     14692     14693
     14692     14694     14692     14695     14695     14696     14695     14697
     14695     14698     14698     14699     14698     14700     14698     14701
     14701     14702     14701     14703     14701     14704     14704     14705
     14704     14706     14704     14707     14707     14708     14707     14709
     14707     14710     14710     14711     14710     14712     14710     14713
     14661     14662     14662     14664     14662     14663     14664     14665
     14664     14666     14664     14714     14714     14715     14714     14716
     14714     14717     14717     14718     14717     14719     14717     14720
     14720     14721     14720     14722     14720     14723     14723     14724
     14723     14725     14723     14726     14726     14727     14726     14728
     14726     14729     14729     14730     14729     14731     14729     14732
     14732     14733     14732     14734     14732     14735     14735     14736
     14735     14737     14735     14738     14738     14739     14738     14740
     14738     14741     14741     14742     14741     14743     14741     14744
     14744     14745     14744     14746     14744     14747     14747     14748
     14747     14749     14747     14750     14750     14751     14750     14752
     14750     14753     14753     14754     14753     14755     14753     14756
      2971      2972      2971      2973      2971      2974      2971      2975
      2975      2976      2975      2977      2975      2978      2978      2979
      2978      2980      2978      2985      2985      2981      2981      2984
      2981      2982      2981      2983      2986      2987      2986      2988
      2986      2989      2986      2984      2989      2990      2989      2997
      2989      2991      2997      2998      2997      2999      2997      3000
      2991      2992      2992      2994      2992      2993      2994      2995
      2994      2996      2994      3006      3006      3007      3006      3008
      3006      3009      3009      3010      3009      3011      3009      3012
      3012      3013      3012      3014      3012      3015      3015      3016
      3015      3017      3015      3018      3018      3019      3018      3020
      3018      3021      3021      3022      3021      3023      3021      3024
      3024      3025      3024      3026      3026      3027      3026      3028
      3028      3029      3028      3030      3028      3031      3031      3032
      3031      3033      3031      3034      3034      3035      3034      3036
      3034      3037      3037      3038      3037      3039      3037      3040
      3040      3041      3040      3042      3040      3043      3043      3044
      3043      3045      3043      3046      3046      3047      3046      3048
      3046      3049      3049      3050      3049      3051      3049      3052
      3000      3001      3001      3003      3001      3002      3003      3004
      3003      3005      3003      3053      3053      3054      3053      3055
      3053      3056      3056      3057      3056      3058      3056      3059
      3059      3060      3059      3061      3059      3062      3062      3063
      3062      3064      3062      3065      3065      3066      3065      3067
      3065      3068      3068      3069      3068      3070      3068      3071
      3071      3072      3071      3073      3071      3074      3074      3075
      3074      3076      3074      3077      3077      3078      3077      3079
      3077      3080      3080      3081      3080      3082      3080      3083
      3083      3084      3083      3085      3083      3086      3086      3087
      3086      3088      3086      3089      3089      3090      3089      3091
      3089      3092      3092      3093      3092      3094      3092      3095
       445       447       445       446       447       448       445       491
       491       492       491       493       491       488       488       489
       488       490       445       449       449       450       449       451
       449       452       452       483       483       488       483       484
       484       485       484       486       484       487       452       453
       453       454       453       455       455       456       455       457
       455       458       458       459       458       481       481       482
       481       483       458       460       460       461       460       470
       470       475       475       476       475       477       475       478
       478       479       478       480       478       481       470       471
       471       472       471       473       471       474       460       462
       462       463       462       464       462       465       465       466
       465       467       465       468       468       469       468       470
       468       494       494       495       494       496       496       497
       496       498       496       499       494       500       500       501
       500       502       500       503       503       504       503       505
       503       506       506       507       506       508       506       509
       509       510       509       511       511       512       511       513
       511       514       509       515       515       516       515       517
       515       518      3096      3097      3096      3098      3096      3099
      3096      3100      3100      3101      3100      3102      3100      3103
      3103      3104      3103      3105      3103      3110      3110      3106
      3106      3109      3106      3107      3106      3108      3111      3112
      3111      3113      3111      3114      3111      3109      3114      3115
      3114      3122      3114      3116      3122      3123      3122      3124
      3122      3125      3116      3117      3117      3119      3117      3118
      3119      3120      3119      3121      3119      3131      3131      3132
      3131      3133      3131      3134      3134      3135      3134      3136
      3134      3137      3137      3138      3137      3139      3137      3140
      3140      3141      3140      3142      3140      3143      3143      3144
      3143      3145      3143      3146      3146      3147      3146      3148
      3146      3149      3149      3150      3149      3151      3151      3152
      3151      3153      3153      3154      3153      3155      3153      3156
      3156      3157      3156      3158      3156      3159      3159      3160
      3159      3161      3159      3162      3162      3163      3162      3164
      3162      3165      3165      3166      3165      3167      3165      3168
      3168      3169      3168      3170      3168      3171      3171      3172
      3171      3173      3171      3174      3174      3175      3174      3176
      3174      3177      3125      3126      3126      3128      3126      3127
      3128      3129      3128      3130      3128      3178      3178      3179
      3178      3180      3178      3181      3181      3182      3181      3183
      3181      3184      3184      3185      3184      3186      3184      3187
      3187      3188      3187      3189      3187      3190      3190      3191
      3190      3192      3190      3193      3193      3194      3193      3195
      3193      3196      3196      3197      3196      3198      3196      3199
      3199      3200      3199      3201      3199      3202      3202      3203
      3202      3204      3202      3205      3205      3206      3205      3207
      3205      3208      3208      3209      3208      3210      3208      3211
      3211      3212      3211      3213      3211      3214      3214      3215
      3214      3216      3214      3217      3217      3218      3217      3219
      3217      3220      9233      9234      9233      9235      9233      9236
      9233      9237      9241      9239      9239      9237      9239      9240
      9237      9238      9237      9242      9250      9249      9242      9243
      9242      9244      9242      9248      9248      9245      9245      9249
      9245      9246      9245      9247      9250      9251      9250      9252
      9250      9253      9253      9254      9253      9261      9253      9255
      9261      9262      9261      9263      9261      9264      9255      9256
      9256      9258      9256      9257      9258      9259      9258      9260
      9258      9270      9270      9271      9270      9272      9270      9273
      9273      9274      9273      9275      9273      9276      9276      9277
      9276      9278      9276      9279      9279      9280      9279      9281
      9279      9282      9282      9283      9282      9284      9282      9285
      9285      9286      9285      9287      9285      9288      9288      9289
      9288      9290      9290      9291      9290      9292      9292      9293
      9292      9294      9292      9295      9295      9296      9295      9297
      9295      9298      9298      9299      9298      9300      9298      9301
      9301      9302      9301      9303      9301      9304      9304      9305
      9304      9306      9304      9307      9307      9308      9307      9309
      9307      9310      9310      9311      9310      9312      9310      9313
      9313      9314      9313      9315      9313      9316      9264      9265
      9265      9267      9265      9266      9267      9268      9267      9269
      9267      9317      9317      9318      9317      9319      9317      9320
      9320      9321      9320      9322      9320      9323      9323      9324
      9323      9325      9323      9326      9326      9327      9326      9328
      9326      9329      9329      9330      9329      9331      9329      9332
      9332      9333      9332      9334      9332      9335      9335      9336
      9335      9337      9335      9338      9338      9339      9338      9340
      9338      9341      9341      9342      9341      9343      9341      9344
      9344      9345      9344      9346      9344      9347      9347      9348
      9347      9349      9347      9350      9350      9351      9350      9352
      9350      9353      9353      9354      9353      9355      9353      9356
      9356      9357      9356      9358      9356      9359      3221      3222
      3221      3223      3221      3224      3221      3225      3225      3226
      3225      3227      3225      3228      3228      3229      3228      3230
      3228      3235      3235      3231      3231      3234      3231      3232
      3231      3233      3236      3237      3236      3238      3236      3239
      3236      3234      3239      3240      3239      3247      3239      3241
      3247      3248      3247      3249      3247      3250      3241      3242
      3242      3244      3242      3243      3244      3245      3244      3246
      3244      3256      3256      3257      3256      3258      3256      3259
      3259      3260      3259      3261      3259      3262      3262      3263
      3262      3264      3262      3265      3265      3266      3265      3267
      3265      3268      3268      3269      3268      3270      3268      3271
      3271      3272      3271      3273      3271      3274      3274      3275
      3274      3276      3276      3277      3276      3278      3278      3279
      3278      3280      3278      3281      3281      3282      3281      3283
      3281      3284      3284      3285      3284      3286      3284      3287
      3287      3288      3287      3289      3287      3290      3290      3291
      3290      3292      3290      3293      3293      3294      3293      3295
      3293      3296      3296      3297      3296      3298      3296      3299
      3299      3300      3299      3301      3299      3302      3250      3251
      3251      3253      3251      3252      3253      3254      3253      3255
      3253      3303      3303      3304      3303      3305      3303      3306
      3306      3307      3306      3308      3306      3309      3309      3310
      3309      3311      3309      3312      3312      3313      3312      3314
      3312      3315      3315      3316      3315      3317      3315      3318
      3318      3319      3318      3320      3318      3321      3321      3322
      3321      3323      3321      3324      3324      3325      3324      3326
      3324      3327      3327      3328      3327      3329      3327      3330
      3330      3331      3330      3332      3330      3333      3333      3334
      3333      3335      3333      3336      3336      3337      3336      3338
      3336      3339      3339      3340      3339      3341      3339      3342
      3342      3343      3342      3344      3342      3345       519       521
       519       520       521       522       519       565       565       566
       565       567       565       562       562       563       562       564
       519       523       523       524       523       525       523       526
       526       557       557       562       557       558       558       559
       558       560       558       561       526       527       527       528
       527       529       529       530       529       531       529       532
       532       533       532       555       555       556       555       557
       532       534       534       535       534       544       544       549
       549       550       549       551       549       552       552       553
       552       554       552       555       544       545       545       546
       545       547       545       548       534       536       536       537
       536       538       536       539       539       540       539       541
       539       542       542       543       542       544       542       568
       568       569       568       570       570       571       570       572
       570       573       568       574       574       575       574       576
       574       577       577       578       577       579       577       580
       580       581       580       582       580       583       583       584
       583       585       585       586       585       587       585       588
       583       589       589       590       589       591       589       592
      3346      3347      3346      3348      3346      3349      3346      3350
      3350      3351      3350      3352      3350      3353      3353      3354
      3353      3355      3353      3360      3360      3356      3356      3359
      3356      3357      3356      3358      3361      3362      3361      3363
      3361      3364      3361      3359      3364      3365      3364      3372
      3364      3366      3372      3373      3372      3374      3372      3375
      3366      3367      3367      3369      3367      3368      3369      3370
      3369      3371      3369      3381      3381      3382      3381      3383
      3381      3384      3384      3385      3384      3386      3384      3387
      3387      3388      3387      3389      3387      3390      3390      3391
      3390      3392      3390      3393      3393      3394      3393      3395
      3393      3396      3396      3397      3396      3398      3396      3399
      3399      3400      3399      3401      3401      3402      3401      3403
      3403      3404      3403      3405      3403      3406      3406      3407
      3406      3408      3406      3409      3409      3410      3409      3411
      3409      3412      3412      3413      3412      3414      3412      3415
      3415      3416      3415      3417      3415      3418      3418      3419
      3418      3420      3418      3421      3421      3422      3421      3423
      3421      3424      3424      3425      3424      3426      3424      3427
      3375      3376      3376      3378      3376      3377      3378      3379
      3378      3380      3378      3428      3428      3429      3428      3430
      3428      3431      3431      3432      3431      3433      3431      3434
      3434      3435      3434      3436      3434      3437      3437      3438
      3437      3439      3437      3440      3440      3441      3440      3442
      3440      3443      3443      3444      3443      3445      3443      3446
      3446      3447      3446      3448      3446      3449      3449      3450
      3449      3451      3449      3452      3452      3453      3452      3454
      3452      3455      3455      3456      3455      3457      3455      3458
      3458      3459      3458      3460      3458      3461      3461      3462
      3461      3463      3461      3464      3464      3465      3464      3466
      3464      3467      3467      3468      3467      3469      3467      3470
     14757     14761     14757     14765     14757     14769     14761     14762
     14761     14763     14761     14764     14765     14766     14765     14767
     14765     14768     14769     14770     14769     14771     14769     14772
     14757     14758     14758     14759     14758     14760     14758     14773
     14773     14774     14773     14775     14773     14779     14780     14781
     14779     14776     14776     14780     14776     14777     14776     14778
     14781     14782     14781     14783     14781     14784     14784     14785
     14784     14792     14784     14786     14792     14793     14792     14794
     14792     14795     14786     14787     14787     14789     14787     14788
     14789     14790     14789     14791     14789     14801     14801     14802
     14801     14803     14801     14804     14804     14805     14804     14806
     14804     14807     14807     14808     14807     14809     14807     14810
     14810     14811     14810     14812     14810     14813     14813     14814
     14813     14815     14813     14816     14816     14817     14816     14818
     14816     14819     14819     14820     14819     14821     14821     14822
     14821     14823     14823     14824     14823     14825     14823     14826
     14826     14827     14826     14828     14826     14829     14829     14830
     14829     14831     14829     14832     14832     14833     14832     14834
     14832     14835     14835     14836     14835     14837     14835     14838
     14838     14839     14838     14840     14838     14841     14841     14842
     14841     14843     14841     14844     14844     14845     14844     14846
     14844     14847     14795     14796     14796     14798     14796     14797
     14798     14799     14798     14800     14798     14848     14848     14849
     14848     14850     14848     14851     14851     14852     14851     14853
     14851     14854     14854     14855     14854     14856     14854     14857
     14857     14858     14857     14859     14857     14860     14860     14861
     14860     14862     14860     14863     14863     14864     14863     14865
     14863     14866     14866     14867     14866     14868     14866     14869
     14869     14870     14869     14871     14869     14872     14872     14873
     14872     14874     14872     14875     14875     14876     14875     14877
     14875     14878     14878     14879     14878     14880     14878     14881
     14881     14882     14881     14883     14881     14884     14884     14885
     14884     14886     14884     14887     14887     14888     14887     14889
     14887     14890     14891     14895     14891     14899     14891     14903
     14895     14896     14895     14897     14895     14898     14899     14900
     14899     14901     14899     14902     14903     14904     14903     14905
     14903     14906     14891     14892     14892     14893     14892     14894
     14892     14907     14907     14908     14907     14909     14907     14913
     14914     14915     14913     14910     14910     14914     14910     14911
     14910     14912     14915     14916     14915     14917     14915     14918
     14918     14919     14918     14926     14918     14920     14926     14927
     14926     14928     14926     14929     14920     14921     14921     14923
     14921     14922     14923     14924     14923     14925     14923     14935
     14935     14936     14935     14937     14935     14938     14938     14939
     14938     14940     14938     14941     14941     14942     14941     14943
     14941     14944     14944     14945     14944     14946     14944     14947
     14947     14948     14947     14949     14947     14950     14950     14951
     14950     14952     14950     14953     14953     14954     14953     14955
     14955     14956     14955     14957     14957     14958     14957     14959
     14957     14960     14960     14961     14960     14962     14960     14963
     14963     14964     14963     14965     14963     14966     14966     14967
     14966     14968     14966     14969     14969     14970     14969     14971
     14969     14972     14972     14973     14972     14974     14972     14975
     14975     14976     14975     14977     14975     14978     14978     14979
     14978     14980     14978     14981     14929     14930     14930     14932
     14930     14931     14932     14933     14932     14934     14932     14982
     14982     14983     14982     14984     14982     14985     14985     14986
     14985     14987     14985     14988     14988     14989     14988     14990
     14988     14991     14991     14992     14991     14993     14991     14994
     14994     14995     14994     14996     14994     14997     14997     14998
     14997     14999     14997     15000     15000     15001     15000     15002
     15000     15003     15003     15004     15003     15005     15003     15006
     15006     15007     15006     15008     15006     15009     15009     15010
     15009     15011     15009     15012     15012     15013     15012     15014
     15012     15015     15015     15016     15015     15017     15015     15018
     15018     15019     15018     15020     15018     15021     15021     15022
     15021     15023     15021     15024     15025     15029     15025     15033
     15025     15037     15029     15030     15029     15031     15029     15032
     15033     15034     15033     15035     15033     15036     15037     15038
     15037     15039     15037     15040     15025     15026     15026     15027
     15026     15028     15026     15041     15041     15042     15041     15043
     15041     15047     15048     15049     15047     15044     15044     15048
     15044     15045     15044     15046     15049     15050     15049     15051
     15049     15052     15052     15053     15052     15060     15052     15054
     15060     15061     15060     15062     15060     15063     15054     15055
     15055     15057     15055     15056     15057     15058     15057     15059
     15057     15069     15069     15070     15069     15071     15069     15072
     15072     15073     15072     15074     15072     15075     15075     15076
     15075     15077     15075     15078     15078     15079     15078     15080
     15078     15081     15081     15082     15081     15083     15081     15084
     15084     15085     15084     15086     15084     15087     15087     15088
     15087     15089     15089     15090     15089     15091     15091     15092
     15091     15093     15091     15094     15094     15095     15094     15096
     15094     15097     15097     15098     15097     15099     15097     15100
     15100     15101     15100     15102     15100     15103     15103     15104
     15103     15105     15103     15106     15106     15107     15106     15108
     15106     15109     15109     15110     15109     15111     15109     15112
     15112     15113     15112     15114     15112     15115     15063     15064
     15064     15066     15064     15065     15066     15067     15066     15068
     15066     15116     15116     15117     15116     15118     15116     15119
     15119     15120     15119     15121     15119     15122     15122     15123
     15122     15124     15122     15125     15125     15126     15125     15127
     15125     15128     15128     15129     15128     15130     15128     15131
     15131     15132     15131     15133     15131     15134     15134     15135
     15134     15136     15134     15137     15137     15138     15137     15139
     15137     15140     15140     15141     15140     15142     15140     15143
     15143     15144     15143     15145     15143     15146     15146     15147
     15146     15148     15146     15149     15149     15150     15149     15151
     15149     15152     15152     15153     15152     15154     15152     15155
     15155     15156     15155     15157     15155     15158      9360      9361
      9360      9362      9360      9363      9360      9364      9368      9366
      9366      9364      9366      9367      9364      9365      9364      9369
      9377      9376      9369      9370      9369      9371      9369      9375
      9375      9372      9372      9376      9372      9373      9372      9374
      9377      9378      9377      9379      9377      9380      9380      9381
      9380      9388      9380      9382      9388      9389      9388      9390
      9388      9391      9382      9383      9383      9385      9383      9384
      9385      9386      9385      9387      9385      9397      9397      9398
      9397      9399      9397      9400      9400      9401      9400      9402
      9400      9403      9403      9404      9403      9405      9403      9406
      9406      9407      9406      9408      9406      9409      9409      9410
      9409      9411      9409      9412      9412      9413      9412      9414
      9412      9415      9415      9416      9415      9417      9417      9418
      9417      9419      9419      9420      9419      9421      9419      9422
      9422      9423      9422      9424      9422      9425      9425      9426
      9425      9427      9425      9428      9428      9429      9428      9430
      9428      9431      9431      9432      9431      9433      9431      9434
      9434      9435      9434      9436      9434      9437      9437      9438
      9437      9439      9437      9440      9440      9441      9440      9442
      9440      9443      9391      9392      9392      9394      9392      9393
      9394      9395      9394      9396      9394      9444      9444      9445
      9444      9446      9444      9447      9447      9448      9447      9449
      9447      9450      9450      9451      9450      9452      9450      9453
      9453      9454      9453      9455      9453      9456      9456      9457
      9456      9458      9456      9459      9459      9460      9459      9461
      9459      9462      9462      9463      9462      9464      9462      9465
      9465      9466      9465      9467      9465      9468      9468      9469
      9468      9470      9468      9471      9471      9472      9471      9473
      9471      9474      9474      9475      9474      9476      9474      9477
      9477      9478      9477      9479      9477      9480      9480      9481
      9480      9482      9480      9483      9483      9484      9483      9485
      9483      9486       593       595       593       594       595       596
       593       639       639       640       639       641       639       636
       636       637       636       638       593       597       597       598
       597       599       597       600       600       631       631       636
       631       632       632       633       632       634       632       635
       600       601       601       602       601       603       603       604
       603       605       603       606       606       607       606       629
       629       630       629       631       606       608       608       609
       608       618       618       623       623       624       623       625
       623       626       626       627       626       628       626       629
       618       619       619       620       619       621       619       622
       608       610       610       611       610       612       610       613
       613       614       613       615       613       616       616       617
       616       618       616       642       642       643       642       644
       644       645       644       646       644       647       642       648
       648       649       648       650       648       651       651       652
       651       653       651       654       654       655       654       656
       654       657       657       658       657       659       659       660
       659       661       659       662       657       663       663       664
       663       665       663       666     23290     23291     23290     23292
     23290     23293     23290     23287     23287     23288     23287     23289
     23287     23284     23284     23285     23284     23286     23284     23281
     23281     23282     23281     23283     23281     23278     23278     23279
     23278     23280     23278     23275     23275     23276     23275     23277
     23275     23272     23272     23273     23272     23274     23272     23269
     23269     23270     23269     23271     23269     23266     23266     23267
     23266     23268     23266     23263     23263     23264     23263     23265
     23263     23260     23260     23261     23260     23262     23260     23257
     23257     23258     23257     23259     23257     23254     23254     23255
     23254     23256     23254     23252     23252     23253     23250     23251
     23250     23246     23246     23247     23246     23248     23248     23249
     23246     23244     23244     23245     23244     23239     23239     23240
     23239     23241     23239     23237     23237     23234     23238     23234
     23235     23234     23236     23234     23238     23231     23231     23232
     23231     23233     23231     23228     23228     23229     23228     23230
     23228     23215     23215     23224     23215     23220     23215     23216
     23224     23225     23224     23226     23224     23227     23220     23221
     23220     23222     23220     23223     23216     23217     23216     23218
     23216     23219     23244     23242     23242     23243     23242     23294
     23294     23296     23296     23297     23296     23298     23296     23299
     23299     23300     23299     23301     23299     23302     23302     23303
     23302     23304     23302     23305     23305     23306     23305     23307
     23305     23308     23308     23309     23308     23310     23308     23311
     23311     23312     23311     23313     23311     23314     23314     23315
     23314     23316     23314     23317     23317     23318     23317     23319
     23317     23320     23320     23321     23320     23322     23320     23323
     23323     23324     23323     23325     23323     23326     23326     23327
     23326     23328     23326     23329     23329     23330     23329     23331
     23329     23332     23332     23333     23332     23334     23332     23335
     23335     23336     23335     23337     23335     23338     23338     23339
     23338     23340     23338     23341     23250     23252     23294     23295
      9487      9488      9487      9489      9487      9490      9487      9491
      9495      9493      9493      9491      9493      9494      9491      9492
      9491      9496      9504      9503      9496      9497      9496      9498
      9496      9502      9502      9499      9499      9503      9499      9500
      9499      9501      9504      9505      9504      9506      9504      9507
      9507      9508      9507      9515      9507      9509      9515      9516
      9515      9517      9515      9518      9509      9510      9510      9512
      9510      9511      9512      9513      9512      9514      9512      9524
      9524      9525      9524      9526      9524      9527      9527      9528
      9527      9529      9527      9530      9530      9531      9530      9532
      9530      9533      9533      9534      9533      9535      9533      9536
      9536      9537      9536      9538      9536      9539      9539      9540
      9539      9541      9539      9542      9542      9543      9542      9544
      9544      9545      9544      9546      9546      9547      9546      9548
      9546      9549      9549      9550      9549      9551      9549      9552
      9552      9553      9552      9554      9552      9555      9555      9556
      9555      9557      9555      9558      9558      9559      9558      9560
      9558      9561      9561      9562      9561      9563      9561      9564
      9564      9565      9564      9566      9564      9567      9567      9568
      9567      9569      9567      9570      9518      9519      9519      9521
      9519      9520      9521      9522      9521      9523      9521      9571
      9571      9572      9571      9573      9571      9574      9574      9575
      9574      9576      9574      9577      9577      9578      9577      9579
      9577      9580      9580      9581      9580      9582      9580      9583
      9583      9584      9583      9585      9583      9586      9586      9587
      9586      9588      9586      9589      9589      9590      9589      9591
      9589      9592      9592      9593      9592      9594      9592      9595
      9595      9596      9595      9597      9595      9598      9598      9599
      9598      9600      9598      9601      9601      9602      9601      9603
      9601      9604      9604      9605      9604      9606      9604      9607
      9607      9608      9607      9609      9607      9610      9610      9611
      9610      9612      9610      9613       667       669       667       668
       669       670       667       713       713       714       713       715
       713       710       710       711       710       712       667       671
       671       672       671       673       671       674       674       705
       705       710       705       706       706       707       706       708
       706       709       674       675       675       676       675       677
       677       678       677       679       677       680       680       681
       680       703       703       704       703       705       680       682
       682       683       682       692       692       697       697       698
       697       699       697       700       700       701       700       702
       700       703       692       693       693       694       693       695
       693       696       682       684       684       685       684       686
       684       687       687       688       687       689       687       690
       690       691       690       692       690       716       716       717
       716       718       718       719       718       720       718       721
       716       722       722       723       722       724       722       725
       725       726       725       727       725       728       728       729
       728       730       728       731       731       732       731       733
       733       734       733       735       733       736       731       737
       737       738       737       739       737       740     15159     15163
     15159     15167     15159     15171     15163     15164     15163     15165
     15163     15166     15167     15168     15167     15169     15167     15170
     15171     15172     15171     15173     15171     15174     15159     15160
     15160     15161     15160     15162     15160     15175     15175     15176
     15175     15177     15175     15181     15182     15183     15181     15178
     15178     15182     15178     15179     15178     15180     15183     15184
     15183     15185     15183     15186     15186     15187     15186     15194
     15186     15188     15194     15195     15194     15196     15194     15197
     15188     15189     15189     15191     15189     15190     15191     15192
     15191     15193     15191     15203     15203     15204     15203     15205
     15203     15206     15206     15207     15206     15208     15206     15209
     15209     15210     15209     15211     15209     15212     15212     15213
     15212     15214     15212     15215     15215     15216     15215     15217
     15215     15218     15218     15219     15218     15220     15218     15221
     15221     15222     15221     15223     15223     15224     15223     15225
     15225     15226     15225     15227     15225     15228     15228     15229
     15228     15230     15228     15231     15231     15232     15231     15233
     15231     15234     15234     15235     15234     15236     15234     15237
     15237     15238     15237     15239     15237     15240     15240     15241
     15240     15242     15240     15243     15243     15244     15243     15245
     15243     15246     15246     15247     15246     15248     15246     15249
     15197     15198     15198     15200     15198     15199     15200     15201
     15200     15202     15200     15250     15250     15251     15250     15252
     15250     15253     15253     15254     15253     15255     15253     15256
     15256     15257     15256     15258     15256     15259     15259     15260
     15259     15261     15259     15262     15262     15263     15262     15264
     15262     15265     15265     15266     15265     15267     15265     15268
     15268     15269     15268     15270     15268     15271     15271     15272
     15271     15273     15271     15274     15274     15275     15274     15276
     15274     15277     15277     15278     15277     15279     15277     15280
     15280     15281     15280     15282     15280     15283     15283     15284
     15283     15285     15283     15286     15286     15287     15286     15288
     15286     15289     15289     15290     15289     15291     15289     15292
     15293     15297     15293     15301     15293     15305     15297     15298
     15297     15299     15297     15300     15301     15302     15301     15303
     15301     15304     15305     15306     15305     15307     15305     15308
     15293     15294     15294     15295     15294     15296     15294     15309
     15309     15310     15309     15311     15309     15315     15316     15317
     15315     15312     15312     15316     15312     15313     15312     15314
     15317     15318     15317     15319     15317     15320     15320     15321
     15320     15328     15320     15322     15328     15329     15328     15330
     15328     15331     15322     15323     15323     15325     15323     15324
     15325     15326     15325     15327     15325     15337     15337     15338
     15337     15339     15337     15340     15340     15341     15340     15342
     15340     15343     15343     15344     15343     15345     15343     15346
     15346     15347     15346     15348     15346     15349     15349     15350
     15349     15351     15349     15352     15352     15353     15352     15354
     15352     15355     15355     15356     15355     15357     15357     15358
     15357     15359     15359     15360     15359     15361     15359     15362
     15362     15363     15362     15364     15362     15365     15365     15366
     15365     15367     15365     15368     15368     15369     15368     15370
     15368     15371     15371     15372     15371     15373     15371     15374
     15374     15375     15374     15376     15374     15377     15377     15378
     15377     15379     15377     15380     15380     15381     15380     15382
     15380     15383     15331     15332     15332     15334     15332     15333
     15334     15335     15334     15336     15334     15384     15384     15385
     15384     15386     15384     15387     15387     15388     15387     15389
     15387     15390     15390     15391     15390     15392     15390     15393
     15393     15394     15393     15395     15393     15396     15396     15397
     15396     15398     15396     15399     15399     15400     15399     15401
     15399     15402     15402     15403     15402     15404     15402     15405
     15405     15406     15405     15407     15405     15408     15408     15409
     15408     15410     15408     15411     15411     15412     15411     15413
     15411     15414     15414     15415     15414     15416     15414     15417
     15417     15418     15417     15419     15417     15420     15420     15421
     15420     15422     15420     15423     15423     15424     15423     15425
     15423     15426      3471      3472      3471      3473      3471      3474
      3471      3475      3475      3476      3475      3477      3475      3478
      3478      3479      3478      3480      3478      3485      3485      3481
      3481      3484      3481      3482      3481      3483      3486      3487
      3486      3488      3486      3489      3486      3484      3489      3490
      3489      3497      3489      3491      3497      3498      3497      3499
      3497      3500      3491      3492      3492      3494      3492      3493
      3494      3495      3494      3496      3494      3506      3506      3507
      3506      3508      3506      3509      3509      3510      3509      3511
      3509      3512      3512      3513      3512      3514      3512      3515
      3515      3516      3515      3517      3515      3518      3518      3519
      3518      3520      3518      3521      3521      3522      3521      3523
      3521      3524      3524      3525      3524      3526      3526      3527
      3526      3528      3528      3529      3528      3530      3528      3531
      3531      3532      3531      3533      3531      3534      3534      3535
      3534      3536      3534      3537      3537      3538      3537      3539
      3537      3540      3540      3541      3540      3542      3540      3543
      3543      3544      3543      3545      3543      3546      3546      3547
      3546      3548      3546      3549      3549      3550      3549      3551
      3549      3552      3500      3501      3501      3503      3501      3502
      3503      3504      3503      3505      3503      3553      3553      3554
      3553      3555      3553      3556      3556      3557      3556      3558
      3556      3559      3559      3560      3559      3561      3559      3562
      3562      3563      3562      3564      3562      3565      3565      3566
      3565      3567      3565      3568      3568      3569      3568      3570
      3568      3571      3571      3572      3571      3573      3571      3574
      3574      3575      3574      3576      3574      3577      3577      3578
      3577      3579      3577      3580      3580      3581      3580      3582
      3580      3583      3583      3584      3583      3585      3583      3586
      3586      3587      3586      3588      3586      3589      3589      3590
      3589      3591      3589      3592      3592      3593      3592      3594
      3592      3595      3596      3597      3596      3598      3596      3599
      3596      3600      3600      3601      3600      3602      3600      3603
      3603      3604      3603      3605      3603      3610      3610      3606
      3606      3609      3606      3607      3606      3608      3611      3612
      3611      3613      3611      3614      3611      3609      3614      3615
      3614      3622      3614      3616      3622      3623      3622      3624
      3622      3625      3616      3617      3617      3619      3617      3618
      3619      3620      3619      3621      3619      3631      3631      3632
      3631      3633      3631      3634      3634      3635      3634      3636
      3634      3637      3637      3638      3637      3639      3637      3640
      3640      3641      3640      3642      3640      3643      3643      3644
      3643      3645      3643      3646      3646      3647      3646      3648
      3646      3649      3649      3650      3649      3651      3651      3652
      3651      3653      3653      3654      3653      3655      3653      3656
      3656      3657      3656      3658      3656      3659      3659      3660
      3659      3661      3659      3662      3662      3663      3662      3664
      3662      3665      3665      3666      3665      3667      3665      3668
      3668      3669      3668      3670      3668      3671      3671      3672
      3671      3673      3671      3674      3674      3675      3674      3676
      3674      3677      3625      3626      3626      3628      3626      3627
      3628      3629      3628      3630      3628      3678      3678      3679
      3678      3680      3678      3681      3681      3682      3681      3683
      3681      3684      3684      3685      3684      3686      3684      3687
      3687      3688      3687      3689      3687      3690      3690      3691
      3690      3692      3690      3693      3693      3694      3693      3695
      3693      3696      3696      3697      3696      3698      3696      3699
      3699      3700      3699      3701      3699      3702      3702      3703
      3702      3704      3702      3705      3705      3706      3705      3707
      3705      3708      3708      3709      3708      3710      3708      3711
      3711      3712      3711      3713      3711      3714      3714      3715
      3714      3716      3714      3717      3717      3718      3717      3719
      3717      3720     23417     23418     23417     23419     23417     23420
     23417     23414     23414     23415     23414     23416     23414     23411
     23411     23412     23411     23413     23411     23408     23408     23409
     23408     23410     23408     23405     23405     23406     23405     23407
     23405     23402     23402     23403     23402     23404     23402     23399
     23399     23400     23399     23401     23399     23396     23396     23397
     23396     23398     23396     23393     23393     23394     23393     23395
     23393     23390     23390     23391     23390     23392     23390     23387
     23387     23388     23387     23389     23387     23384     23384     23385
     23384     23386     23384     23381     23381     23382     23381     23383
     23381     23379     23379     23380     23377     23378     23377     23373
     23373     23374     23373     23375     23375     23376     23373     23371
     23371     23372     23371     23366     23366     23367     23366     23368
     23366     23364     23364     23361     23365     23361     23362     23361
     23363     23361     23365     23358     23358     23359     23358     23360
     23358     23355     23355     23356     23355     23357     23355     23342
     23342     23351     23342     23347     23342     23343     23351     23352
     23351     23353     23351     23354     23347     23348     23347     23349
     23347     23350     23343     23344     23343     23345     23343     23346
     23371     23369     23369     23370     23369     23421     23421     23423
     23423     23424     23423     23425     23423     23426     23426     23427
     23426     23428     23426     23429     23429     23430     23429     23431
     23429     23432     23432     23433     23432     23434     23432     23435
     23435     23436     23435     23437     23435     23438     23438     23439
     23438     23440     23438     23441     23441     23442     23441     23443
     23441     23444     23444     23445     23444     23446     23444     23447
     23447     23448     23447     23449     23447     23450     23450     23451
     23450     23452     23450     23453     23453     23454     23453     23455
     23453     23456     23456     23457     23456     23458     23456     23459
     23459     23460     23459     23461     23459     23462     23462     23463
     23462     23464     23462     23465     23465     23466     23465     23467
     23465     23468     23377     23379     23421     23422     15427     15431
     15427     15435     15427     15439     15431     15432     15431     15433
     15431     15434     15435     15436     15435     15437     15435     15438
     15439     15440     15439     15441     15439     15442     15427     15428
     15428     15429     15428     15430     15428     15443     15443     15444
     15443     15445     15443     15449     15450     15451     15449     15446
     15446     15450     15446     15447     15446     15448     15451     15452
     15451     15453     15451     15454     15454     15455     15454     15462
     15454     15456     15462     15463     15462     15464     15462     15465
     15456     15457     15457     15459     15457     15458     15459     15460
     15459     15461     15459     15471     15471     15472     15471     15473
     15471     15474     15474     15475     15474     15476     15474     15477
     15477     15478     15477     15479     15477     15480     15480     15481
     15480     15482     15480     15483     15483     15484     15483     15485
     15483     15486     15486     15487     15486     15488     15486     15489
     15489     15490     15489     15491     15491     15492     15491     15493
     15493     15494     15493     15495     15493     15496     15496     15497
     15496     15498     15496     15499     15499     15500     15499     15501
     15499     15502     15502     15503     15502     15504     15502     15505
     15505     15506     15505     15507     15505     15508     15508     15509
     15508     15510     15508     15511     15511     15512     15511     15513
     15511     15514     15514     15515     15514     15516     15514     15517
     15465     15466     15466     15468     15466     15467     15468     15469
     15468     15470     15468     15518     15518     15519     15518     15520
     15518     15521     15521     15522     15521     15523     15521     15524
     15524     15525     15524     15526     15524     15527     15527     15528
     15527     15529     15527     15530     15530     15531     15530     15532
     15530     15533     15533     15534     15533     15535     15533     15536
     15536     15537     15536     15538     15536     15539     15539     15540
     15539     15541     15539     15542     15542     15543     15542     15544
     15542     15545     15545     15546     15545     15547     15545     15548
     15548     15549     15548     15550     15548     15551     15551     15552
     15551     15553     15551     15554     15554     15555     15554     15556
     15554     15557     15557     15558     15557     15559     15557     15560
      3721      3722      3721      3723      3721      3724      3721      3725
      3725      3726      3725      3727      3725      3728      3728      3729
      3728      3730      3728      3735      3735      3731      3731      3734
      3731      3732      3731      3733      3736      3737      3736      3738
      3736      3739      3736      3734      3739      3740      3739      3747
      3739      3741      3747      3748      3747      3749      3747      3750
      3741      3742      3742      3744      3742      3743      3744      3745
      3744      3746      3744      3756      3756      3757      3756      3758
      3756      3759      3759      3760      3759      3761      3759      3762
      3762      3763      3762      3764      3762      3765      3765      3766
      3765      3767      3765      3768      3768      3769      3768      3770
      3768      3771      3771      3772      3771      3773      3771      3774
      3774      3775      3774      3776      3776      3777      3776      3778
      3778      3779      3778      3780      3778      3781      3781      3782
      3781      3783      3781      3784      3784      3785      3784      3786
      3784      3787      3787      3788      3787      3789      3787      3790
      3790      3791      3790      3792      3790      3793      3793      3794
      3793      3795      3793      3796      3796      3797      3796      3798
      3796      3799      3799      3800      3799      3801      3799      3802
      3750      3751      3751      3753      3751      3752      3753      3754
      3753      3755      3753      3803      3803      3804      3803      3805
      3803      3806      3806      3807      3806      3808      3806      3809
      3809      3810      3809      3811      3809      3812      3812      3813
      3812      3814      3812      3815      3815      3816      3815      3817
      3815      3818      3818      3819      3818      3820      3818      3821
      3821      3822      3821      3823      3821      3824      3824      3825
      3824      3826      3824      3827      3827      3828      3827      3829
      3827      3830      3830      3831      3830      3832      3830      3833
      3833      3834      3833      3835      3833      3836      3836      3837
      3836      3838      3836      3839      3839      3840      3839      3841
      3839      3842      3842      3843      3842      3844      3842      3845
     23544     23545     23544     23546     23544     23547     23544     23541
     23541     23542     23541     23543     23541     23538     23538     23539
     23538     23540     23538     23535     23535     23536     23535     23537
     23535     23532     23532     23533     23532     23534     23532     23529
     23529     23530     23529     23531     23529     23526     23526     23527
     23526     23528     23526     23523     23523     23524     23523     23525
     23523     23520     23520     23521     23520     23522     23520     23517
     23517     23518     23517     23519     23517     23514     23514     23515
     23514     23516     23514     23511     23511     23512     23511     23513
     23511     23508     23508     23509     23508     23510     23508     23506
     23506     23507     23504     23505     23504     23500     23500     23501
     23500     23502     23502     23503     23500     23498     23498     23499
     23498     23493     23493     23494     23493     23495     23493     23491
     23491     23488     23492     23488     23489     23488     23490     23488
     23492     23485     23485     23486     23485     23487     23485     23482
     23482     23483     23482     23484     23482     23469     23469     23478
     23469     23474     23469     23470     23478     23479     23478     23480
     23478     23481     23474     23475     23474     23476     23474     23477
     23470     23471     23470     23472     23470     23473     23498     23496
     23496     23497     23496     23548     23548     23550     23550     23551
     23550     23552     23550     23553     23553     23554     23553     23555
     23553     23556     23556     23557     23556     23558     23556     23559
     23559     23560     23559     23561     23559     23562     23562     23563
     23562     23564     23562     23565     23565     23566     23565     23567
     23565     23568     23568     23569     23568     23570     23568     23571
     23571     23572     23571     23573     23571     23574     23574     23575
     23574     23576     23574     23577     23577     23578     23577     23579
     23577     23580     23580     23581     23580     23582     23580     23583
     23583     23584     23583     23585     23583     23586     23586     23587
     23586     23588     23586     23589     23589     23590     23589     23591
     23589     23592     23592     23593     23592     23594     23592     23595
     23504     23506     23548     23549      3846      3847      3846      3848
      3846      3849      3846      3850      3850      3851      3850      3852
      3850      3853      3853      3854      3853      3855      3853      3860
      3860      3856      3856      3859      3856      3857      3856      3858
      3861      3862      3861      3863      3861      3864      3861      3859
      3864      3865      3864      3872      3864      3866      3872      3873
      3872      3874      3872      3875      3866      3867      3867      3869
      3867      3868      3869      3870      3869      3871      3869      3881
      3881      3882      3881      3883      3881      3884      3884      3885
      3884      3886      3884      3887      3887      3888      3887      3889
      3887      3890      3890      3891      3890      3892      3890      3893
      3893      3894      3893      3895      3893      3896      3896      3897
      3896      3898      3896      3899      3899      3900      3899      3901
      3901      3902      3901      3903      3903      3904      3903      3905
      3903      3906      3906      3907      3906      3908      3906      3909
      3909      3910      3909      3911      3909      3912      3912      3913
      3912      3914      3912      3915      3915      3916      3915      3917
      3915      3918      3918      3919      3918      3920      3918      3921
      3921      3922      3921      3923      3921      3924      3924      3925
      3924      3926      3924      3927      3875      3876      3876      3878
      3876      3877      3878      3879      3878      3880      3878      3928
      3928      3929      3928      3930      3928      3931      3931      3932
      3931      3933      3931      3934      3934      3935      3934      3936
      3934      3937      3937      3938      3937      3939      3937      3940
      3940      3941      3940      3942      3940      3943      3943      3944
      3943      3945      3943      3946      3946      3947      3946      3948
      3946      3949      3949      3950      3949      3951      3949      3952
      3952      3953      3952      3954      3952      3955      3955      3956
      3955      3957      3955      3958      3958      3959      3958      3960
      3958      3961      3961      3962      3961      3963      3961      3964
      3964      3965      3964      3966      3964      3967      3967      3968
      3967      3969      3967      3970      3971      3972      3971      3973
      3971      3974      3971      3975      3975      3976      3975      3977
      3975      3978      3978      3979      3978      3980      3978      3985
      3985      3981      3981      3984      3981      3982      3981      3983
      3986      3987      3986      3988      3986      3989      3986      3984
      3989      3990      3989      3997      3989      3991      3997      3998
      3997      3999      3997      4000      3991      3992      3992      3994
      3992      3993      3994      3995      3994      3996      3994      4006
      4006      4007      4006      4008      4006      4009      4009      4010
      4009      4011      4009      4012      4012      4013      4012      4014
      4012      4015      4015      4016      4015      4017      4015      4018
      4018      4019      4018      4020      4018      4021      4021      4022
      4021      4023      4021      4024      4024      4025      4024      4026
      4026      4027      4026      4028      4028      4029      4028      4030
      4028      4031      4031      4032      4031      4033      4031      4034
      4034      4035      4034      4036      4034      4037      4037      4038
      4037      4039      4037      4040      4040      4041      4040      4042
      4040      4043      4043      4044      4043      4045      4043      4046
      4046      4047      4046      4048      4046      4049      4049      4050
      4049      4051      4049      4052      4000      4001      4001      4003
      4001      4002      4003      4004      4003      4005      4003      4053
      4053      4054      4053      4055      4053      4056      4056      4057
      4056      4058      4056      4059      4059      4060      4059      4061
      4059      4062      4062      4063      4062      4064      4062      4065
      4065      4066      4065      4067      4065      4068      4068      4069
      4068      4070      4068      4071      4071      4072      4071      4073
      4071      4074      4074      4075      4074      4076      4074      4077
      4077      4078      4077      4079      4077      4080      4080      4081
      4080      4082      4080      4083      4083      4084      4083      4085
      4083      4086      4086      4087      4086      4088      4086      4089
      4089      4090      4089      4091      4089      4092      4092      4093
      4092      4094      4092      4095     15561     15565     15561     15569
     15561     15573     15565     15566     15565     15567     15565     15568
     15569     15570     15569     15571     15569     15572     15573     15574
     15573     15575     15573     15576     15561     15562     15562     15563
     15562     15564     15562     15577     15577     15578     15577     15579
     15577     15583     15584     15585     15583     15580     15580     15584
     15580     15581     15580     15582     15585     15586     15585     15587
     15585     15588     15588     15589     15588     15596     15588     15590
     15596     15597     15596     15598     15596     15599     15590     15591
     15591     15593     15591     15592     15593     15594     15593     15595
     15593     15605     15605     15606     15605     15607     15605     15608
     15608     15609     15608     15610     15608     15611     15611     15612
     15611     15613     15611     15614     15614     15615     15614     15616
     15614     15617     15617     15618     15617     15619     15617     15620
     15620     15621     15620     15622     15620     15623     15623     15624
     15623     15625     15625     15626     15625     15627     15627     15628
     15627     15629     15627     15630     15630     15631     15630     15632
     15630     15633     15633     15634     15633     15635     15633     15636
     15636     15637     15636     15638     15636     15639     15639     15640
     15639     15641     15639     15642     15642     15643     15642     15644
     15642     15645     15645     15646     15645     15647     15645     15648
     15648     15649     15648     15650     15648     15651     15599     15600
     15600     15602     15600     15601     15602     15603     15602     15604
     15602     15652     15652     15653     15652     15654     15652     15655
     15655     15656     15655     15657     15655     15658     15658     15659
     15658     15660     15658     15661     15661     15662     15661     15663
     15661     15664     15664     15665     15664     15666     15664     15667
     15667     15668     15667     15669     15667     15670     15670     15671
     15670     15672     15670     15673     15673     15674     15673     15675
     15673     15676     15676     15677     15676     15678     15676     15679
     15679     15680     15679     15681     15679     15682     15682     15683
     15682     15684     15682     15685     15685     15686     15685     15687
     15685     15688     15688     15689     15688     15690     15688     15691
     15691     15692     15691     15693     15691     15694     15695     15699
     15695     15703     15695     15707     15699     15700     15699     15701
     15699     15702     15703     15704     15703     15705     15703     15706
     15707     15708     15707     15709     15707     15710     15695     15696
     15696     15697     15696     15698     15696     15711     15711     15712
     15711     15713     15711     15717     15718     15719     15717     15714
     15714     15718     15714     15715     15714     15716     15719     15720
     15719     15721     15719     15722     15722     15723     15722     15730
     15722     15724     15730     15731     15730     15732     15730     15733
     15724     15725     15725     15727     15725     15726     15727     15728
     15727     15729     15727     15739     15739     15740     15739     15741
     15739     15742     15742     15743     15742     15744     15742     15745
     15745     15746     15745     15747     15745     15748     15748     15749
     15748     15750     15748     15751     15751     15752     15751     15753
     15751     15754     15754     15755     15754     15756     15754     15757
     15757     15758     15757     15759     15759     15760     15759     15761
     15761     15762     15761     15763     15761     15764     15764     15765
     15764     15766     15764     15767     15767     15768     15767     15769
     15767     15770     15770     15771     15770     15772     15770     15773
     15773     15774     15773     15775     15773     15776     15776     15777
     15776     15778     15776     15779     15779     15780     15779     15781
     15779     15782     15782     15783     15782     15784     15782     15785
     15733     15734     15734     15736     15734     15735     15736     15737
     15736     15738     15736     15786     15786     15787     15786     15788
     15786     15789     15789     15790     15789     15791     15789     15792
     15792     15793     15792     15794     15792     15795     15795     15796
     15795     15797     15795     15798     15798     15799     15798     15800
     15798     15801     15801     15802     15801     15803     15801     15804
     15804     15805     15804     15806     15804     15807     15807     15808
     15807     15809     15807     15810     15810     15811     15810     15812
     15810     15813     15813     15814     15813     15815     15813     15816
     15816     15817     15816     15818     15816     15819     15819     15820
     15819     15821     15819     15822     15822     15823     15822     15824
     15822     15825     15825     15826     15825     15827     15825     15828
     15829     15833     15829     15837     15829     15841     15833     15834
     15833     15835     15833     15836     15837     15838     15837     15839
     15837     15840     15841     15842     15841     15843     15841     15844
     15829     15830     15830     15831     15830     15832     15830     15845
     15845     15846     15845     15847     15845     15851     15852     15853
     15851     15848     15848     15852     15848     15849     15848     15850
     15853     15854     15853     15855     15853     15856     15856     15857
     15856     15864     15856     15858     15864     15865     15864     15866
     15864     15867     15858     15859     15859     15861     15859     15860
     15861     15862     15861     15863     15861     15873     15873     15874
     15873     15875     15873     15876     15876     15877     15876     15878
     15876     15879     15879     15880     15879     15881     15879     15882
     15882     15883     15882     15884     15882     15885     15885     15886
     15885     15887     15885     15888     15888     15889     15888     15890
     15888     15891     15891     15892     15891     15893     15893     15894
     15893     15895     15895     15896     15895     15897     15895     15898
     15898     15899     15898     15900     15898     15901     15901     15902
     15901     15903     15901     15904     15904     15905     15904     15906
     15904     15907     15907     15908     15907     15909     15907     15910
     15910     15911     15910     15912     15910     15913     15913     15914
     15913     15915     15913     15916     15916     15917     15916     15918
     15916     15919     15867     15868     15868     15870     15868     15869
     15870     15871     15870     15872     15870     15920     15920     15921
     15920     15922     15920     15923     15923     15924     15923     15925
     15923     15926     15926     15927     15926     15928     15926     15929
     15929     15930     15929     15931     15929     15932     15932     15933
     15932     15934     15932     15935     15935     15936     15935     15937
     15935     15938     15938     15939     15938     15940     15938     15941
     15941     15942     15941     15943     15941     15944     15944     15945
     15944     15946     15944     15947     15947     15948     15947     15949
     15947     15950     15950     15951     15950     15952     15950     15953
     15953     15954     15953     15955     15953     15956     15956     15957
     15956     15958     15956     15959     15959     15960     15959     15961
     15959     15962     21748     21749     21748     21744     21748     21728
     21748     21753     21728     21729     21728     21730     21730     21731
     21728     21732     21732     21733     21732     21734     21734     21735
     21732     21736     21736     21737     21736     21738     21738     21739
     21736     21740     21740     21741     21740     21744     21744     21745
     21744     21746     21746     21747     21740     21742     21742     21743
     21753     21750     21750     21754     21750     21751     21750     21752
     21754     21755     21755     21756     21755     21757     21755     21758
     21758     21759     21758     21766     21758     21760     21766     21767
     21766     21768     21766     21769     21760     21761     21761     21763
     21761     21762     21763     21764     21763     21765     21763     21775
     21775     21776     21775     21777     21775     21778     21778     21779
     21778     21780     21778     21781     21781     21782     21781     21783
     21781     21784     21784     21785     21784     21786     21784     21787
     21787     21788     21787     21789     21787     21790     21790     21791
     21790     21792     21790     21793     21793     21794     21793     21795
     21795     21796     21795     21797     21797     21798     21797     21799
     21797     21800     21800     21801     21800     21802     21800     21803
     21803     21804     21803     21805     21803     21806     21806     21807
     21806     21808     21806     21809     21809     21810     21809     21811
     21809     21812     21812     21813     21812     21814     21812     21815
     21815     21816     21815     21817     21815     21818     21818     21819
     21818     21820     21818     21821     21769     21770     21770     21772
     21770     21771     21772     21773     21772     21774     21772     21822
     21822     21823     21822     21824     21822     21825     21825     21826
     21825     21827     21825     21828     21828     21829     21828     21830
     21828     21831     21831     21832     21831     21833     21831     21834
     21834     21835     21834     21836     21834     21837     21837     21838
     21837     21839     21837     21840     21840     21841     21840     21842
     21840     21843     21843     21844     21843     21845     21843     21846
     21846     21847     21846     21848     21846     21849     21849     21850
     21849     21851     21849     21852     21852     21853     21852     21854
     21852     21855     21855     21856     21855     21857     21855     21858
     21858     21859     21858     21860     21858     21861     21861     21862
     21861     21863     21861     21864      9614      9615      9614      9616
      9614      9617      9614      9618      9622      9620      9620      9618
      9620      9621      9618      9619      9618      9623      9631      9630
      9623      9624      9623      9625      9623      9629      9629      9626
      9626      9630      9626      9627      9626      9628      9631      9632
      9631      9633      9631      9634      9634      9635      9634      9642
      9634      9636      9642      9643      9642      9644      9642      9645
      9636      9637      9637      9639      9637      9638      9639      9640
      9639      9641      9639      9651      9651      9652      9651      9653
      9651      9654      9654      9655      9654      9656      9654      9657
      9657      9658      9657      9659      9657      9660      9660      9661
      9660      9662      9660      9663      9663      9664      9663      9665
      9663      9666      9666      9667      9666      9668      9666      9669
      9669      9670      9669      9671      9671      9672      9671      9673
      9673      9674      9673      9675      9673      9676      9676      9677
      9676      9678      9676      9679      9679      9680      9679      9681
      9679      9682      9682      9683      9682      9684      9682      9685
      9685      9686      9685      9687      9685      9688      9688      9689
      9688      9690      9688      9691      9691      9692      9691      9693
      9691      9694      9694      9695      9694      9696      9694      9697
      9645      9646      9646      9648      9646      9647      9648      9649
      9648      9650      9648      9698      9698      9699      9698      9700
      9698      9701      9701      9702      9701      9703      9701      9704
      9704      9705      9704      9706      9704      9707      9707      9708
      9707      9709      9707      9710      9710      9711      9710      9712
      9710      9713      9713      9714      9713      9715      9713      9716
      9716      9717      9716      9718      9716      9719      9719      9720
      9719      9721      9719      9722      9722      9723      9722      9724
      9722      9725      9725      9726      9725      9727      9725      9728
      9728      9729      9728      9730      9728      9731      9731      9732
      9731      9733      9731      9734      9734      9735      9734      9736
      9734      9737      9737      9738      9737      9739      9737      9740
       741       743       741       742       743       744       741       787
       787       788       787       789       787       784       784       785
       784       786       741       745       745       746       745       747
       745       748       748       779       779       784       779       780
       780       781       780       782       780       783       748       749
       749       750       749       751       751       752       751       753
       751       754       754       755       754       777       777       778
       777       779       754       756       756       757       756       766
       766       771       771       772       771       773       771       774
       774       775       774       776       774       777       766       767
       767       768       767       769       767       770       756       758
       758       759       758       760       758       761       761       762
       761       763       761       764       764       765       764       766
       764       790       790       791       790       792       792       793
       792       794       792       795       790       796       796       797
       796       798       796       799       799       800       799       801
       799       802       802       803       802       804       802       805
       805       806       805       807       807       808       807       809
       807       810       805       811       811       812       811       813
       811       814      4096      4097      4096      4098      4096      4099
      4096      4100      4100      4101      4100      4102      4100      4103
      4103      4104      4103      4105      4103      4110      4110      4106
      4106      4109      4106      4107      4106      4108      4111      4112
      4111      4113      4111      4114      4111      4109      4114      4115
      4114      4122      4114      4116      4122      4123      4122      4124
      4122      4125      4116      4117      4117      4119      4117      4118
      4119      4120      4119      4121      4119      4131      4131      4132
      4131      4133      4131      4134      4134      4135      4134      4136
      4134      4137      4137      4138      4137      4139      4137      4140
      4140      4141      4140      4142      4140      4143      4143      4144
      4143      4145      4143      4146      4146      4147      4146      4148
      4146      4149      4149      4150      4149      4151      4151      4152
      4151      4153      4153      4154      4153      4155      4153      4156
      4156      4157      4156      4158      4156      4159      4159      4160
      4159      4161      4159      4162      4162      4163      4162      4164
      4162      4165      4165      4166      4165      4167      4165      4168
      4168      4169      4168      4170      4168      4171      4171      4172
      4171      4173      4171      4174      4174      4175      4174      4176
      4174      4177      4125      4126      4126      4128      4126      4127
      4128      4129      4128      4130      4128      4178      4178      4179
      4178      4180      4178      4181      4181      4182      4181      4183
      4181      4184      4184      4185      4184      4186      4184      4187
      4187      4188      4187      4189      4187      4190      4190      4191
      4190      4192      4190      4193      4193      4194      4193      4195
      4193      4196      4196      4197      4196      4198      4196      4199
      4199      4200      4199      4201      4199      4202      4202      4203
      4202      4204      4202      4205      4205      4206      4205      4207
      4205      4208      4208      4209      4208      4210      4208      4211
      4211      4212      4211      4213      4211      4214      4214      4215
      4214      4216      4214      4217      4217      4218      4217      4219
      4217      4220      4221      4222      4221      4223      4221      4224
      4221      4225      4225      4226      4225      4227      4225      4228
      4228      4229      4228      4230      4228      4235      4235      4231
      4231      4234      4231      4232      4231      4233      4236      4237
      4236      4238      4236      4239      4236      4234      4239      4240
      4239      4247      4239      4241      4247      4248      4247      4249
      4247      4250      4241      4242      4242      4244      4242      4243
      4244      4245      4244      4246      4244      4256      4256      4257
      4256      4258      4256      4259      4259      4260      4259      4261
      4259      4262      4262      4263      4262      4264      4262      4265
      4265      4266      4265      4267      4265      4268      4268      4269
      4268      4270      4268      4271      4271      4272      4271      4273
      4271      4274      4274      4275      4274      4276      4276      4277
      4276      4278      4278      4279      4278      4280      4278      4281
      4281      4282      4281      4283      4281      4284      4284      4285
      4284      4286      4284      4287      4287      4288      4287      4289
      4287      4290      4290      4291      4290      4292      4290      4293
      4293      4294      4293      4295      4293      4296      4296      4297
      4296      4298      4296      4299      4299      4300      4299      4301
      4299      4302      4250      4251      4251      4253      4251      4252
      4253      4254      4253      4255      4253      4303      4303      4304
      4303      4305      4303      4306      4306      4307      4306      4308
      4306      4309      4309      4310      4309      4311      4309      4312
      4312      4313      4312      4314      4312      4315      4315      4316
      4315      4317      4315      4318      4318      4319      4318      4320
      4318      4321      4321      4322      4321      4323      4321      4324
      4324      4325      4324      4326      4324      4327      4327      4328
      4327      4329      4327      4330      4330      4331      4330      4332
      4330      4333      4333      4334      4333      4335      4333      4336
      4336      4337      4336      4338      4336      4339      4339      4340
      4339      4341      4339      4342      4342      4343      4342      4344
      4342      4345      4346      4347      4346      4348      4346      4349
      4346      4350      4350      4351      4350      4352      4350      4353
      4353      4354      4353      4355      4353      4360      4360      4356
      4356      4359      4356      4357      4356      4358      4361      4362
      4361      4363      4361      4364      4361      4359      4364      4365
      4364      4372      4364      4366      4372      4373      4372      4374
      4372      4375      4366      4367      4367      4369      4367      4368
      4369      4370      4369      4371      4369      4381      4381      4382
      4381      4383      4381      4384      4384      4385      4384      4386
      4384      4387      4387      4388      4387      4389      4387      4390
      4390      4391      4390      4392      4390      4393      4393      4394
      4393      4395      4393      4396      4396      4397      4396      4398
      4396      4399      4399      4400      4399      4401      4401      4402
      4401      4403      4403      4404      4403      4405      4403      4406
      4406      4407      4406      4408      4406      4409      4409      4410
      4409      4411      4409      4412      4412      4413      4412      4414
      4412      4415      4415      4416      4415      4417      4415      4418
      4418      4419      4418      4420      4418      4421      4421      4422
      4421      4423      4421      4424      4424      4425      4424      4426
      4424      4427      4375      4376      4376      4378      4376      4377
      4378      4379      4378      4380      4378      4428      4428      4429
      4428      4430      4428      4431      4431      4432      4431      4433
      4431      4434      4434      4435      4434      4436      4434      4437
      4437      4438      4437      4439      4437      4440      4440      4441
      4440      4442      4440      4443      4443      4444      4443      4445
      4443      4446      4446      4447      4446      4448      4446      4449
      4449      4450      4449      4451      4449      4452      4452      4453
      4452      4454      4452      4455      4455      4456      4455      4457
      4455      4458      4458      4459      4458      4460      4458      4461
      4461      4462      4461      4463      4461      4464      4464      4465
      4464      4466      4464      4467      4467      4468      4467      4469
      4467      4470      9741      9742      9741      9743      9741      9744
      9741      9745      9749      9747      9747      9745      9747      9748
      9745      9746      9745      9750      9758      9757      9750      9751
      9750      9752      9750      9756      9756      9753      9753      9757
      9753      9754      9753      9755      9758      9759      9758      9760
      9758      9761      9761      9762      9761      9769      9761      9763
      9769      9770      9769      9771      9769      9772      9763      9764
      9764      9766      9764      9765      9766      9767      9766      9768
      9766      9778      9778      9779      9778      9780      9778      9781
      9781      9782      9781      9783      9781      9784      9784      9785
      9784      9786      9784      9787      9787      9788      9787      9789
      9787      9790      9790      9791      9790      9792      9790      9793
      9793      9794      9793      9795      9793      9796      9796      9797
      9796      9798      9798      9799      9798      9800      9800      9801
      9800      9802      9800      9803      9803      9804      9803      9805
      9803      9806      9806      9807      9806      9808      9806      9809
      9809      9810      9809      9811      9809      9812      9812      9813
      9812      9814      9812      9815      9815      9816      9815      9817
      9815      9818      9818      9819      9818      9820      9818      9821
      9821      9822      9821      9823      9821      9824      9772      9773
      9773      9775      9773      9774      9775      9776      9775      9777
      9775      9825      9825      9826      9825      9827      9825      9828
      9828      9829      9828      9830      9828      9831      9831      9832
      9831      9833      9831      9834      9834      9835      9834      9836
      9834      9837      9837      9838      9837      9839      9837      9840
      9840      9841      9840      9842      9840      9843      9843      9844
      9843      9845      9843      9846      9846      9847      9846      9848
      9846      9849      9849      9850      9849      9851      9849      9852
      9852      9853      9852      9854      9852      9855      9855      9856
      9855      9857      9855      9858      9858      9859      9858      9860
      9858      9861      9861      9862      9861      9863      9861      9864
      9864      9865      9864      9866      9864      9867     15963     15967
     15963     15971     15963     15975     15967     15968     15967     15969
     15967     15970     15971     15972     15971     15973     15971     15974
     15975     15976     15975     15977     15975     15978     15963     15964
     15964     15965     15964     15966     15964     15979     15979     15980
     15979     15981     15979     15985     15986     15987     15985     15982
     15982     15986     15982     15983     15982     15984     15987     15988
     15987     15989     15987     15990     15990     15991     15990     15998
     15990     15992     15998     15999     15998     16000     15998     16001
     15992     15993     15993     15995     15993     15994     15995     15996
     15995     15997     15995     16007     16007     16008     16007     16009
     16007     16010     16010     16011     16010     16012     16010     16013
     16013     16014     16013     16015     16013     16016     16016     16017
     16016     16018     16016     16019     16019     16020     16019     16021
     16019     16022     16022     16023     16022     16024     16022     16025
     16025     16026     16025     16027     16027     16028     16027     16029
     16029     16030     16029     16031     16029     16032     16032     16033
     16032     16034     16032     16035     16035     16036     16035     16037
     16035     16038     16038     16039     16038     16040     16038     16041
     16041     16042     16041     16043     16041     16044     16044     16045
     16044     16046     16044     16047     16047     16048     16047     16049
     16047     16050     16050     16051     16050     16052     16050     16053
     16001     16002     16002     16004     16002     16003     16004     16005
     16004     16006     16004     16054     16054     16055     16054     16056
     16054     16057     16057     16058     16057     16059     16057     16060
     16060     16061     16060     16062     16060     16063     16063     16064
     16063     16065     16063     16066     16066     16067     16066     16068
     16066     16069     16069     16070     16069     16071     16069     16072
     16072     16073     16072     16074     16072     16075     16075     16076
     16075     16077     16075     16078     16078     16079     16078     16080
     16078     16081     16081     16082     16081     16083     16081     16084
     16084     16085     16084     16086     16084     16087     16087     16088
     16087     16089     16087     16090     16090     16091     16090     16092
     16090     16093     16093     16094     16093     16095     16093     16096
      9868      9869      9868      9870      9868      9871      9868      9872
      9876      9874      9874      9872      9874      9875      9872      9873
      9872      9877      9885      9884      9877      9878      9877      9879
      9877      9883      9883      9880      9880      9884      9880      9881
      9880      9882      9885      9886      9885      9887      9885      9888
      9888      9889      9888      9896      9888      9890      9896      9897
      9896      9898      9896      9899      9890      9891      9891      9893
      9891      9892      9893      9894      9893      9895      9893      9905
      9905      9906      9905      9907      9905      9908      9908      9909
      9908      9910      9908      9911      9911      9912      9911      9913
      9911      9914      9914      9915      9914      9916      9914      9917
      9917      9918      9917      9919      9917      9920      9920      9921
      9920      9922      9920      9923      9923      9924      9923      9925
      9925      9926      9925      9927      9927      9928      9927      9929
      9927      9930      9930      9931      9930      9932      9930      9933
      9933      9934      9933      9935      9933      9936      9936      9937
      9936      9938      9936      9939      9939      9940      9939      9941
      9939      9942      9942      9943      9942      9944      9942      9945
      9945      9946      9945      9947      9945      9948      9948      9949
      9948      9950      9948      9951      9899      9900      9900      9902
      9900      9901      9902      9903      9902      9904      9902      9952
      9952      9953      9952      9954      9952      9955      9955      9956
      9955      9957      9955      9958      9958      9959      9958      9960
      9958      9961      9961      9962      9961      9963      9961      9964
      9964      9965      9964      9966      9964      9967      9967      9968
      9967      9969      9967      9970      9970      9971      9970      9972
      9970      9973      9973      9974      9973      9975      9973      9976
      9976      9977      9976      9978      9976      9979      9979      9980
      9979      9981      9979      9982      9982      9983      9982      9984
      9982      9985      9985      9986      9985      9987      9985      9988
      9988      9989      9988      9990      9988      9991      9991      9992
      9991      9993      9991      9994      4471      4472      4471      4473
      4471      4474      4471      4475      4475      4476      4475      4477
      4475      4478      4478      4479      4478      4480      4478      4485
      4485      4481      4481      4484      4481      4482      4481      4483
      4486      4487      4486      4488      4486      4489      4486      4484
      4489      4490      4489      4497      4489      4491      4497      4498
      4497      4499      4497      4500      4491      4492      4492      4494
      4492      4493      4494      4495      4494      4496      4494      4506
      4506      4507      4506      4508      4506      4509      4509      4510
      4509      4511      4509      4512      4512      4513      4512      4514
      4512      4515      4515      4516      4515      4517      4515      4518
      4518      4519      4518      4520      4518      4521      4521      4522
      4521      4523      4521      4524      4524      4525      4524      4526
      4526      4527      4526      4528      4528      4529      4528      4530
      4528      4531      4531      4532      4531      4533      4531      4534
      4534      4535      4534      4536      4534      4537      4537      4538
      4537      4539      4537      4540      4540      4541      4540      4542
      4540      4543      4543      4544      4543      4545      4543      4546
      4546      4547      4546      4548      4546      4549      4549      4550
      4549      4551      4549      4552      4500      4501      4501      4503
      4501      4502      4503      4504      4503      4505      4503      4553
      4553      4554      4553      4555      4553      4556      4556      4557
      4556      4558      4556      4559      4559      4560      4559      4561
      4559      4562      4562      4563      4562      4564      4562      4565
      4565      4566      4565      4567      4565      4568      4568      4569
      4568      4570      4568      4571      4571      4572      4571      4573
      4571      4574      4574      4575      4574      4576      4574      4577
      4577      4578      4577      4579      4577      4580      4580      4581
      4580      4582      4580      4583      4583      4584      4583      4585
      4583      4586      4586      4587      4586      4588      4586      4589
      4589      4590      4589      4591      4589      4592      4592      4593
      4592      4594      4592      4595     16097     16101     16097     16105
     16097     16109     16101     16102     16101     16103     16101     16104
     16105     16106     16105     16107     16105     16108     16109     16110
     16109     16111     16109     16112     16097     16098     16098     16099
     16098     16100     16098     16113     16113     16114     16113     16115
     16113     16119     16120     16121     16119     16116     16116     16120
     16116     16117     16116     16118     16121     16122     16121     16123
     16121     16124     16124     16125     16124     16132     16124     16126
     16132     16133     16132     16134     16132     16135     16126     16127
     16127     16129     16127     16128     16129     16130     16129     16131
     16129     16141     16141     16142     16141     16143     16141     16144
     16144     16145     16144     16146     16144     16147     16147     16148
     16147     16149     16147     16150     16150     16151     16150     16152
     16150     16153     16153     16154     16153     16155     16153     16156
     16156     16157     16156     16158     16156     16159     16159     16160
     16159     16161     16161     16162     16161     16163     16163     16164
     16163     16165     16163     16166     16166     16167     16166     16168
     16166     16169     16169     16170     16169     16171     16169     16172
     16172     16173     16172     16174     16172     16175     16175     16176
     16175     16177     16175     16178     16178     16179     16178     16180
     16178     16181     16181     16182     16181     16183     16181     16184
     16184     16185     16184     16186     16184     16187     16135     16136
     16136     16138     16136     16137     16138     16139     16138     16140
     16138     16188     16188     16189     16188     16190     16188     16191
     16191     16192     16191     16193     16191     16194     16194     16195
     16194     16196     16194     16197     16197     16198     16197     16199
     16197     16200     16200     16201     16200     16202     16200     16203
     16203     16204     16203     16205     16203     16206     16206     16207
     16206     16208     16206     16209     16209     16210     16209     16211
     16209     16212     16212     16213     16212     16214     16212     16215
     16215     16216     16215     16217     16215     16218     16218     16219
     16218     16220     16218     16221     16221     16222     16221     16223
     16221     16224     16224     16225     16224     16226     16224     16227
     16227     16228     16227     16229     16227     16230     16231     16235
     16231     16239     16231     16243     16235     16236     16235     16237
     16235     16238     16239     16240     16239     16241     16239     16242
     16243     16244     16243     16245     16243     16246     16231     16232
     16232     16233     16232     16234     16232     16247     16247     16248
     16247     16249     16247     16253     16254     16255     16253     16250
     16250     16254     16250     16251     16250     16252     16255     16256
     16255     16257     16255     16258     16258     16259     16258     16266
     16258     16260     16266     16267     16266     16268     16266     16269
     16260     16261     16261     16263     16261     16262     16263     16264
     16263     16265     16263     16275     16275     16276     16275     16277
     16275     16278     16278     16279     16278     16280     16278     16281
     16281     16282     16281     16283     16281     16284     16284     16285
     16284     16286     16284     16287     16287     16288     16287     16289
     16287     16290     16290     16291     16290     16292     16290     16293
     16293     16294     16293     16295     16295     16296     16295     16297
     16297     16298     16297     16299     16297     16300     16300     16301
     16300     16302     16300     16303     16303     16304     16303     16305
     16303     16306     16306     16307     16306     16308     16306     16309
     16309     16310     16309     16311     16309     16312     16312     16313
     16312     16314     16312     16315     16315     16316     16315     16317
     16315     16318     16318     16319     16318     16320     16318     16321
     16269     16270     16270     16272     16270     16271     16272     16273
     16272     16274     16272     16322     16322     16323     16322     16324
     16322     16325     16325     16326     16325     16327     16325     16328
     16328     16329     16328     16330     16328     16331     16331     16332
     16331     16333     16331     16334     16334     16335     16334     16336
     16334     16337     16337     16338     16337     16339     16337     16340
     16340     16341     16340     16342     16340     16343     16343     16344
     16343     16345     16343     16346     16346     16347     16346     16348
     16346     16349     16349     16350     16349     16351     16349     16352
     16352     16353     16352     16354     16352     16355     16355     16356
     16355     16357     16355     16358     16358     16359     16358     16360
     16358     16361     16361     16362     16361     16363     16361     16364
      9995      9996      9995      9997      9995      9998      9995      9999
     10003     10001     10001      9999     10001     10002      9999     10000
      9999     10004     10012     10011     10004     10005     10004     10006
     10004     10010     10010     10007     10007     10011     10007     10008
     10007     10009     10012     10013     10012     10014     10012     10015
     10015     10016     10015     10023     10015     10017     10023     10024
     10023     10025     10023     10026     10017     10018     10018     10020
     10018     10019     10020     10021     10020     10022     10020     10032
     10032     10033     10032     10034     10032     10035     10035     10036
     10035     10037     10035     10038     10038     10039     10038     10040
     10038     10041     10041     10042     10041     10043     10041     10044
     10044     10045     10044     10046     10044     10047     10047     10048
     10047     10049     10047     10050     10050     10051     10050     10052
     10052     10053     10052     10054     10054     10055     10054     10056
     10054     10057     10057     10058     10057     10059     10057     10060
     10060     10061     10060     10062     10060     10063     10063     10064
     10063     10065     10063     10066     10066     10067     10066     10068
     10066     10069     10069     10070     10069     10071     10069     10072
     10072     10073     10072     10074     10072     10075     10075     10076
     10075     10077     10075     10078     10026     10027     10027     10029
     10027     10028     10029     10030     10029     10031     10029     10079
     10079     10080     10079     10081     10079     10082     10082     10083
     10082     10084     10082     10085     10085     10086     10085     10087
     10085     10088     10088     10089     10088     10090     10088     10091
     10091     10092     10091     10093     10091     10094     10094     10095
     10094     10096     10094     10097     10097     10098     10097     10099
     10097     10100     10100     10101     10100     10102     10100     10103
     10103     10104     10103     10105     10103     10106     10106     10107
     10106     10108     10106     10109     10109     10110     10109     10111
     10109     10112     10112     10113     10112     10114     10112     10115
     10115     10116     10115     10117     10115     10118     10118     10119
     10118     10120     10118     10121     16365     16369     16365     16373
     16365     16377     16369     16370     16369     16371     16369     16372
     16373     16374     16373     16375     16373     16376     16377     16378
     16377     16379     16377     16380     16365     16366     16366     16367
     16366     16368     16366     16381     16381     16382     16381     16383
     16381     16387     16388     16389     16387     16384     16384     16388
     16384     16385     16384     16386     16389     16390     16389     16391
     16389     16392     16392     16393     16392     16400     16392     16394
     16400     16401     16400     16402     16400     16403     16394     16395
     16395     16397     16395     16396     16397     16398     16397     16399
     16397     16409     16409     16410     16409     16411     16409     16412
     16412     16413     16412     16414     16412     16415     16415     16416
     16415     16417     16415     16418     16418     16419     16418     16420
     16418     16421     16421     16422     16421     16423     16421     16424
     16424     16425     16424     16426     16424     16427     16427     16428
     16427     16429     16429     16430     16429     16431     16431     16432
     16431     16433     16431     16434     16434     16435     16434     16436
     16434     16437     16437     16438     16437     16439     16437     16440
     16440     16441     16440     16442     16440     16443     16443     16444
     16443     16445     16443     16446     16446     16447     16446     16448
     16446     16449     16449     16450     16449     16451     16449     16452
     16452     16453     16452     16454     16452     16455     16403     16404
     16404     16406     16404     16405     16406     16407     16406     16408
     16406     16456     16456     16457     16456     16458     16456     16459
     16459     16460     16459     16461     16459     16462     16462     16463
     16462     16464     16462     16465     16465     16466     16465     16467
     16465     16468     16468     16469     16468     16470     16468     16471
     16471     16472     16471     16473     16471     16474     16474     16475
     16474     16476     16474     16477     16477     16478     16477     16479
     16477     16480     16480     16481     16480     16482     16480     16483
     16483     16484     16483     16485     16483     16486     16486     16487
     16486     16488     16486     16489     16489     16490     16489     16491
     16489     16492     16492     16493     16492     16494     16492     16495
     16495     16496     16495     16497     16495     16498       815       817
       815       816       817       818       815       861       861       862
       861       863       861       858       858       859       858       860
       815       819       819       820       819       821       819       822
       822       853       853       858       853       854       854       855
       854       856       854       857       822       823       823       824
       823       825       825       826       825       827       825       828
       828       829       828       851       851       852       851       853
       828       830       830       831       830       840       840       845
       845       846       845       847       845       848       848       849
       848       850       848       851       840       841       841       842
       841       843       841       844       830       832       832       833
       832       834       832       835       835       836       835       837
       835       838       838       839       838       840       838       864
       864       865       864       866       866       867       866       868
       866       869       864       870       870       871       870       872
       870       873       873       874       873       875       873       876
       876       877       876       878       876       879       879       880
       879       881       881       882       881       883       881       884
       879       885       885       886       885       887       885       888
       889       891       889       890       891       892       889       935
       935       936       935       937       935       932       932       933
       932       934       889       893       893       894       893       895
       893       896       896       927       927       932       927       928
       928       929       928       930       928       931       896       897
       897       898       897       899       899       900       899       901
       899       902       902       903       902       925       925       926
       925       927       902       904       904       905       904       914
       914       919       919       920       919       921       919       922
       922       923       922       924       922       925       914       915
       915       916       915       917       915       918       904       906
       906       907       906       908       906       909       909       910
       909       911       909       912       912       913       912       914
       912       938       938       939       938       940       940       941
       940       942       940       943       938       944       944       945
       944       946       944       947       947       948       947       949
       947       950       950       951       950       952       950       953
       953       954       953       955       955       956       955       957
       955       958       953       959       959       960       959       961
       959       962      4596      4597      4596      4598      4596      4599
      4596      4600      4600      4601      4600      4602      4600      4603
      4603      4604      4603      4605      4603      4610      4610      4606
      4606      4609      4606      4607      4606      4608      4611      4612
      4611      4613      4611      4614      4611      4609      4614      4615
      4614      4622      4614      4616      4622      4623      4622      4624
      4622      4625      4616      4617      4617      4619      4617      4618
      4619      4620      4619      4621      4619      4631      4631      4632
      4631      4633      4631      4634      4634      4635      4634      4636
      4634      4637      4637      4638      4637      4639      4637      4640
      4640      4641      4640      4642      4640      4643      4643      4644
      4643      4645      4643      4646      4646      4647      4646      4648
      4646      4649      4649      4650      4649      4651      4651      4652
      4651      4653      4653      4654      4653      4655      4653      4656
      4656      4657      4656      4658      4656      4659      4659      4660
      4659      4661      4659      4662      4662      4663      4662      4664
      4662      4665      4665      4666      4665      4667      4665      4668
      4668      4669      4668      4670      4668      4671      4671      4672
      4671      4673      4671      4674      4674      4675      4674      4676
      4674      4677      4625      4626      4626      4628      4626      4627
      4628      4629      4628      4630      4628      4678      4678      4679
      4678      4680      4678      4681      4681      4682      4681      4683
      4681      4684      4684      4685      4684      4686      4684      4687
      4687      4688      4687      4689      4687      4690      4690      4691
      4690      4692      4690      4693      4693      4694      4693      4695
      4693      4696      4696      4697      4696      4698      4696      4699
      4699      4700      4699      4701      4699      4702      4702      4703
      4702      4704      4702      4705      4705      4706      4705      4707
      4705      4708      4708      4709      4708      4710      4708      4711
      4711      4712      4711      4713      4711      4714      4714      4715
      4714      4716      4714      4717      4717      4718      4717      4719
      4717      4720     21885     21886     21885     21881     21885     21865
     21885     21890     21865     21866     21865     21867     21867     21868
     21865     21869     21869     21870     21869     21871     21871     21872
     21869     21873     21873     21874     21873     21875     21875     21876
     21873     21877     21877     21878     21877     21881     21881     21882
     21881     21883     21883     21884     21877     21879     21879     21880
     21890     21887     21887     21891     21887     21888     21887     21889
     21891     21892     21892     21893     21892     21894     21892     21895
     21895     21896     21895     21903     21895     21897     21903     21904
     21903     21905     21903     21906     21897     21898     21898     21900
     21898     21899     21900     21901     21900     21902     21900     21912
     21912     21913     21912     21914     21912     21915     21915     21916
     21915     21917     21915     21918     21918     21919     21918     21920
     21918     21921     21921     21922     21921     21923     21921     21924
     21924     21925     21924     21926     21924     21927     21927     21928
     21927     21929     21927     21930     21930     21931     21930     21932
     21932     21933     21932     21934     21934     21935     21934     21936
     21934     21937     21937     21938     21937     21939     21937     21940
     21940     21941     21940     21942     21940     21943     21943     21944
     21943     21945     21943     21946     21946     21947     21946     21948
     21946     21949     21949     21950     21949     21951     21949     21952
     21952     21953     21952     21954     21952     21955     21955     21956
     21955     21957     21955     21958     21906     21907     21907     21909
     21907     21908     21909     21910     21909     21911     21909     21959
     21959     21960     21959     21961     21959     21962     21962     21963
     21962     21964     21962     21965     21965     21966     21965     21967
     21965     21968     21968     21969     21968     21970     21968     21971
     21971     21972     21971     21973     21971     21974     21974     21975
     21974     21976     21974     21977     21977     21978     21977     21979
     21977     21980     21980     21981     21980     21982     21980     21983
     21983     21984     21983     21985     21983     21986     21986     21987
     21986     21988     21986     21989     21989     21990     21989     21991
     21989     21992     21992     21993     21992     21994     21992     21995
     21995     21996     21995     21997     21995     21998     21998     21999
     21998     22000     21998     22001      4721      4722      4721      4723
      4721      4724      4721      4725      4725      4726      4725      4727
      4725      4728      4728      4729      4728      4730      4728      4735
      4735      4731      4731      4734      4731      4732      4731      4733
      4736      4737      4736      4738      4736      4739      4736      4734
      4739      4740      4739      4747      4739      4741      4747      4748
      4747      4749      4747      4750      4741      4742      4742      4744
      4742      4743      4744      4745      4744      4746      4744      4756
      4756      4757      4756      4758      4756      4759      4759      4760
      4759      4761      4759      4762      4762      4763      4762      4764
      4762      4765      4765      4766      4765      4767      4765      4768
      4768      4769      4768      4770      4768      4771      4771      4772
      4771      4773      4771      4774      4774      4775      4774      4776
      4776      4777      4776      4778      4778      4779      4778      4780
      4778      4781      4781      4782      4781      4783      4781      4784
      4784      4785      4784      4786      4784      4787      4787      4788
      4787      4789      4787      4790      4790      4791      4790      4792
      4790      4793      4793      4794      4793      4795      4793      4796
      4796      4797      4796      4798      4796      4799      4799      4800
      4799      4801      4799      4802      4750      4751      4751      4753
      4751      4752      4753      4754      4753      4755      4753      4803
      4803      4804      4803      4805      4803      4806      4806      4807
      4806      4808      4806      4809      4809      4810      4809      4811
      4809      4812      4812      4813      4812      4814      4812      4815
      4815      4816      4815      4817      4815      4818      4818      4819
      4818      4820      4818      4821      4821      4822      4821      4823
      4821      4824      4824      4825      4824      4826      4824      4827
      4827      4828      4827      4829      4827      4830      4830      4831
      4830      4832      4830      4833      4833      4834      4833      4835
      4833      4836      4836      4837      4836      4838      4836      4839
      4839      4840      4839      4841      4839      4842      4842      4843
      4842      4844      4842      4845      4846      4847      4846      4848
      4846      4849      4846      4850      4850      4851      4850      4852
      4850      4853      4853      4854      4853      4855      4853      4860
      4860      4856      4856      4859      4856      4857      4856      4858
      4861      4862      4861      4863      4861      4864      4861      4859
      4864      4865      4864      4872      4864      4866      4872      4873
      4872      4874      4872      4875      4866      4867      4867      4869
      4867      4868      4869      4870      4869      4871      4869      4881
      4881      4882      4881      4883      4881      4884      4884      4885
      4884      4886      4884      4887      4887      4888      4887      4889
      4887      4890      4890      4891      4890      4892      4890      4893
      4893      4894      4893      4895      4893      4896      4896      4897
      4896      4898      4896      4899      4899      4900      4899      4901
      4901      4902      4901      4903      4903      4904      4903      4905
      4903      4906      4906      4907      4906      4908      4906      4909
      4909      4910      4909      4911      4909      4912      4912      4913
      4912      4914      4912      4915      4915      4916      4915      4917
      4915      4918      4918      4919      4918      4920      4918      4921
      4921      4922      4921      4923      4921      4924      4924      4925
      4924      4926      4924      4927      4875      4876      4876      4878
      4876      4877      4878      4879      4878      4880      4878      4928
      4928      4929      4928      4930      4928      4931      4931      4932
      4931      4933      4931      4934      4934      4935      4934      4936
      4934      4937      4937      4938      4937      4939      4937      4940
      4940      4941      4940      4942      4940      4943      4943      4944
      4943      4945      4943      4946      4946      4947      4946      4948
      4946      4949      4949      4950      4949      4951      4949      4952
      4952      4953      4952      4954      4952      4955      4955      4956
      4955      4957      4955      4958      4958      4959      4958      4960
      4958      4961      4961      4962      4961      4963      4961      4964
      4964      4965      4964      4966      4964      4967      4967      4968
      4967      4969      4967      4970     10122     10123     10122     10124
     10122     10125     10122     10126     10130     10128     10128     10126
     10128     10129     10126     10127     10126     10131     10139     10138
     10131     10132     10131     10133     10131     10137     10137     10134
     10134     10138     10134     10135     10134     10136     10139     10140
     10139     10141     10139     10142     10142     10143     10142     10150
     10142     10144     10150     10151     10150     10152     10150     10153
     10144     10145     10145     10147     10145     10146     10147     10148
     10147     10149     10147     10159     10159     10160     10159     10161
     10159     10162     10162     10163     10162     10164     10162     10165
     10165     10166     10165     10167     10165     10168     10168     10169
     10168     10170     10168     10171     10171     10172     10171     10173
     10171     10174     10174     10175     10174     10176     10174     10177
     10177     10178     10177     10179     10179     10180     10179     10181
     10181     10182     10181     10183     10181     10184     10184     10185
     10184     10186     10184     10187     10187     10188     10187     10189
     10187     10190     10190     10191     10190     10192     10190     10193
     10193     10194     10193     10195     10193     10196     10196     10197
     10196     10198     10196     10199     10199     10200     10199     10201
     10199     10202     10202     10203     10202     10204     10202     10205
     10153     10154     10154     10156     10154     10155     10156     10157
     10156     10158     10156     10206     10206     10207     10206     10208
     10206     10209     10209     10210     10209     10211     10209     10212
     10212     10213     10212     10214     10212     10215     10215     10216
     10215     10217     10215     10218     10218     10219     10218     10220
     10218     10221     10221     10222     10221     10223     10221     10224
     10224     10225     10224     10226     10224     10227     10227     10228
     10227     10229     10227     10230     10230     10231     10230     10232
     10230     10233     10233     10234     10233     10235     10233     10236
     10236     10237     10236     10238     10236     10239     10239     10240
     10239     10241     10239     10242     10242     10243     10242     10244
     10242     10245     10245     10246     10245     10247     10245     10248
      4971      4972      4971      4973      4971      4974      4971      4975
      4975      4976      4975      4977      4975      4978      4978      4979
      4978      4980      4978      4985      4985      4981      4981      4984
      4981      4982      4981      4983      4986      4987      4986      4988
      4986      4989      4986      4984      4989      4990      4989      4997
      4989      4991      4997      4998      4997      4999      4997      5000
      4991      4992      4992      4994      4992      4993      4994      4995
      4994      4996      4994      5006      5006      5007      5006      5008
      5006      5009      5009      5010      5009      5011      5009      5012
      5012      5013      5012      5014      5012      5015      5015      5016
      5015      5017      5015      5018      5018      5019      5018      5020
      5018      5021      5021      5022      5021      5023      5021      5024
      5024      5025      5024      5026      5026      5027      5026      5028
      5028      5029      5028      5030      5028      5031      5031      5032
      5031      5033      5031      5034      5034      5035      5034      5036
      5034      5037      5037      5038      5037      5039      5037      5040
      5040      5041      5040      5042      5040      5043      5043      5044
      5043      5045      5043      5046      5046      5047      5046      5048
      5046      5049      5049      5050      5049      5051      5049      5052
      5000      5001      5001      5003      5001      5002      5003      5004
      5003      5005      5003      5053      5053      5054      5053      5055
      5053      5056      5056      5057      5056      5058      5056      5059
      5059      5060      5059      5061      5059      5062      5062      5063
      5062      5064      5062      5065      5065      5066      5065      5067
      5065      5068      5068      5069      5068      5070      5068      5071
      5071      5072      5071      5073      5071      5074      5074      5075
      5074      5076      5074      5077      5077      5078      5077      5079
      5077      5080      5080      5081      5080      5082      5080      5083
      5083      5084      5083      5085      5083      5086      5086      5087
      5086      5088      5086      5089      5089      5090      5089      5091
      5089      5092      5092      5093      5092      5094      5092      5095
     10249     10250     10249     10251     10249     10252     10249     10253
     10257     10255     10255     10253     10255     10256     10253     10254
     10253     10258     10266     10265     10258     10259     10258     10260
     10258     10264     10264     10261     10261     10265     10261     10262
     10261     10263     10266     10267     10266     10268     10266     10269
     10269     10270     10269     10277     10269     10271     10277     10278
     10277     10279     10277     10280     10271     10272     10272     10274
     10272     10273     10274     10275     10274     10276     10274     10286
     10286     10287     10286     10288     10286     10289     10289     10290
     10289     10291     10289     10292     10292     10293     10292     10294
     10292     10295     10295     10296     10295     10297     10295     10298
     10298     10299     10298     10300     10298     10301     10301     10302
     10301     10303     10301     10304     10304     10305     10304     10306
     10306     10307     10306     10308     10308     10309     10308     10310
     10308     10311     10311     10312     10311     10313     10311     10314
     10314     10315     10314     10316     10314     10317     10317     10318
     10317     10319     10317     10320     10320     10321     10320     10322
     10320     10323     10323     10324     10323     10325     10323     10326
     10326     10327     10326     10328     10326     10329     10329     10330
     10329     10331     10329     10332     10280     10281     10281     10283
     10281     10282     10283     10284     10283     10285     10283     10333
     10333     10334     10333     10335     10333     10336     10336     10337
     10336     10338     10336     10339     10339     10340     10339     10341
     10339     10342     10342     10343     10342     10344     10342     10345
     10345     10346     10345     10347     10345     10348     10348     10349
     10348     10350     10348     10351     10351     10352     10351     10353
     10351     10354     10354     10355     10354     10356     10354     10357
     10357     10358     10357     10359     10357     10360     10360     10361
     10360     10362     10360     10363     10363     10364     10363     10365
     10363     10366     10366     10367     10366     10368     10366     10369
     10369     10370     10369     10371     10369     10372     10372     10373
     10372     10374     10372     10375      5096      5097      5096      5098
      5096      5099      5096      5100      5100      5101      5100      5102
      5100      5103      5103      5104      5103      5105      5103      5110
      5110      5106      5106      5109      5106      5107      5106      5108
      5111      5112      5111      5113      5111      5114      5111      5109
      5114      5115      5114      5122      5114      5116      5122      5123
      5122      5124      5122      5125      5116      5117      5117      5119
      5117      5118      5119      5120      5119      5121      5119      5131
      5131      5132      5131      5133      5131      5134      5134      5135
      5134      5136      5134      5137      5137      5138      5137      5139
      5137      5140      5140      5141      5140      5142      5140      5143
      5143      5144      5143      5145      5143      5146      5146      5147
      5146      5148      5146      5149      5149      5150      5149      5151
      5151      5152      5151      5153      5153      5154      5153      5155
      5153      5156      5156      5157      5156      5158      5156      5159
      5159      5160      5159      5161      5159      5162      5162      5163
      5162      5164      5162      5165      5165      5166      5165      5167
      5165      5168      5168      5169      5168      5170      5168      5171
      5171      5172      5171      5173      5171      5174      5174      5175
      5174      5176      5174      5177      5125      5126      5126      5128
      5126      5127      5128      5129      5128      5130      5128      5178
      5178      5179      5178      5180      5178      5181      5181      5182
      5181      5183      5181      5184      5184      5185      5184      5186
      5184      5187      5187      5188      5187      5189      5187      5190
      5190      5191      5190      5192      5190      5193      5193      5194
      5193      5195      5193      5196      5196      5197      5196      5198
      5196      5199      5199      5200      5199      5201      5199      5202
      5202      5203      5202      5204      5202      5205      5205      5206
      5205      5207      5205      5208      5208      5209      5208      5210
      5208      5211      5211      5212      5211      5213      5211      5214
      5214      5215      5214      5216      5214      5217      5217      5218
      5217      5219      5217      5220     16499     16503     16499     16507
     16499     16511     16503     16504     16503     16505     16503     16506
     16507     16508     16507     16509     16507     16510     16511     16512
     16511     16513     16511     16514     16499     16500     16500     16501
     16500     16502     16500     16515     16515     16516     16515     16517
     16515     16521     16522     16523     16521     16518     16518     16522
     16518     16519     16518     16520     16523     16524     16523     16525
     16523     16526     16526     16527     16526     16534     16526     16528
     16534     16535     16534     16536     16534     16537     16528     16529
     16529     16531     16529     16530     16531     16532     16531     16533
     16531     16543     16543     16544     16543     16545     16543     16546
     16546     16547     16546     16548     16546     16549     16549     16550
     16549     16551     16549     16552     16552     16553     16552     16554
     16552     16555     16555     16556     16555     16557     16555     16558
     16558     16559     16558     16560     16558     16561     16561     16562
     16561     16563     16563     16564     16563     16565     16565     16566
     16565     16567     16565     16568     16568     16569     16568     16570
     16568     16571     16571     16572     16571     16573     16571     16574
     16574     16575     16574     16576     16574     16577     16577     16578
     16577     16579     16577     16580     16580     16581     16580     16582
     16580     16583     16583     16584     16583     16585     16583     16586
     16586     16587     16586     16588     16586     16589     16537     16538
     16538     16540     16538     16539     16540     16541     16540     16542
     16540     16590     16590     16591     16590     16592     16590     16593
     16593     16594     16593     16595     16593     16596     16596     16597
     16596     16598     16596     16599     16599     16600     16599     16601
     16599     16602     16602     16603     16602     16604     16602     16605
     16605     16606     16605     16607     16605     16608     16608     16609
     16608     16610     16608     16611     16611     16612     16611     16613
     16611     16614     16614     16615     16614     16616     16614     16617
     16617     16618     16617     16619     16617     16620     16620     16621
     16620     16622     16620     16623     16623     16624     16623     16625
     16623     16626     16626     16627     16626     16628     16626     16629
     16629     16630     16629     16631     16629     16632      5221      5222
      5221      5223      5221      5224      5221      5225      5225      5226
      5225      5227      5225      5228      5228      5229      5228      5230
      5228      5235      5235      5231      5231      5234      5231      5232
      5231      5233      5236      5237      5236      5238      5236      5239
      5236      5234      5239      5240      5239      5247      5239      5241
      5247      5248      5247      5249      5247      5250      5241      5242
      5242      5244      5242      5243      5244      5245      5244      5246
      5244      5256      5256      5257      5256      5258      5256      5259
      5259      5260      5259      5261      5259      5262      5262      5263
      5262      5264      5262      5265      5265      5266      5265      5267
      5265      5268      5268      5269      5268      5270      5268      5271
      5271      5272      5271      5273      5271      5274      5274      5275
      5274      5276      5276      5277      5276      5278      5278      5279
      5278      5280      5278      5281      5281      5282      5281      5283
      5281      5284      5284      5285      5284      5286      5284      5287
      5287      5288      5287      5289      5287      5290      5290      5291
      5290      5292      5290      5293      5293      5294      5293      5295
      5293      5296      5296      5297      5296      5298      5296      5299
      5299      5300      5299      5301      5299      5302      5250      5251
      5251      5253      5251      5252      5253      5254      5253      5255
      5253      5303      5303      5304      5303      5305      5303      5306
      5306      5307      5306      5308      5306      5309      5309      5310
      5309      5311      5309      5312      5312      5313      5312      5314
      5312      5315      5315      5316      5315      5317      5315      5318
      5318      5319      5318      5320      5318      5321      5321      5322
      5321      5323      5321      5324      5324      5325      5324      5326
      5324      5327      5327      5328      5327      5329      5327      5330
      5330      5331      5330      5332      5330      5333      5333      5334
      5333      5335      5333      5336      5336      5337      5336      5338
      5336      5339      5339      5340      5339      5341      5339      5342
      5342      5343      5342      5344      5342      5345     10376     10377
     10376     10378     10376     10379     10376     10380     10384     10382
     10382     10380     10382     10383     10380     10381     10380     10385
     10393     10392     10385     10386     10385     10387     10385     10391
     10391     10388     10388     10392     10388     10389     10388     10390
     10393     10394     10393     10395     10393     10396     10396     10397
     10396     10404     10396     10398     10404     10405     10404     10406
     10404     10407     10398     10399     10399     10401     10399     10400
     10401     10402     10401     10403     10401     10413     10413     10414
     10413     10415     10413     10416     10416     10417     10416     10418
     10416     10419     10419     10420     10419     10421     10419     10422
     10422     10423     10422     10424     10422     10425     10425     10426
     10425     10427     10425     10428     10428     10429     10428     10430
     10428     10431     10431     10432     10431     10433     10433     10434
     10433     10435     10435     10436     10435     10437     10435     10438
     10438     10439     10438     10440     10438     10441     10441     10442
     10441     10443     10441     10444     10444     10445     10444     10446
     10444     10447     10447     10448     10447     10449     10447     10450
     10450     10451     10450     10452     10450     10453     10453     10454
     10453     10455     10453     10456     10456     10457     10456     10458
     10456     10459     10407     10408     10408     10410     10408     10409
     10410     10411     10410     10412     10410     10460     10460     10461
     10460     10462     10460     10463     10463     10464     10463     10465
     10463     10466     10466     10467     10466     10468     10466     10469
     10469     10470     10469     10471     10469     10472     10472     10473
     10472     10474     10472     10475     10475     10476     10475     10477
     10475     10478     10478     10479     10478     10480     10478     10481
     10481     10482     10481     10483     10481     10484     10484     10485
     10484     10486     10484     10487     10487     10488     10487     10489
     10487     10490     10490     10491     10490     10492     10490     10493
     10493     10494     10493     10495     10493     10496     10496     10497
     10496     10498     10496     10499     10499     10500     10499     10501
     10499     10502     16633     16637     16633     16641     16633     16645
     16637     16638     16637     16639     16637     16640     16641     16642
     16641     16643     16641     16644     16645     16646     16645     16647
     16645     16648     16633     16634     16634     16635     16634     16636
     16634     16649     16649     16650     16649     16651     16649     16655
     16656     16657     16655     16652     16652     16656     16652     16653
     16652     16654     16657     16658     16657     16659     16657     16660
     16660     16661     16660     16668     16660     16662     16668     16669
     16668     16670     16668     16671     16662     16663     16663     16665
     16663     16664     16665     16666     16665     16667     16665     16677
     16677     16678     16677     16679     16677     16680     16680     16681
     16680     16682     16680     16683     16683     16684     16683     16685
     16683     16686     16686     16687     16686     16688     16686     16689
     16689     16690     16689     16691     16689     16692     16692     16693
     16692     16694     16692     16695     16695     16696     16695     16697
     16697     16698     16697     16699     16699     16700     16699     16701
     16699     16702     16702     16703     16702     16704     16702     16705
     16705     16706     16705     16707     16705     16708     16708     16709
     16708     16710     16708     16711     16711     16712     16711     16713
     16711     16714     16714     16715     16714     16716     16714     16717
     16717     16718     16717     16719     16717     16720     16720     16721
     16720     16722     16720     16723     16671     16672     16672     16674
     16672     16673     16674     16675     16674     16676     16674     16724
     16724     16725     16724     16726     16724     16727     16727     16728
     16727     16729     16727     16730     16730     16731     16730     16732
     16730     16733     16733     16734     16733     16735     16733     16736
     16736     16737     16736     16738     16736     16739     16739     16740
     16739     16741     16739     16742     16742     16743     16742     16744
     16742     16745     16745     16746     16745     16747     16745     16748
     16748     16749     16748     16750     16748     16751     16751     16752
     16751     16753     16751     16754     16754     16755     16754     16756
     16754     16757     16757     16758     16757     16759     16757     16760
     16760     16761     16760     16762     16760     16763     16763     16764
     16763     16765     16763     16766     16767     16771     16767     16775
     16767     16779     16771     16772     16771     16773     16771     16774
     16775     16776     16775     16777     16775     16778     16779     16780
     16779     16781     16779     16782     16767     16768     16768     16769
     16768     16770     16768     16783     16783     16784     16783     16785
     16783     16789     16790     16791     16789     16786     16786     16790
     16786     16787     16786     16788     16791     16792     16791     16793
     16791     16794     16794     16795     16794     16802     16794     16796
     16802     16803     16802     16804     16802     16805     16796     16797
     16797     16799     16797     16798     16799     16800     16799     16801
     16799     16811     16811     16812     16811     16813     16811     16814
     16814     16815     16814     16816     16814     16817     16817     16818
     16817     16819     16817     16820     16820     16821     16820     16822
     16820     16823     16823     16824     16823     16825     16823     16826
     16826     16827     16826     16828     16826     16829     16829     16830
     16829     16831     16831     16832     16831     16833     16833     16834
     16833     16835     16833     16836     16836     16837     16836     16838
     16836     16839     16839     16840     16839     16841     16839     16842
     16842     16843     16842     16844     16842     16845     16845     16846
     16845     16847     16845     16848     16848     16849     16848     16850
     16848     16851     16851     16852     16851     16853     16851     16854
     16854     16855     16854     16856     16854     16857     16805     16806
     16806     16808     16806     16807     16808     16809     16808     16810
     16808     16858     16858     16859     16858     16860     16858     16861
     16861     16862     16861     16863     16861     16864     16864     16865
     16864     16866     16864     16867     16867     16868     16867     16869
     16867     16870     16870     16871     16870     16872     16870     16873
     16873     16874     16873     16875     16873     16876     16876     16877
     16876     16878     16876     16879     16879     16880     16879     16881
     16879     16882     16882     16883     16882     16884     16882     16885
     16885     16886     16885     16887     16885     16888     16888     16889
     16888     16890     16888     16891     16891     16892     16891     16893
     16891     16894     16894     16895     16894     16896     16894     16897
     16897     16898     16897     16899     16897     16900     16901     16905
     16901     16909     16901     16913     16905     16906     16905     16907
     16905     16908     16909     16910     16909     16911     16909     16912
     16913     16914     16913     16915     16913     16916     16901     16902
     16902     16903     16902     16904     16902     16917     16917     16918
     16917     16919     16917     16923     16924     16925     16923     16920
     16920     16924     16920     16921     16920     16922     16925     16926
     16925     16927     16925     16928     16928     16929     16928     16936
     16928     16930     16936     16937     16936     16938     16936     16939
     16930     16931     16931     16933     16931     16932     16933     16934
     16933     16935     16933     16945     16945     16946     16945     16947
     16945     16948     16948     16949     16948     16950     16948     16951
     16951     16952     16951     16953     16951     16954     16954     16955
     16954     16956     16954     16957     16957     16958     16957     16959
     16957     16960     16960     16961     16960     16962     16960     16963
     16963     16964     16963     16965     16965     16966     16965     16967
     16967     16968     16967     16969     16967     16970     16970     16971
     16970     16972     16970     16973     16973     16974     16973     16975
     16973     16976     16976     16977     16976     16978     16976     16979
     16979     16980     16979     16981     16979     16982     16982     16983
     16982     16984     16982     16985     16985     16986     16985     16987
     16985     16988     16988     16989     16988     16990     16988     16991
     16939     16940     16940     16942     16940     16941     16942     16943
     16942     16944     16942     16992     16992     16993     16992     16994
     16992     16995     16995     16996     16995     16997     16995     16998
     16998     16999     16998     17000     16998     17001     17001     17002
     17001     17003     17001     17004     17004     17005     17004     17006
     17004     17007     17007     17008     17007     17009     17007     17010
     17010     17011     17010     17012     17010     17013     17013     17014
     17013     17015     17013     17016     17016     17017     17016     17018
     17016     17019     17019     17020     17019     17021     17019     17022
     17022     17023     17022     17024     17022     17025     17025     17026
     17025     17027     17025     17028     17028     17029     17028     17030
     17028     17031     17031     17032     17031     17033     17031     17034
     17035     17039     17035     17043     17035     17047     17039     17040
     17039     17041     17039     17042     17043     17044     17043     17045
     17043     17046     17047     17048     17047     17049     17047     17050
     17035     17036     17036     17037     17036     17038     17036     17051
     17051     17052     17051     17053     17051     17057     17058     17059
     17057     17054     17054     17058     17054     17055     17054     17056
     17059     17060     17059     17061     17059     17062     17062     17063
     17062     17070     17062     17064     17070     17071     17070     17072
     17070     17073     17064     17065     17065     17067     17065     17066
     17067     17068     17067     17069     17067     17079     17079     17080
     17079     17081     17079     17082     17082     17083     17082     17084
     17082     17085     17085     17086     17085     17087     17085     17088
     17088     17089     17088     17090     17088     17091     17091     17092
     17091     17093     17091     17094     17094     17095     17094     17096
     17094     17097     17097     17098     17097     17099     17099     17100
     17099     17101     17101     17102     17101     17103     17101     17104
     17104     17105     17104     17106     17104     17107     17107     17108
     17107     17109     17107     17110     17110     17111     17110     17112
     17110     17113     17113     17114     17113     17115     17113     17116
     17116     17117     17116     17118     17116     17119     17119     17120
     17119     17121     17119     17122     17122     17123     17122     17124
     17122     17125     17073     17074     17074     17076     17074     17075
     17076     17077     17076     17078     17076     17126     17126     17127
     17126     17128     17126     17129     17129     17130     17129     17131
     17129     17132     17132     17133     17132     17134     17132     17135
     17135     17136     17135     17137     17135     17138     17138     17139
     17138     17140     17138     17141     17141     17142     17141     17143
     17141     17144     17144     17145     17144     17146     17144     17147
     17147     17148     17147     17149     17147     17150     17150     17151
     17150     17152     17150     17153     17153     17154     17153     17155
     17153     17156     17156     17157     17156     17158     17156     17159
     17159     17160     17159     17161     17159     17162     17162     17163
     17162     17164     17162     17165     17165     17166     17165     17167
     17165     17168     10503     10504     10503     10505     10503     10506
     10503     10507     10511     10509     10509     10507     10509     10510
     10507     10508     10507     10512     10520     10519     10512     10513
     10512     10514     10512     10518     10518     10515     10515     10519
     10515     10516     10515     10517     10520     10521     10520     10522
     10520     10523     10523     10524     10523     10531     10523     10525
     10531     10532     10531     10533     10531     10534     10525     10526
     10526     10528     10526     10527     10528     10529     10528     10530
     10528     10540     10540     10541     10540     10542     10540     10543
     10543     10544     10543     10545     10543     10546     10546     10547
     10546     10548     10546     10549     10549     10550     10549     10551
     10549     10552     10552     10553     10552     10554     10552     10555
     10555     10556     10555     10557     10555     10558     10558     10559
     10558     10560     10560     10561     10560     10562     10562     10563
     10562     10564     10562     10565     10565     10566     10565     10567
     10565     10568     10568     10569     10568     10570     10568     10571
     10571     10572     10571     10573     10571     10574     10574     10575
     10574     10576     10574     10577     10577     10578     10577     10579
     10577     10580     10580     10581     10580     10582     10580     10583
     10583     10584     10583     10585     10583     10586     10534     10535
     10535     10537     10535     10536     10537     10538     10537     10539
     10537     10587     10587     10588     10587     10589     10587     10590
     10590     10591     10590     10592     10590     10593     10593     10594
     10593     10595     10593     10596     10596     10597     10596     10598
     10596     10599     10599     10600     10599     10601     10599     10602
     10602     10603     10602     10604     10602     10605     10605     10606
     10605     10607     10605     10608     10608     10609     10608     10610
     10608     10611     10611     10612     10611     10613     10611     10614
     10614     10615     10614     10616     10614     10617     10617     10618
     10617     10619     10617     10620     10620     10621     10620     10622
     10620     10623     10623     10624     10623     10625     10623     10626
     10626     10627     10626     10628     10626     10629     17169     17173
     17169     17177     17169     17181     17173     17174     17173     17175
     17173     17176     17177     17178     17177     17179     17177     17180
     17181     17182     17181     17183     17181     17184     17169     17170
     17170     17171     17170     17172     17170     17185     17185     17186
     17185     17187     17185     17191     17192     17193     17191     17188
     17188     17192     17188     17189     17188     17190     17193     17194
     17193     17195     17193     17196     17196     17197     17196     17204
     17196     17198     17204     17205     17204     17206     17204     17207
     17198     17199     17199     17201     17199     17200     17201     17202
     17201     17203     17201     17213     17213     17214     17213     17215
     17213     17216     17216     17217     17216     17218     17216     17219
     17219     17220     17219     17221     17219     17222     17222     17223
     17222     17224     17222     17225     17225     17226     17225     17227
     17225     17228     17228     17229     17228     17230     17228     17231
     17231     17232     17231     17233     17233     17234     17233     17235
     17235     17236     17235     17237     17235     17238     17238     17239
     17238     17240     17238     17241     17241     17242     17241     17243
     17241     17244     17244     17245     17244     17246     17244     17247
     17247     17248     17247     17249     17247     17250     17250     17251
     17250     17252     17250     17253     17253     17254     17253     17255
     17253     17256     17256     17257     17256     17258     17256     17259
     17207     17208     17208     17210     17208     17209     17210     17211
     17210     17212     17210     17260     17260     17261     17260     17262
     17260     17263     17263     17264     17263     17265     17263     17266
     17266     17267     17266     17268     17266     17269     17269     17270
     17269     17271     17269     17272     17272     17273     17272     17274
     17272     17275     17275     17276     17275     17277     17275     17278
     17278     17279     17278     17280     17278     17281     17281     17282
     17281     17283     17281     17284     17284     17285     17284     17286
     17284     17287     17287     17288     17287     17289     17287     17290
     17290     17291     17290     17292     17290     17293     17293     17294
     17293     17295     17293     17296     17296     17297     17296     17298
     17296     17299     17299     17300     17299     17301     17299     17302
     10630     10631     10630     10632     10630     10633     10630     10634
     10638     10636     10636     10634     10636     10637     10634     10635
     10634     10639     10647     10646     10639     10640     10639     10641
     10639     10645     10645     10642     10642     10646     10642     10643
     10642     10644     10647     10648     10647     10649     10647     10650
     10650     10651     10650     10658     10650     10652     10658     10659
     10658     10660     10658     10661     10652     10653     10653     10655
     10653     10654     10655     10656     10655     10657     10655     10667
     10667     10668     10667     10669     10667     10670     10670     10671
     10670     10672     10670     10673     10673     10674     10673     10675
     10673     10676     10676     10677     10676     10678     10676     10679
     10679     10680     10679     10681     10679     10682     10682     10683
     10682     10684     10682     10685     10685     10686     10685     10687
     10687     10688     10687     10689     10689     10690     10689     10691
     10689     10692     10692     10693     10692     10694     10692     10695
     10695     10696     10695     10697     10695     10698     10698     10699
     10698     10700     10698     10701     10701     10702     10701     10703
     10701     10704     10704     10705     10704     10706     10704     10707
     10707     10708     10707     10709     10707     10710     10710     10711
     10710     10712     10710     10713     10661     10662     10662     10664
     10662     10663     10664     10665     10664     10666     10664     10714
     10714     10715     10714     10716     10714     10717     10717     10718
     10717     10719     10717     10720     10720     10721     10720     10722
     10720     10723     10723     10724     10723     10725     10723     10726
     10726     10727     10726     10728     10726     10729     10729     10730
     10729     10731     10729     10732     10732     10733     10732     10734
     10732     10735     10735     10736     10735     10737     10735     10738
     10738     10739     10738     10740     10738     10741     10741     10742
     10741     10743     10741     10744     10744     10745     10744     10746
     10744     10747     10747     10748     10747     10749     10747     10750
     10750     10751     10750     10752     10750     10753     10753     10754
     10753     10755     10753     10756       963       965       963       964
       965       966       963      1009      1009      1010      1009      1011
      1009      1006      1006      1007      1006      1008       963       967
       967       968       967       969       967       970       970      1001
      1001      1006      1001      1002      1002      1003      1002      1004
      1002      1005       970       971       971       972       971       973
       973       974       973       975       973       976       976       977
       976       999       999      1000       999      1001       976       978
       978       979       978       988       988       993       993       994
       993       995       993       996       996       997       996       998
       996       999       988       989       989       990       989       991
       989       992       978       980       980       981       980       982
       980       983       983       984       983       985       983       986
       986       987       986       988       986      1012      1012      1013
      1012      1014      1014      1015      1014      1016      1014      1017
      1012      1018      1018      1019      1018      1020      1018      1021
      1021      1022      1021      1023      1021      1024      1024      1025
      1024      1026      1024      1027      1027      1028      1027      1029
      1029      1030      1029      1031      1029      1032      1027      1033
      1033      1034      1033      1035      1033      1036     10757     10758
     10757     10759     10757     10760     10757     10761     10765     10763
     10763     10761     10763     10764     10761     10762     10761     10766
     10774     10773     10766     10767     10766     10768     10766     10772
     10772     10769     10769     10773     10769     10770     10769     10771
     10774     10775     10774     10776     10774     10777     10777     10778
     10777     10785     10777     10779     10785     10786     10785     10787
     10785     10788     10779     10780     10780     10782     10780     10781
     10782     10783     10782     10784     10782     10794     10794     10795
     10794     10796     10794     10797     10797     10798     10797     10799
     10797     10800     10800     10801     10800     10802     10800     10803
     10803     10804     10803     10805     10803     10806     10806     10807
     10806     10808     10806     10809     10809     10810     10809     10811
     10809     10812     10812     10813     10812     10814     10814     10815
     10814     10816     10816     10817     10816     10818     10816     10819
     10819     10820     10819     10821     10819     10822     10822     10823
     10822     10824     10822     10825     10825     10826     10825     10827
     10825     10828     10828     10829     10828     10830     10828     10831
     10831     10832     10831     10833     10831     10834     10834     10835
     10834     10836     10834     10837     10837     10838     10837     10839
     10837     10840     10788     10789     10789     10791     10789     10790
     10791     10792     10791     10793     10791     10841     10841     10842
     10841     10843     10841     10844     10844     10845     10844     10846
     10844     10847     10847     10848     10847     10849     10847     10850
     10850     10851     10850     10852     10850     10853     10853     10854
     10853     10855     10853     10856     10856     10857     10856     10858
     10856     10859     10859     10860     10859     10861     10859     10862
     10862     10863     10862     10864     10862     10865     10865     10866
     10865     10867     10865     10868     10868     10869     10868     10870
     10868     10871     10871     10872     10871     10873     10871     10874
     10874     10875     10874     10876     10874     10877     10877     10878
     10877     10879     10877     10880     10880     10881     10880     10882
     10880     10883     17303     17307     17303     17311     17303     17315
     17307     17308     17307     17309     17307     17310     17311     17312
     17311     17313     17311     17314     17315     17316     17315     17317
     17315     17318     17303     17304     17304     17305     17304     17306
     17304     17319     17319     17320     17319     17321     17319     17325
     17326     17327     17325     17322     17322     17326     17322     17323
     17322     17324     17327     17328     17327     17329     17327     17330
     17330     17331     17330     17338     17330     17332     17338     17339
     17338     17340     17338     17341     17332     17333     17333     17335
     17333     17334     17335     17336     17335     17337     17335     17347
     17347     17348     17347     17349     17347     17350     17350     17351
     17350     17352     17350     17353     17353     17354     17353     17355
     17353     17356     17356     17357     17356     17358     17356     17359
     17359     17360     17359     17361     17359     17362     17362     17363
     17362     17364     17362     17365     17365     17366     17365     17367
     17367     17368     17367     17369     17369     17370     17369     17371
     17369     17372     17372     17373     17372     17374     17372     17375
     17375     17376     17375     17377     17375     17378     17378     17379
     17378     17380     17378     17381     17381     17382     17381     17383
     17381     17384     17384     17385     17384     17386     17384     17387
     17387     17388     17387     17389     17387     17390     17390     17391
     17390     17392     17390     17393     17341     17342     17342     17344
     17342     17343     17344     17345     17344     17346     17344     17394
     17394     17395     17394     17396     17394     17397     17397     17398
     17397     17399     17397     17400     17400     17401     17400     17402
     17400     17403     17403     17404     17403     17405     17403     17406
     17406     17407     17406     17408     17406     17409     17409     17410
     17409     17411     17409     17412     17412     17413     17412     17414
     17412     17415     17415     17416     17415     17417     17415     17418
     17418     17419     17418     17420     17418     17421     17421     17422
     17421     17423     17421     17424     17424     17425     17424     17426
     17424     17427     17427     17428     17427     17429     17427     17430
     17430     17431     17430     17432     17430     17433     17433     17434
     17433     17435     17433     17436     10884     10885     10884     10886
     10884     10887     10884     10888     10892     10890     10890     10888
     10890     10891     10888     10889     10888     10893     10901     10900
     10893     10894     10893     10895     10893     10899     10899     10896
     10896     10900     10896     10897     10896     10898     10901     10902
     10901     10903     10901     10904     10904     10905     10904     10912
     10904     10906     10912     10913     10912     10914     10912     10915
     10906     10907     10907     10909     10907     10908     10909     10910
     10909     10911     10909     10921     10921     10922     10921     10923
     10921     10924     10924     10925     10924     10926     10924     10927
     10927     10928     10927     10929     10927     10930     10930     10931
     10930     10932     10930     10933     10933     10934     10933     10935
     10933     10936     10936     10937     10936     10938     10936     10939
     10939     10940     10939     10941     10941     10942     10941     10943
     10943     10944     10943     10945     10943     10946     10946     10947
     10946     10948     10946     10949     10949     10950     10949     10951
     10949     10952     10952     10953     10952     10954     10952     10955
     10955     10956     10955     10957     10955     10958     10958     10959
     10958     10960     10958     10961     10961     10962     10961     10963
     10961     10964     10964     10965     10964     10966     10964     10967
     10915     10916     10916     10918     10916     10917     10918     10919
     10918     10920     10918     10968     10968     10969     10968     10970
     10968     10971     10971     10972     10971     10973     10971     10974
     10974     10975     10974     10976     10974     10977     10977     10978
     10977     10979     10977     10980     10980     10981     10980     10982
     10980     10983     10983     10984     10983     10985     10983     10986
     10986     10987     10986     10988     10986     10989     10989     10990
     10989     10991     10989     10992     10992     10993     10992     10994
     10992     10995     10995     10996     10995     10997     10995     10998
     10998     10999     10998     11000     10998     11001     11001     11002
     11001     11003     11001     11004     11004     11005     11004     11006
     11004     11007     11007     11008     11007     11009     11007     11010
      1037      1039      1037      1038      1039      1040      1037      1083
      1083      1084      1083      1085      1083      1080      1080      1081
      1080      1082      1037      1041      1041      1042      1041      1043
      1041      1044      1044      1075      1075      1080      1075      1076
      1076      1077      1076      1078      1076      1079      1044      1045
      1045      1046      1045      1047      1047      1048      1047      1049
      1047      1050      1050      1051      1050      1073      1073      1074
      1073      1075      1050      1052      1052      1053      1052      1062
      1062      1067      1067      1068      1067      1069      1067      1070
      1070      1071      1070      1072      1070      1073      1062      1063
      1063      1064      1063      1065      1063      1066      1052      1054
      1054      1055      1054      1056      1054      1057      1057      1058
      1057      1059      1057      1060      1060      1061      1060      1062
      1060      1086      1086      1087      1086      1088      1088      1089
      1088      1090      1088      1091      1086      1092      1092      1093
      1092      1094      1092      1095      1095      1096      1095      1097
      1095      1098      1098      1099      1098      1100      1098      1101
      1101      1102      1101      1103      1103      1104      1103      1105
      1103      1106      1101      1107      1107      1108      1107      1109
      1107      1110     17437     17441     17437     17445     17437     17449
     17441     17442     17441     17443     17441     17444     17445     17446
     17445     17447     17445     17448     17449     17450     17449     17451
     17449     17452     17437     17438     17438     17439     17438     17440
     17438     17453     17453     17454     17453     17455     17453     17459
     17460     17461     17459     17456     17456     17460     17456     17457
     17456     17458     17461     17462     17461     17463     17461     17464
     17464     17465     17464     17472     17464     17466     17472     17473
     17472     17474     17472     17475     17466     17467     17467     17469
     17467     17468     17469     17470     17469     17471     17469     17481
     17481     17482     17481     17483     17481     17484     17484     17485
     17484     17486     17484     17487     17487     17488     17487     17489
     17487     17490     17490     17491     17490     17492     17490     17493
     17493     17494     17493     17495     17493     17496     17496     17497
     17496     17498     17496     17499     17499     17500     17499     17501
     17501     17502     17501     17503     17503     17504     17503     17505
     17503     17506     17506     17507     17506     17508     17506     17509
     17509     17510     17509     17511     17509     17512     17512     17513
     17512     17514     17512     17515     17515     17516     17515     17517
     17515     17518     17518     17519     17518     17520     17518     17521
     17521     17522     17521     17523     17521     17524     17524     17525
     17524     17526     17524     17527     17475     17476     17476     17478
     17476     17477     17478     17479     17478     17480     17478     17528
     17528     17529     17528     17530     17528     17531     17531     17532
     17531     17533     17531     17534     17534     17535     17534     17536
     17534     17537     17537     17538     17537     17539     17537     17540
     17540     17541     17540     17542     17540     17543     17543     17544
     17543     17545     17543     17546     17546     17547     17546     17548
     17546     17549     17549     17550     17549     17551     17549     17552
     17552     17553     17552     17554     17552     17555     17555     17556
     17555     17557     17555     17558     17558     17559     17558     17560
     17558     17561     17561     17562     17561     17563     17561     17564
     17564     17565     17564     17566     17564     17567     17567     17568
     17567     17569     17567     17570     22022     22023     22022     22018
     22022     22002     22022     22027     22002     22003     22002     22004
     22004     22005     22002     22006     22006     22007     22006     22008
     22008     22009     22006     22010     22010     22011     22010     22012
     22012     22013     22010     22014     22014     22015     22014     22018
     22018     22019     22018     22020     22020     22021     22014     22016
     22016     22017     22027     22024     22024     22028     22024     22025
     22024     22026     22028     22029     22029     22030     22029     22031
     22029     22032     22032     22033     22032     22040     22032     22034
     22040     22041     22040     22042     22040     22043     22034     22035
     22035     22037     22035     22036     22037     22038     22037     22039
     22037     22049     22049     22050     22049     22051     22049     22052
     22052     22053     22052     22054     22052     22055     22055     22056
     22055     22057     22055     22058     22058     22059     22058     22060
     22058     22061     22061     22062     22061     22063     22061     22064
     22064     22065     22064     22066     22064     22067     22067     22068
     22067     22069     22069     22070     22069     22071     22071     22072
     22071     22073     22071     22074     22074     22075     22074     22076
     22074     22077     22077     22078     22077     22079     22077     22080
     22080     22081     22080     22082     22080     22083     22083     22084
     22083     22085     22083     22086     22086     22087     22086     22088
     22086     22089     22089     22090     22089     22091     22089     22092
     22092     22093     22092     22094     22092     22095     22043     22044
     22044     22046     22044     22045     22046     22047     22046     22048
     22046     22096     22096     22097     22096     22098     22096     22099
     22099     22100     22099     22101     22099     22102     22102     22103
     22102     22104     22102     22105     22105     22106     22105     22107
     22105     22108     22108     22109     22108     22110     22108     22111
     22111     22112     22111     22113     22111     22114     22114     22115
     22114     22116     22114     22117     22117     22118     22117     22119
     22117     22120     22120     22121     22120     22122     22120     22123
     22123     22124     22123     22125     22123     22126     22126     22127
     22126     22128     22126     22129     22129     22130     22129     22131
     22129     22132     22132     22133     22132     22134     22132     22135
     22135     22136     22135     22137     22135     22138     22159     22160
     22159     22155     22159     22139     22159     22164     22139     22140
     22139     22141     22141     22142     22139     22143     22143     22144
     22143     22145     22145     22146     22143     22147     22147     22148
     22147     22149     22149     22150     22147     22151     22151     22152
     22151     22155     22155     22156     22155     22157     22157     22158
     22151     22153     22153     22154     22164     22161     22161     22165
     22161     22162     22161     22163     22165     22166     22166     22167
     22166     22168     22166     22169     22169     22170     22169     22177
     22169     22171     22177     22178     22177     22179     22177     22180
     22171     22172     22172     22174     22172     22173     22174     22175
     22174     22176     22174     22186     22186     22187     22186     22188
     22186     22189     22189     22190     22189     22191     22189     22192
     22192     22193     22192     22194     22192     22195     22195     22196
     22195     22197     22195     22198     22198     22199     22198     22200
     22198     22201     22201     22202     22201     22203     22201     22204
     22204     22205     22204     22206     22206     22207     22206     22208
     22208     22209     22208     22210     22208     22211     22211     22212
     22211     22213     22211     22214     22214     22215     22214     22216
     22214     22217     22217     22218     22217     22219     22217     22220
     22220     22221     22220     22222     22220     22223     22223     22224
     22223     22225     22223     22226     22226     22227     22226     22228
     22226     22229     22229     22230     22229     22231     22229     22232
     22180     22181     22181     22183     22181     22182     22183     22184
     22183     22185     22183     22233     22233     22234     22233     22235
     22233     22236     22236     22237     22236     22238     22236     22239
     22239     22240     22239     22241     22239     22242     22242     22243
     22242     22244     22242     22245     22245     22246     22245     22247
     22245     22248     22248     22249     22248     22250     22248     22251
     22251     22252     22251     22253     22251     22254     22254     22255
     22254     22256     22254     22257     22257     22258     22257     22259
     22257     22260     22260     22261     22260     22262     22260     22263
     22263     22264     22263     22265     22263     22266     22266     22267
     22266     22268     22266     22269     22269     22270     22269     22271
     22269     22272     22272     22273     22272     22274     22272     22275
      5346      5347      5346      5348      5346      5349      5346      5350
      5350      5351      5350      5352      5350      5353      5353      5354
      5353      5355      5353      5360      5360      5356      5356      5359
      5356      5357      5356      5358      5361      5362      5361      5363
      5361      5364      5361      5359      5364      5365      5364      5372
      5364      5366      5372      5373      5372      5374      5372      5375
      5366      5367      5367      5369      5367      5368      5369      5370
      5369      5371      5369      5381      5381      5382      5381      5383
      5381      5384      5384      5385      5384      5386      5384      5387
      5387      5388      5387      5389      5387      5390      5390      5391
      5390      5392      5390      5393      5393      5394      5393      5395
      5393      5396      5396      5397      5396      5398      5396      5399
      5399      5400      5399      5401      5401      5402      5401      5403
      5403      5404      5403      5405      5403      5406      5406      5407
      5406      5408      5406      5409      5409      5410      5409      5411
      5409      5412      5412      5413      5412      5414      5412      5415
      5415      5416      5415      5417      5415      5418      5418      5419
      5418      5420      5418      5421      5421      5422      5421      5423
      5421      5424      5424      5425      5424      5426      5424      5427
      5375      5376      5376      5378      5376      5377      5378      5379
      5378      5380      5378      5428      5428      5429      5428      5430
      5428      5431      5431      5432      5431      5433      5431      5434
      5434      5435      5434      5436      5434      5437      5437      5438
      5437      5439      5437      5440      5440      5441      5440      5442
      5440      5443      5443      5444      5443      5445      5443      5446
      5446      5447      5446      5448      5446      5449      5449      5450
      5449      5451      5449      5452      5452      5453      5452      5454
      5452      5455      5455      5456      5455      5457      5455      5458
      5458      5459      5458      5460      5458      5461      5461      5462
      5461      5463      5461      5464      5464      5465      5464      5466
      5464      5467      5467      5468      5467      5469      5467      5470
      5471      5472      5471      5473      5471      5474      5471      5475
      5475      5476      5475      5477      5475      5478      5478      5479
      5478      5480      5478      5485      5485      5481      5481      5484
      5481      5482      5481      5483      5486      5487      5486      5488
      5486      5489      5486      5484      5489      5490      5489      5497
      5489      5491      5497      5498      5497      5499      5497      5500
      5491      5492      5492      5494      5492      5493      5494      5495
      5494      5496      5494      5506      5506      5507      5506      5508
      5506      5509      5509      5510      5509      5511      5509      5512
      5512      5513      5512      5514      5512      5515      5515      5516
      5515      5517      5515      5518      5518      5519      5518      5520
      5518      5521      5521      5522      5521      5523      5521      5524
      5524      5525      5524      5526      5526      5527      5526      5528
      5528      5529      5528      5530      5528      5531      5531      5532
      5531      5533      5531      5534      5534      5535      5534      5536
      5534      5537      5537      5538      5537      5539      5537      5540
      5540      5541      5540      5542      5540      5543      5543      5544
      5543      5545      5543      5546      5546      5547      5546      5548
      5546      5549      5549      5550      5549      5551      5549      5552
      5500      5501      5501      5503      5501      5502      5503      5504
      5503      5505      5503      5553      5553      5554      5553      5555
      5553      5556      5556      5557      5556      5558      5556      5559
      5559      5560      5559      5561      5559      5562      5562      5563
      5562      5564      5562      5565      5565      5566      5565      5567
      5565      5568      5568      5569      5568      5570      5568      5571
      5571      5572      5571      5573      5571      5574      5574      5575
      5574      5576      5574      5577      5577      5578      5577      5579
      5577      5580      5580      5581      5580      5582      5580      5583
      5583      5584      5583      5585      5583      5586      5586      5587
      5586      5588      5586      5589      5589      5590      5589      5591
      5589      5592      5592      5593      5592      5594      5592      5595
     17571     17575     17571     17579     17571     17583     17575     17576
     17575     17577     17575     17578     17579     17580     17579     17581
     17579     17582     17583     17584     17583     17585     17583     17586
     17571     17572     17572     17573     17572     17574     17572     17587
     17587     17588     17587     17589     17587     17593     17594     17595
     17593     17590     17590     17594     17590     17591     17590     17592
     17595     17596     17595     17597     17595     17598     17598     17599
     17598     17606     17598     17600     17606     17607     17606     17608
     17606     17609     17600     17601     17601     17603     17601     17602
     17603     17604     17603     17605     17603     17615     17615     17616
     17615     17617     17615     17618     17618     17619     17618     17620
     17618     17621     17621     17622     17621     17623     17621     17624
     17624     17625     17624     17626     17624     17627     17627     17628
     17627     17629     17627     17630     17630     17631     17630     17632
     17630     17633     17633     17634     17633     17635     17635     17636
     17635     17637     17637     17638     17637     17639     17637     17640
     17640     17641     17640     17642     17640     17643     17643     17644
     17643     17645     17643     17646     17646     17647     17646     17648
     17646     17649     17649     17650     17649     17651     17649     17652
     17652     17653     17652     17654     17652     17655     17655     17656
     17655     17657     17655     17658     17658     17659     17658     17660
     17658     17661     17609     17610     17610     17612     17610     17611
     17612     17613     17612     17614     17612     17662     17662     17663
     17662     17664     17662     17665     17665     17666     17665     17667
     17665     17668     17668     17669     17668     17670     17668     17671
     17671     17672     17671     17673     17671     17674     17674     17675
     17674     17676     17674     17677     17677     17678     17677     17679
     17677     17680     17680     17681     17680     17682     17680     17683
     17683     17684     17683     17685     17683     17686     17686     17687
     17686     17688     17686     17689     17689     17690     17689     17691
     17689     17692     17692     17693     17692     17694     17692     17695
     17695     17696     17695     17697     17695     17698     17698     17699
     17698     17700     17698     17701     17701     17702     17701     17703
     17701     17704      1111      1113      1111      1112      1113      1114
      1111      1157      1157      1158      1157      1159      1157      1154
      1154      1155      1154      1156      1111      1115      1115      1116
      1115      1117      1115      1118      1118      1149      1149      1154
      1149      1150      1150      1151      1150      1152      1150      1153
      1118      1119      1119      1120      1119      1121      1121      1122
      1121      1123      1121      1124      1124      1125      1124      1147
      1147      1148      1147      1149      1124      1126      1126      1127
      1126      1136      1136      1141      1141      1142      1141      1143
      1141      1144      1144      1145      1144      1146      1144      1147
      1136      1137      1137      1138      1137      1139      1137      1140
      1126      1128      1128      1129      1128      1130      1128      1131
      1131      1132      1131      1133      1131      1134      1134      1135
      1134      1136      1134      1160      1160      1161      1160      1162
      1162      1163      1162      1164      1162      1165      1160      1166
      1166      1167      1166      1168      1166      1169      1169      1170
      1169      1171      1169      1172      1172      1173      1172      1174
      1172      1175      1175      1176      1175      1177      1177      1178
      1177      1179      1177      1180      1175      1181      1181      1182
      1181      1183      1181      1184     11011     11012     11011     11013
     11011     11014     11011     11015     11019     11017     11017     11015
     11017     11018     11015     11016     11015     11020     11028     11027
     11020     11021     11020     11022     11020     11026     11026     11023
     11023     11027     11023     11024     11023     11025     11028     11029
     11028     11030     11028     11031     11031     11032     11031     11039
     11031     11033     11039     11040     11039     11041     11039     11042
     11033     11034     11034     11036     11034     11035     11036     11037
     11036     11038     11036     11048     11048     11049     11048     11050
     11048     11051     11051     11052     11051     11053     11051     11054
     11054     11055     11054     11056     11054     11057     11057     11058
     11057     11059     11057     11060     11060     11061     11060     11062
     11060     11063     11063     11064     11063     11065     11063     11066
     11066     11067     11066     11068     11068     11069     11068     11070
     11070     11071     11070     11072     11070     11073     11073     11074
     11073     11075     11073     11076     11076     11077     11076     11078
     11076     11079     11079     11080     11079     11081     11079     11082
     11082     11083     11082     11084     11082     11085     11085     11086
     11085     11087     11085     11088     11088     11089     11088     11090
     11088     11091     11091     11092     11091     11093     11091     11094
     11042     11043     11043     11045     11043     11044     11045     11046
     11045     11047     11045     11095     11095     11096     11095     11097
     11095     11098     11098     11099     11098     11100     11098     11101
     11101     11102     11101     11103     11101     11104     11104     11105
     11104     11106     11104     11107     11107     11108     11107     11109
     11107     11110     11110     11111     11110     11112     11110     11113
     11113     11114     11113     11115     11113     11116     11116     11117
     11116     11118     11116     11119     11119     11120     11119     11121
     11119     11122     11122     11123     11122     11124     11122     11125
     11125     11126     11125     11127     11125     11128     11128     11129
     11128     11130     11128     11131     11131     11132     11131     11133
     11131     11134     11134     11135     11134     11136     11134     11137
     11138     11139     11138     11140     11138     11141     11138     11142
     11146     11144     11144     11142     11144     11145     11142     11143
     11142     11147     11155     11154     11147     11148     11147     11149
     11147     11153     11153     11150     11150     11154     11150     11151
     11150     11152     11155     11156     11155     11157     11155     11158
     11158     11159     11158     11166     11158     11160     11166     11167
     11166     11168     11166     11169     11160     11161     11161     11163
     11161     11162     11163     11164     11163     11165     11163     11175
     11175     11176     11175     11177     11175     11178     11178     11179
     11178     11180     11178     11181     11181     11182     11181     11183
     11181     11184     11184     11185     11184     11186     11184     11187
     11187     11188     11187     11189     11187     11190     11190     11191
     11190     11192     11190     11193     11193     11194     11193     11195
     11195     11196     11195     11197     11197     11198     11197     11199
     11197     11200     11200     11201     11200     11202     11200     11203
     11203     11204     11203     11205     11203     11206     11206     11207
     11206     11208     11206     11209     11209     11210     11209     11211
     11209     11212     11212     11213     11212     11214     11212     11215
     11215     11216     11215     11217     11215     11218     11218     11219
     11218     11220     11218     11221     11169     11170     11170     11172
     11170     11171     11172     11173     11172     11174     11172     11222
     11222     11223     11222     11224     11222     11225     11225     11226
     11225     11227     11225     11228     11228     11229     11228     11230
     11228     11231     11231     11232     11231     11233     11231     11234
     11234     11235     11234     11236     11234     11237     11237     11238
     11237     11239     11237     11240     11240     11241     11240     11242
     11240     11243     11243     11244     11243     11245     11243     11246
     11246     11247     11246     11248     11246     11249     11249     11250
     11249     11251     11249     11252     11252     11253     11252     11254
     11252     11255     11255     11256     11255     11257     11255     11258
     11258     11259     11258     11260     11258     11261     11261     11262
     11261     11263     11261     11264      1185      1187      1185      1186
      1187      1188      1185      1231      1231      1232      1231      1233
      1231      1228      1228      1229      1228      1230      1185      1189
      1189      1190      1189      1191      1189      1192      1192      1223
      1223      1228      1223      1224      1224      1225      1224      1226
      1224      1227      1192      1193      1193      1194      1193      1195
      1195      1196      1195      1197      1195      1198      1198      1199
      1198      1221      1221      1222      1221      1223      1198      1200
      1200      1201      1200      1210      1210      1215      1215      1216
      1215      1217      1215      1218      1218      1219      1218      1220
      1218      1221      1210      1211      1211      1212      1211      1213
      1211      1214      1200      1202      1202      1203      1202      1204
      1202      1205      1205      1206      1205      1207      1205      1208
      1208      1209      1208      1210      1208      1234      1234      1235
      1234      1236      1236      1237      1236      1238      1236      1239
      1234      1240      1240      1241      1240      1242      1240      1243
      1243      1244      1243      1245      1243      1246      1246      1247
      1246      1248      1246      1249      1249      1250      1249      1251
      1251      1252      1251      1253      1251      1254      1249      1255
      1255      1256      1255      1257      1255      1258      1259      1261
      1259      1260      1261      1262      1259      1305      1305      1306
      1305      1307      1305      1302      1302      1303      1302      1304
      1259      1263      1263      1264      1263      1265      1263      1266
      1266      1297      1297      1302      1297      1298      1298      1299
      1298      1300      1298      1301      1266      1267      1267      1268
      1267      1269      1269      1270      1269      1271      1269      1272
      1272      1273      1272      1295      1295      1296      1295      1297
      1272      1274      1274      1275      1274      1284      1284      1289
      1289      1290      1289      1291      1289      1292      1292      1293
      1292      1294      1292      1295      1284      1285      1285      1286
      1285      1287      1285      1288      1274      1276      1276      1277
      1276      1278      1276      1279      1279      1280      1279      1281
      1279      1282      1282      1283      1282      1284      1282      1308
      1308      1309      1308      1310      1310      1311      1310      1312
      1310      1313      1308      1314      1314      1315      1314      1316
      1314      1317      1317      1318      1317      1319      1317      1320
      1320      1321      1320      1322      1320      1323      1323      1324
      1323      1325      1325      1326      1325      1327      1325      1328
      1323      1329      1329      1330      1329      1331      1329      1332
     17705     17709     17705     17713     17705     17717     17709     17710
     17709     17711     17709     17712     17713     17714     17713     17715
     17713     17716     17717     17718     17717     17719     17717     17720
     17705     17706     17706     17707     17706     17708     17706     17721
     17721     17722     17721     17723     17721     17727     17728     17729
     17727     17724     17724     17728     17724     17725     17724     17726
     17729     17730     17729     17731     17729     17732     17732     17733
     17732     17740     17732     17734     17740     17741     17740     17742
     17740     17743     17734     17735     17735     17737     17735     17736
     17737     17738     17737     17739     17737     17749     17749     17750
     17749     17751     17749     17752     17752     17753     17752     17754
     17752     17755     17755     17756     17755     17757     17755     17758
     17758     17759     17758     17760     17758     17761     17761     17762
     17761     17763     17761     17764     17764     17765     17764     17766
     17764     17767     17767     17768     17767     17769     17769     17770
     17769     17771     17771     17772     17771     17773     17771     17774
     17774     17775     17774     17776     17774     17777     17777     17778
     17777     17779     17777     17780     17780     17781     17780     17782
     17780     17783     17783     17784     17783     17785     17783     17786
     17786     17787     17786     17788     17786     17789     17789     17790
     17789     17791     17789     17792     17792     17793     17792     17794
     17792     17795     17743     17744     17744     17746     17744     17745
     17746     17747     17746     17748     17746     17796     17796     17797
     17796     17798     17796     17799     17799     17800     17799     17801
     17799     17802     17802     17803     17802     17804     17802     17805
     17805     17806     17805     17807     17805     17808     17808     17809
     17808     17810     17808     17811     17811     17812     17811     17813
     17811     17814     17814     17815     17814     17816     17814     17817
     17817     17818     17817     17819     17817     17820     17820     17821
     17820     17822     17820     17823     17823     17824     17823     17825
     17823     17826     17826     17827     17826     17828     17826     17829
     17829     17830     17829     17831     17829     17832     17832     17833
     17832     17834     17832     17835     17835     17836     17835     17837
     17835     17838     17839     17843     17839     17847     17839     17851
     17843     17844     17843     17845     17843     17846     17847     17848
     17847     17849     17847     17850     17851     17852     17851     17853
     17851     17854     17839     17840     17840     17841     17840     17842
     17840     17855     17855     17856     17855     17857     17855     17861
     17862     17863     17861     17858     17858     17862     17858     17859
     17858     17860     17863     17864     17863     17865     17863     17866
     17866     17867     17866     17874     17866     17868     17874     17875
     17874     17876     17874     17877     17868     17869     17869     17871
     17869     17870     17871     17872     17871     17873     17871     17883
     17883     17884     17883     17885     17883     17886     17886     17887
     17886     17888     17886     17889     17889     17890     17889     17891
     17889     17892     17892     17893     17892     17894     17892     17895
     17895     17896     17895     17897     17895     17898     17898     17899
     17898     17900     17898     17901     17901     17902     17901     17903
     17903     17904     17903     17905     17905     17906     17905     17907
     17905     17908     17908     17909     17908     17910     17908     17911
     17911     17912     17911     17913     17911     17914     17914     17915
     17914     17916     17914     17917     17917     17918     17917     17919
     17917     17920     17920     17921     17920     17922     17920     17923
     17923     17924     17923     17925     17923     17926     17926     17927
     17926     17928     17926     17929     17877     17878     17878     17880
     17878     17879     17880     17881     17880     17882     17880     17930
     17930     17931     17930     17932     17930     17933     17933     17934
     17933     17935     17933     17936     17936     17937     17936     17938
     17936     17939     17939     17940     17939     17941     17939     17942
     17942     17943     17942     17944     17942     17945     17945     17946
     17945     17947     17945     17948     17948     17949     17948     17950
     17948     17951     17951     17952     17951     17953     17951     17954
     17954     17955     17954     17956     17954     17957     17957     17958
     17957     17959     17957     17960     17960     17961     17960     17962
     17960     17963     17963     17964     17963     17965     17963     17966
     17966     17967     17966     17968     17966     17969     17969     17970
     17969     17971     17969     17972     17973     17977     17973     17981
     17973     17985     17977     17978     17977     17979     17977     17980
     17981     17982     17981     17983     17981     17984     17985     17986
     17985     17987     17985     17988     17973     17974     17974     17975
     17974     17976     17974     17989     17989     17990     17989     17991
     17989     17995     17996     17997     17995     17992     17992     17996
     17992     17993     17992     17994     17997     17998     17997     17999
     17997     18000     18000     18001     18000     18008     18000     18002
     18008     18009     18008     18010     18008     18011     18002     18003
     18003     18005     18003     18004     18005     18006     18005     18007
     18005     18017     18017     18018     18017     18019     18017     18020
     18020     18021     18020     18022     18020     18023     18023     18024
     18023     18025     18023     18026     18026     18027     18026     18028
     18026     18029     18029     18030     18029     18031     18029     18032
     18032     18033     18032     18034     18032     18035     18035     18036
     18035     18037     18037     18038     18037     18039     18039     18040
     18039     18041     18039     18042     18042     18043     18042     18044
     18042     18045     18045     18046     18045     18047     18045     18048
     18048     18049     18048     18050     18048     18051     18051     18052
     18051     18053     18051     18054     18054     18055     18054     18056
     18054     18057     18057     18058     18057     18059     18057     18060
     18060     18061     18060     18062     18060     18063     18011     18012
     18012     18014     18012     18013     18014     18015     18014     18016
     18014     18064     18064     18065     18064     18066     18064     18067
     18067     18068     18067     18069     18067     18070     18070     18071
     18070     18072     18070     18073     18073     18074     18073     18075
     18073     18076     18076     18077     18076     18078     18076     18079
     18079     18080     18079     18081     18079     18082     18082     18083
     18082     18084     18082     18085     18085     18086     18085     18087
     18085     18088     18088     18089     18088     18090     18088     18091
     18091     18092     18091     18093     18091     18094     18094     18095
     18094     18096     18094     18097     18097     18098     18097     18099
     18097     18100     18100     18101     18100     18102     18100     18103
     18103     18104     18103     18105     18103     18106     18107     18111
     18107     18115     18107     18119     18111     18112     18111     18113
     18111     18114     18115     18116     18115     18117     18115     18118
     18119     18120     18119     18121     18119     18122     18107     18108
     18108     18109     18108     18110     18108     18123     18123     18124
     18123     18125     18123     18129     18130     18131     18129     18126
     18126     18130     18126     18127     18126     18128     18131     18132
     18131     18133     18131     18134     18134     18135     18134     18142
     18134     18136     18142     18143     18142     18144     18142     18145
     18136     18137     18137     18139     18137     18138     18139     18140
     18139     18141     18139     18151     18151     18152     18151     18153
     18151     18154     18154     18155     18154     18156     18154     18157
     18157     18158     18157     18159     18157     18160     18160     18161
     18160     18162     18160     18163     18163     18164     18163     18165
     18163     18166     18166     18167     18166     18168     18166     18169
     18169     18170     18169     18171     18171     18172     18171     18173
     18173     18174     18173     18175     18173     18176     18176     18177
     18176     18178     18176     18179     18179     18180     18179     18181
     18179     18182     18182     18183     18182     18184     18182     18185
     18185     18186     18185     18187     18185     18188     18188     18189
     18188     18190     18188     18191     18191     18192     18191     18193
     18191     18194     18194     18195     18194     18196     18194     18197
     18145     18146     18146     18148     18146     18147     18148     18149
     18148     18150     18148     18198     18198     18199     18198     18200
     18198     18201     18201     18202     18201     18203     18201     18204
     18204     18205     18204     18206     18204     18207     18207     18208
     18207     18209     18207     18210     18210     18211     18210     18212
     18210     18213     18213     18214     18213     18215     18213     18216
     18216     18217     18216     18218     18216     18219     18219     18220
     18219     18221     18219     18222     18222     18223     18222     18224
     18222     18225     18225     18226     18225     18227     18225     18228
     18228     18229     18228     18230     18228     18231     18231     18232
     18231     18233     18231     18234     18234     18235     18234     18236
     18234     18237     18237     18238     18237     18239     18237     18240
      5596      5597      5596      5598      5596      5599      5596      5600
      5600      5601      5600      5602      5600      5603      5603      5604
      5603      5605      5603      5610      5610      5606      5606      5609
      5606      5607      5606      5608      5611      5612      5611      5613
      5611      5614      5611      5609      5614      5615      5614      5622
      5614      5616      5622      5623      5622      5624      5622      5625
      5616      5617      5617      5619      5617      5618      5619      5620
      5619      5621      5619      5631      5631      5632      5631      5633
      5631      5634      5634      5635      5634      5636      5634      5637
      5637      5638      5637      5639      5637      5640      5640      5641
      5640      5642      5640      5643      5643      5644      5643      5645
      5643      5646      5646      5647      5646      5648      5646      5649
      5649      5650      5649      5651      5651      5652      5651      5653
      5653      5654      5653      5655      5653      5656      5656      5657
      5656      5658      5656      5659      5659      5660      5659      5661
      5659      5662      5662      5663      5662      5664      5662      5665
      5665      5666      5665      5667      5665      5668      5668      5669
      5668      5670      5668      5671      5671      5672      5671      5673
      5671      5674      5674      5675      5674      5676      5674      5677
      5625      5626      5626      5628      5626      5627      5628      5629
      5628      5630      5628      5678      5678      5679      5678      5680
      5678      5681      5681      5682      5681      5683      5681      5684
      5684      5685      5684      5686      5684      5687      5687      5688
      5687      5689      5687      5690      5690      5691      5690      5692
      5690      5693      5693      5694      5693      5695      5693      5696
      5696      5697      5696      5698      5696      5699      5699      5700
      5699      5701      5699      5702      5702      5703      5702      5704
      5702      5705      5705      5706      5705      5707      5705      5708
      5708      5709      5708      5710      5708      5711      5711      5712
      5711      5713      5711      5714      5714      5715      5714      5716
      5714      5717      5717      5718      5717      5719      5717      5720
     11265     11266     11265     11267     11265     11268     11265     11269
     11273     11271     11271     11269     11271     11272     11269     11270
     11269     11274     11282     11281     11274     11275     11274     11276
     11274     11280     11280     11277     11277     11281     11277     11278
     11277     11279     11282     11283     11282     11284     11282     11285
     11285     11286     11285     11293     11285     11287     11293     11294
     11293     11295     11293     11296     11287     11288     11288     11290
     11288     11289     11290     11291     11290     11292     11290     11302
     11302     11303     11302     11304     11302     11305     11305     11306
     11305     11307     11305     11308     11308     11309     11308     11310
     11308     11311     11311     11312     11311     11313     11311     11314
     11314     11315     11314     11316     11314     11317     11317     11318
     11317     11319     11317     11320     11320     11321     11320     11322
     11322     11323     11322     11324     11324     11325     11324     11326
     11324     11327     11327     11328     11327     11329     11327     11330
     11330     11331     11330     11332     11330     11333     11333     11334
     11333     11335     11333     11336     11336     11337     11336     11338
     11336     11339     11339     11340     11339     11341     11339     11342
     11342     11343     11342     11344     11342     11345     11345     11346
     11345     11347     11345     11348     11296     11297     11297     11299
     11297     11298     11299     11300     11299     11301     11299     11349
     11349     11350     11349     11351     11349     11352     11352     11353
     11352     11354     11352     11355     11355     11356     11355     11357
     11355     11358     11358     11359     11358     11360     11358     11361
     11361     11362     11361     11363     11361     11364     11364     11365
     11364     11366     11364     11367     11367     11368     11367     11369
     11367     11370     11370     11371     11370     11372     11370     11373
     11373     11374     11373     11375     11373     11376     11376     11377
     11376     11378     11376     11379     11379     11380     11379     11381
     11379     11382     11382     11383     11382     11384     11382     11385
     11385     11386     11385     11387     11385     11388     11388     11389
     11388     11390     11388     11391     18241     18245     18241     18249
     18241     18253     18245     18246     18245     18247     18245     18248
     18249     18250     18249     18251     18249     18252     18253     18254
     18253     18255     18253     18256     18241     18242     18242     18243
     18242     18244     18242     18257     18257     18258     18257     18259
     18257     18263     18264     18265     18263     18260     18260     18264
     18260     18261     18260     18262     18265     18266     18265     18267
     18265     18268     18268     18269     18268     18276     18268     18270
     18276     18277     18276     18278     18276     18279     18270     18271
     18271     18273     18271     18272     18273     18274     18273     18275
     18273     18285     18285     18286     18285     18287     18285     18288
     18288     18289     18288     18290     18288     18291     18291     18292
     18291     18293     18291     18294     18294     18295     18294     18296
     18294     18297     18297     18298     18297     18299     18297     18300
     18300     18301     18300     18302     18300     18303     18303     18304
     18303     18305     18305     18306     18305     18307     18307     18308
     18307     18309     18307     18310     18310     18311     18310     18312
     18310     18313     18313     18314     18313     18315     18313     18316
     18316     18317     18316     18318     18316     18319     18319     18320
     18319     18321     18319     18322     18322     18323     18322     18324
     18322     18325     18325     18326     18325     18327     18325     18328
     18328     18329     18328     18330     18328     18331     18279     18280
     18280     18282     18280     18281     18282     18283     18282     18284
     18282     18332     18332     18333     18332     18334     18332     18335
     18335     18336     18335     18337     18335     18338     18338     18339
     18338     18340     18338     18341     18341     18342     18341     18343
     18341     18344     18344     18345     18344     18346     18344     18347
     18347     18348     18347     18349     18347     18350     18350     18351
     18350     18352     18350     18353     18353     18354     18353     18355
     18353     18356     18356     18357     18356     18358     18356     18359
     18359     18360     18359     18361     18359     18362     18362     18363
     18362     18364     18362     18365     18365     18366     18365     18367
     18365     18368     18368     18369     18368     18370     18368     18371
     18371     18372     18371     18373     18371     18374     11392     11393
     11392     11394     11392     11395     11392     11396     11400     11398
     11398     11396     11398     11399     11396     11397     11396     11401
     11409     11408     11401     11402     11401     11403     11401     11407
     11407     11404     11404     11408     11404     11405     11404     11406
     11409     11410     11409     11411     11409     11412     11412     11413
     11412     11420     11412     11414     11420     11421     11420     11422
     11420     11423     11414     11415     11415     11417     11415     11416
     11417     11418     11417     11419     11417     11429     11429     11430
     11429     11431     11429     11432     11432     11433     11432     11434
     11432     11435     11435     11436     11435     11437     11435     11438
     11438     11439     11438     11440     11438     11441     11441     11442
     11441     11443     11441     11444     11444     11445     11444     11446
     11444     11447     11447     11448     11447     11449     11449     11450
     11449     11451     11451     11452     11451     11453     11451     11454
     11454     11455     11454     11456     11454     11457     11457     11458
     11457     11459     11457     11460     11460     11461     11460     11462
     11460     11463     11463     11464     11463     11465     11463     11466
     11466     11467     11466     11468     11466     11469     11469     11470
     11469     11471     11469     11472     11472     11473     11472     11474
     11472     11475     11423     11424     11424     11426     11424     11425
     11426     11427     11426     11428     11426     11476     11476     11477
     11476     11478     11476     11479     11479     11480     11479     11481
     11479     11482     11482     11483     11482     11484     11482     11485
     11485     11486     11485     11487     11485     11488     11488     11489
     11488     11490     11488     11491     11491     11492     11491     11493
     11491     11494     11494     11495     11494     11496     11494     11497
     11497     11498     11497     11499     11497     11500     11500     11501
     11500     11502     11500     11503     11503     11504     11503     11505
     11503     11506     11506     11507     11506     11508     11506     11509
     11509     11510     11509     11511     11509     11512     11512     11513
     11512     11514     11512     11515     11515     11516     11515     11517
     11515     11518      5721      5722      5721      5723      5721      5724
      5721      5725      5725      5726      5725      5727      5725      5728
      5728      5729      5728      5730      5728      5735      5735      5731
      5731      5734      5731      5732      5731      5733      5736      5737
      5736      5738      5736      5739      5736      5734      5739      5740
      5739      5747      5739      5741      5747      5748      5747      5749
      5747      5750      5741      5742      5742      5744      5742      5743
      5744      5745      5744      5746      5744      5756      5756      5757
      5756      5758      5756      5759      5759      5760      5759      5761
      5759      5762      5762      5763      5762      5764      5762      5765
      5765      5766      5765      5767      5765      5768      5768      5769
      5768      5770      5768      5771      5771      5772      5771      5773
      5771      5774      5774      5775      5774      5776      5776      5777
      5776      5778      5778      5779      5778      5780      5778      5781
      5781      5782      5781      5783      5781      5784      5784      5785
      5784      5786      5784      5787      5787      5788      5787      5789
      5787      5790      5790      5791      5790      5792      5790      5793
      5793      5794      5793      5795      5793      5796      5796      5797
      5796      5798      5796      5799      5799      5800      5799      5801
      5799      5802      5750      5751      5751      5753      5751      5752
      5753      5754      5753      5755      5753      5803      5803      5804
      5803      5805      5803      5806      5806      5807      5806      5808
      5806      5809      5809      5810      5809      5811      5809      5812
      5812      5813      5812      5814      5812      5815      5815      5816
      5815      5817      5815      5818      5818      5819      5818      5820
      5818      5821      5821      5822      5821      5823      5821      5824
      5824      5825      5824      5826      5824      5827      5827      5828
      5827      5829      5827      5830      5830      5831      5830      5832
      5830      5833      5833      5834      5833      5835      5833      5836
      5836      5837      5836      5838      5836      5839      5839      5840
      5839      5841      5839      5842      5842      5843      5842      5844
      5842      5845     18375     18379     18375     18383     18375     18387
     18379     18380     18379     18381     18379     18382     18383     18384
     18383     18385     18383     18386     18387     18388     18387     18389
     18387     18390     18375     18376     18376     18377     18376     18378
     18376     18391     18391     18392     18391     18393     18391     18397
     18398     18399     18397     18394     18394     18398     18394     18395
     18394     18396     18399     18400     18399     18401     18399     18402
     18402     18403     18402     18410     18402     18404     18410     18411
     18410     18412     18410     18413     18404     18405     18405     18407
     18405     18406     18407     18408     18407     18409     18407     18419
     18419     18420     18419     18421     18419     18422     18422     18423
     18422     18424     18422     18425     18425     18426     18425     18427
     18425     18428     18428     18429     18428     18430     18428     18431
     18431     18432     18431     18433     18431     18434     18434     18435
     18434     18436     18434     18437     18437     18438     18437     18439
     18439     18440     18439     18441     18441     18442     18441     18443
     18441     18444     18444     18445     18444     18446     18444     18447
     18447     18448     18447     18449     18447     18450     18450     18451
     18450     18452     18450     18453     18453     18454     18453     18455
     18453     18456     18456     18457     18456     18458     18456     18459
     18459     18460     18459     18461     18459     18462     18462     18463
     18462     18464     18462     18465     18413     18414     18414     18416
     18414     18415     18416     18417     18416     18418     18416     18466
     18466     18467     18466     18468     18466     18469     18469     18470
     18469     18471     18469     18472     18472     18473     18472     18474
     18472     18475     18475     18476     18475     18477     18475     18478
     18478     18479     18478     18480     18478     18481     18481     18482
     18481     18483     18481     18484     18484     18485     18484     18486
     18484     18487     18487     18488     18487     18489     18487     18490
     18490     18491     18490     18492     18490     18493     18493     18494
     18493     18495     18493     18496     18496     18497     18496     18498
     18496     18499     18499     18500     18499     18501     18499     18502
     18502     18503     18502     18504     18502     18505     18505     18506
     18505     18507     18505     18508      1333      1335      1333      1334
      1335      1336      1333      1379      1379      1380      1379      1381
      1379      1376      1376      1377      1376      1378      1333      1337
      1337      1338      1337      1339      1337      1340      1340      1371
      1371      1376      1371      1372      1372      1373      1372      1374
      1372      1375      1340      1341      1341      1342      1341      1343
      1343      1344      1343      1345      1343      1346      1346      1347
      1346      1369      1369      1370      1369      1371      1346      1348
      1348      1349      1348      1358      1358      1363      1363      1364
      1363      1365      1363      1366      1366      1367      1366      1368
      1366      1369      1358      1359      1359      1360      1359      1361
      1359      1362      1348      1350      1350      1351      1350      1352
      1350      1353      1353      1354      1353      1355      1353      1356
      1356      1357      1356      1358      1356      1382      1382      1383
      1382      1384      1384      1385      1384      1386      1384      1387
      1382      1388      1388      1389      1388      1390      1388      1391
      1391      1392      1391      1393      1391      1394      1394      1395
      1394      1396      1394      1397      1397      1398      1397      1399
      1399      1400      1399      1401      1399      1402      1397      1403
      1403      1404      1403      1405      1403      1406     23671     23672
     23671     23673     23671     23674     23671     23668     23668     23669
     23668     23670     23668     23665     23665     23666     23665     23667
     23665     23662     23662     23663     23662     23664     23662     23659
     23659     23660     23659     23661     23659     23656     23656     23657
     23656     23658     23656     23653     23653     23654     23653     23655
     23653     23650     23650     23651     23650     23652     23650     23647
     23647     23648     23647     23649     23647     23644     23644     23645
     23644     23646     23644     23641     23641     23642     23641     23643
     23641     23638     23638     23639     23638     23640     23638     23635
     23635     23636     23635     23637     23635     23633     23633     23634
     23631     23632     23631     23627     23627     23628     23627     23629
     23629     23630     23627     23625     23625     23626     23625     23620
     23620     23621     23620     23622     23620     23618     23618     23615
     23619     23615     23616     23615     23617     23615     23619     23612
     23612     23613     23612     23614     23612     23609     23609     23610
     23609     23611     23609     23596     23596     23605     23596     23601
     23596     23597     23605     23606     23605     23607     23605     23608
     23601     23602     23601     23603     23601     23604     23597     23598
     23597     23599     23597     23600     23625     23623     23623     23624
     23623     23675     23675     23677     23677     23678     23677     23679
     23677     23680     23680     23681     23680     23682     23680     23683
     23683     23684     23683     23685     23683     23686     23686     23687
     23686     23688     23686     23689     23689     23690     23689     23691
     23689     23692     23692     23693     23692     23694     23692     23695
     23695     23696     23695     23697     23695     23698     23698     23699
     23698     23700     23698     23701     23701     23702     23701     23703
     23701     23704     23704     23705     23704     23706     23704     23707
     23707     23708     23707     23709     23707     23710     23710     23711
     23710     23712     23710     23713     23713     23714     23713     23715
     23713     23716     23716     23717     23716     23718     23716     23719
     23719     23720     23719     23721     23719     23722     23631     23633
     23675     23676     11519     11520     11519     11521     11519     11522
     11519     11523     11527     11525     11525     11523     11525     11526
     11523     11524     11523     11528     11536     11535     11528     11529
     11528     11530     11528     11534     11534     11531     11531     11535
     11531     11532     11531     11533     11536     11537     11536     11538
     11536     11539     11539     11540     11539     11547     11539     11541
     11547     11548     11547     11549     11547     11550     11541     11542
     11542     11544     11542     11543     11544     11545     11544     11546
     11544     11556     11556     11557     11556     11558     11556     11559
     11559     11560     11559     11561     11559     11562     11562     11563
     11562     11564     11562     11565     11565     11566     11565     11567
     11565     11568     11568     11569     11568     11570     11568     11571
     11571     11572     11571     11573     11571     11574     11574     11575
     11574     11576     11576     11577     11576     11578     11578     11579
     11578     11580     11578     11581     11581     11582     11581     11583
     11581     11584     11584     11585     11584     11586     11584     11587
     11587     11588     11587     11589     11587     11590     11590     11591
     11590     11592     11590     11593     11593     11594     11593     11595
     11593     11596     11596     11597     11596     11598     11596     11599
     11599     11600     11599     11601     11599     11602     11550     11551
     11551     11553     11551     11552     11553     11554     11553     11555
     11553     11603     11603     11604     11603     11605     11603     11606
     11606     11607     11606     11608     11606     11609     11609     11610
     11609     11611     11609     11612     11612     11613     11612     11614
     11612     11615     11615     11616     11615     11617     11615     11618
     11618     11619     11618     11620     11618     11621     11621     11622
     11621     11623     11621     11624     11624     11625     11624     11626
     11624     11627     11627     11628     11627     11629     11627     11630
     11630     11631     11630     11632     11630     11633     11633     11634
     11633     11635     11633     11636     11636     11637     11636     11638
     11636     11639     11639     11640     11639     11641     11639     11642
     11642     11643     11642     11644     11642     11645     23798     23799
     23798     23800     23798     23801     23798     23795     23795     23796
     23795     23797     23795     23792     23792     23793     23792     23794
     23792     23789     23789     23790     23789     23791     23789     23786
     23786     23787     23786     23788     23786     23783     23783     23784
     23783     23785     23783     23780     23780     23781     23780     23782
     23780     23777     23777     23778     23777     23779     23777     23774
     23774     23775     23774     23776     23774     23771     23771     23772
     23771     23773     23771     23768     23768     23769     23768     23770
     23768     23765     23765     23766     23765     23767     23765     23762
     23762     23763     23762     23764     23762     23760     23760     23761
     23758     23759     23758     23754     23754     23755     23754     23756
     23756     23757     23754     23752     23752     23753     23752     23747
     23747     23748     23747     23749     23747     23745     23745     23742
     23746     23742     23743     23742     23744     23742     23746     23739
     23739     23740     23739     23741     23739     23736     23736     23737
     23736     23738     23736     23723     23723     23732     23723     23728
     23723     23724     23732     23733     23732     23734     23732     23735
     23728     23729     23728     23730     23728     23731     23724     23725
     23724     23726     23724     23727     23752     23750     23750     23751
     23750     23802     23802     23804     23804     23805     23804     23806
     23804     23807     23807     23808     23807     23809     23807     23810
     23810     23811     23810     23812     23810     23813     23813     23814
     23813     23815     23813     23816     23816     23817     23816     23818
     23816     23819     23819     23820     23819     23821     23819     23822
     23822     23823     23822     23824     23822     23825     23825     23826
     23825     23827     23825     23828     23828     23829     23828     23830
     23828     23831     23831     23832     23831     23833     23831     23834
     23834     23835     23834     23836     23834     23837     23837     23838
     23837     23839     23837     23840     23840     23841     23840     23842
     23840     23843     23843     23844     23843     23845     23843     23846
     23846     23847     23846     23848     23846     23849     23758     23760
     23802     23803     23925     23926     23925     23927     23925     23928
     23925     23922     23922     23923     23922     23924     23922     23919
     23919     23920     23919     23921     23919     23916     23916     23917
     23916     23918     23916     23913     23913     23914     23913     23915
     23913     23910     23910     23911     23910     23912     23910     23907
     23907     23908     23907     23909     23907     23904     23904     23905
     23904     23906     23904     23901     23901     23902     23901     23903
     23901     23898     23898     23899     23898     23900     23898     23895
     23895     23896     23895     23897     23895     23892     23892     23893
     23892     23894     23892     23889     23889     23890     23889     23891
     23889     23887     23887     23888     23885     23886     23885     23881
     23881     23882     23881     23883     23883     23884     23881     23879
     23879     23880     23879     23874     23874     23875     23874     23876
     23874     23872     23872     23869     23873     23869     23870     23869
     23871     23869     23873     23866     23866     23867     23866     23868
     23866     23863     23863     23864     23863     23865     23863     23850
     23850     23859     23850     23855     23850     23851     23859     23860
     23859     23861     23859     23862     23855     23856     23855     23857
     23855     23858     23851     23852     23851     23853     23851     23854
     23879     23877     23877     23878     23877     23929     23929     23931
     23931     23932     23931     23933     23931     23934     23934     23935
     23934     23936     23934     23937     23937     23938     23937     23939
     23937     23940     23940     23941     23940     23942     23940     23943
     23943     23944     23943     23945     23943     23946     23946     23947
     23946     23948     23946     23949     23949     23950     23949     23951
     23949     23952     23952     23953     23952     23954     23952     23955
     23955     23956     23955     23957     23955     23958     23958     23959
     23958     23960     23958     23961     23961     23962     23961     23963
     23961     23964     23964     23965     23964     23966     23964     23967
     23967     23968     23967     23969     23967     23970     23970     23971
     23970     23972     23970     23973     23973     23974     23973     23975
     23973     23976     23885     23887     23929     23930     24052     24053
     24052     24054     24052     24055     24052     24049     24049     24050
     24049     24051     24049     24046     24046     24047     24046     24048
     24046     24043     24043     24044     24043     24045     24043     24040
     24040     24041     24040     24042     24040     24037     24037     24038
     24037     24039     24037     24034     24034     24035     24034     24036
     24034     24031     24031     24032     24031     24033     24031     24028
     24028     24029     24028     24030     24028     24025     24025     24026
     24025     24027     24025     24022     24022     24023     24022     24024
     24022     24019     24019     24020     24019     24021     24019     24016
     24016     24017     24016     24018     24016     24014     24014     24015
     24012     24013     24012     24008     24008     24009     24008     24010
     24010     24011     24008     24006     24006     24007     24006     24001
     24001     24002     24001     24003     24001     23999     23999     23996
     24000     23996     23997     23996     23998     23996     24000     23993
     23993     23994     23993     23995     23993     23990     23990     23991
     23990     23992     23990     23977     23977     23986     23977     23982
     23977     23978     23986     23987     23986     23988     23986     23989
     23982     23983     23982     23984     23982     23985     23978     23979
     23978     23980     23978     23981     24006     24004     24004     24005
     24004     24056     24056     24058     24058     24059     24058     24060
     24058     24061     24061     24062     24061     24063     24061     24064
     24064     24065     24064     24066     24064     24067     24067     24068
     24067     24069     24067     24070     24070     24071     24070     24072
     24070     24073     24073     24074     24073     24075     24073     24076
     24076     24077     24076     24078     24076     24079     24079     24080
     24079     24081     24079     24082     24082     24083     24082     24084
     24082     24085     24085     24086     24085     24087     24085     24088
     24088     24089     24088     24090     24088     24091     24091     24092
     24091     24093     24091     24094     24094     24095     24094     24096
     24094     24097     24097     24098     24097     24099     24097     24100
     24100     24101     24100     24102     24100     24103     24012     24014
     24056     24057     24179     24180     24179     24181     24179     24182
     24179     24176     24176     24177     24176     24178     24176     24173
     24173     24174     24173     24175     24173     24170     24170     24171
     24170     24172     24170     24167     24167     24168     24167     24169
     24167     24164     24164     24165     24164     24166     24164     24161
     24161     24162     24161     24163     24161     24158     24158     24159
     24158     24160     24158     24155     24155     24156     24155     24157
     24155     24152     24152     24153     24152     24154     24152     24149
     24149     24150     24149     24151     24149     24146     24146     24147
     24146     24148     24146     24143     24143     24144     24143     24145
     24143     24141     24141     24142     24139     24140     24139     24135
     24135     24136     24135     24137     24137     24138     24135     24133
     24133     24134     24133     24128     24128     24129     24128     24130
     24128     24126     24126     24123     24127     24123     24124     24123
     24125     24123     24127     24120     24120     24121     24120     24122
     24120     24117     24117     24118     24117     24119     24117     24104
     24104     24113     24104     24109     24104     24105     24113     24114
     24113     24115     24113     24116     24109     24110     24109     24111
     24109     24112     24105     24106     24105     24107     24105     24108
     24133     24131     24131     24132     24131     24183     24183     24185
     24185     24186     24185     24187     24185     24188     24188     24189
     24188     24190     24188     24191     24191     24192     24191     24193
     24191     24194     24194     24195     24194     24196     24194     24197
     24197     24198     24197     24199     24197     24200     24200     24201
     24200     24202     24200     24203     24203     24204     24203     24205
     24203     24206     24206     24207     24206     24208     24206     24209
     24209     24210     24209     24211     24209     24212     24212     24213
     24212     24214     24212     24215     24215     24216     24215     24217
     24215     24218     24218     24219     24218     24220     24218     24221
     24221     24222     24221     24223     24221     24224     24224     24225
     24224     24226     24224     24227     24227     24228     24227     24229
     24227     24230     24139     24141     24183     24184      5846      5847
      5846      5848      5846      5849      5846      5850      5850      5851
      5850      5852      5850      5853      5853      5854      5853      5855
      5853      5860      5860      5856      5856      5859      5856      5857
      5856      5858      5861      5862      5861      5863      5861      5864
      5861      5859      5864      5865      5864      5872      5864      5866
      5872      5873      5872      5874      5872      5875      5866      5867
      5867      5869      5867      5868      5869      5870      5869      5871
      5869      5881      5881      5882      5881      5883      5881      5884
      5884      5885      5884      5886      5884      5887      5887      5888
      5887      5889      5887      5890      5890      5891      5890      5892
      5890      5893      5893      5894      5893      5895      5893      5896
      5896      5897      5896      5898      5896      5899      5899      5900
      5899      5901      5901      5902      5901      5903      5903      5904
      5903      5905      5903      5906      5906      5907      5906      5908
      5906      5909      5909      5910      5909      5911      5909      5912
      5912      5913      5912      5914      5912      5915      5915      5916
      5915      5917      5915      5918      5918      5919      5918      5920
      5918      5921      5921      5922      5921      5923      5921      5924
      5924      5925      5924      5926      5924      5927      5875      5876
      5876      5878      5876      5877      5878      5879      5878      5880
      5878      5928      5928      5929      5928      5930      5928      5931
      5931      5932      5931      5933      5931      5934      5934      5935
      5934      5936      5934      5937      5937      5938      5937      5939
      5937      5940      5940      5941      5940      5942      5940      5943
      5943      5944      5943      5945      5943      5946      5946      5947
      5946      5948      5946      5949      5949      5950      5949      5951
      5949      5952      5952      5953      5952      5954      5952      5955
      5955      5956      5955      5957      5955      5958      5958      5959
      5958      5960      5958      5961      5961      5962      5961      5963
      5961      5964      5964      5965      5964      5966      5964      5967
      5967      5968      5967      5969      5967      5970     18509     18513
     18509     18517     18509     18521     18513     18514     18513     18515
     18513     18516     18517     18518     18517     18519     18517     18520
     18521     18522     18521     18523     18521     18524     18509     18510
     18510     18511     18510     18512     18510     18525     18525     18526
     18525     18527     18525     18531     18532     18533     18531     18528
     18528     18532     18528     18529     18528     18530     18533     18534
     18533     18535     18533     18536     18536     18537     18536     18544
     18536     18538     18544     18545     18544     18546     18544     18547
     18538     18539     18539     18541     18539     18540     18541     18542
     18541     18543     18541     18553     18553     18554     18553     18555
     18553     18556     18556     18557     18556     18558     18556     18559
     18559     18560     18559     18561     18559     18562     18562     18563
     18562     18564     18562     18565     18565     18566     18565     18567
     18565     18568     18568     18569     18568     18570     18568     18571
     18571     18572     18571     18573     18573     18574     18573     18575
     18575     18576     18575     18577     18575     18578     18578     18579
     18578     18580     18578     18581     18581     18582     18581     18583
     18581     18584     18584     18585     18584     18586     18584     18587
     18587     18588     18587     18589     18587     18590     18590     18591
     18590     18592     18590     18593     18593     18594     18593     18595
     18593     18596     18596     18597     18596     18598     18596     18599
     18547     18548     18548     18550     18548     18549     18550     18551
     18550     18552     18550     18600     18600     18601     18600     18602
     18600     18603     18603     18604     18603     18605     18603     18606
     18606     18607     18606     18608     18606     18609     18609     18610
     18609     18611     18609     18612     18612     18613     18612     18614
     18612     18615     18615     18616     18615     18617     18615     18618
     18618     18619     18618     18620     18618     18621     18621     18622
     18621     18623     18621     18624     18624     18625     18624     18626
     18624     18627     18627     18628     18627     18629     18627     18630
     18630     18631     18630     18632     18630     18633     18633     18634
     18633     18635     18633     18636     18636     18637     18636     18638
     18636     18639     18639     18640     18639     18641     18639     18642
     22296     22297     22296     22292     22296     22276     22296     22301
     22276     22277     22276     22278     22278     22279     22276     22280
     22280     22281     22280     22282     22282     22283     22280     22284
     22284     22285     22284     22286     22286     22287     22284     22288
     22288     22289     22288     22292     22292     22293     22292     22294
     22294     22295     22288     22290     22290     22291     22301     22298
     22298     22302     22298     22299     22298     22300     22302     22303
     22303     22304     22303     22305     22303     22306     22306     22307
     22306     22314     22306     22308     22314     22315     22314     22316
     22314     22317     22308     22309     22309     22311     22309     22310
     22311     22312     22311     22313     22311     22323     22323     22324
     22323     22325     22323     22326     22326     22327     22326     22328
     22326     22329     22329     22330     22329     22331     22329     22332
     22332     22333     22332     22334     22332     22335     22335     22336
     22335     22337     22335     22338     22338     22339     22338     22340
     22338     22341     22341     22342     22341     22343     22343     22344
     22343     22345     22345     22346     22345     22347     22345     22348
     22348     22349     22348     22350     22348     22351     22351     22352
     22351     22353     22351     22354     22354     22355     22354     22356
     22354     22357     22357     22358     22357     22359     22357     22360
     22360     22361     22360     22362     22360     22363     22363     22364
     22363     22365     22363     22366     22366     22367     22366     22368
     22366     22369     22317     22318     22318     22320     22318     22319
     22320     22321     22320     22322     22320     22370     22370     22371
     22370     22372     22370     22373     22373     22374     22373     22375
     22373     22376     22376     22377     22376     22378     22376     22379
     22379     22380     22379     22381     22379     22382     22382     22383
     22382     22384     22382     22385     22385     22386     22385     22387
     22385     22388     22388     22389     22388     22390     22388     22391
     22391     22392     22391     22393     22391     22394     22394     22395
     22394     22396     22394     22397     22397     22398     22397     22399
     22397     22400     22400     22401     22400     22402     22400     22403
     22403     22404     22403     22405     22403     22406     22406     22407
     22406     22408     22406     22409     22409     22410     22409     22411
     22409     22412      1407      1409      1407      1408      1409      1410
      1407      1453      1453      1454      1453      1455      1453      1450
      1450      1451      1450      1452      1407      1411      1411      1412
      1411      1413      1411      1414      1414      1445      1445      1450
      1445      1446      1446      1447      1446      1448      1446      1449
      1414      1415      1415      1416      1415      1417      1417      1418
      1417      1419      1417      1420      1420      1421      1420      1443
      1443      1444      1443      1445      1420      1422      1422      1423
      1422      1432      1432      1437      1437      1438      1437      1439
      1437      1440      1440      1441      1440      1442      1440      1443
      1432      1433      1433      1434      1433      1435      1433      1436
      1422      1424      1424      1425      1424      1426      1424      1427
      1427      1428      1427      1429      1427      1430      1430      1431
      1430      1432      1430      1456      1456      1457      1456      1458
      1458      1459      1458      1460      1458      1461      1456      1462
      1462      1463      1462      1464      1462      1465      1465      1466
      1465      1467      1465      1468      1468      1469      1468      1470
      1468      1471      1471      1472      1471      1473      1473      1474
      1473      1475      1473      1476      1471      1477      1477      1478
      1477      1479      1477      1480     11646     11647     11646     11648
     11646     11649     11646     11650     11654     11652     11652     11650
     11652     11653     11650     11651     11650     11655     11663     11662
     11655     11656     11655     11657     11655     11661     11661     11658
     11658     11662     11658     11659     11658     11660     11663     11664
     11663     11665     11663     11666     11666     11667     11666     11674
     11666     11668     11674     11675     11674     11676     11674     11677
     11668     11669     11669     11671     11669     11670     11671     11672
     11671     11673     11671     11683     11683     11684     11683     11685
     11683     11686     11686     11687     11686     11688     11686     11689
     11689     11690     11689     11691     11689     11692     11692     11693
     11692     11694     11692     11695     11695     11696     11695     11697
     11695     11698     11698     11699     11698     11700     11698     11701
     11701     11702     11701     11703     11703     11704     11703     11705
     11705     11706     11705     11707     11705     11708     11708     11709
     11708     11710     11708     11711     11711     11712     11711     11713
     11711     11714     11714     11715     11714     11716     11714     11717
     11717     11718     11717     11719     11717     11720     11720     11721
     11720     11722     11720     11723     11723     11724     11723     11725
     11723     11726     11726     11727     11726     11728     11726     11729
     11677     11678     11678     11680     11678     11679     11680     11681
     11680     11682     11680     11730     11730     11731     11730     11732
     11730     11733     11733     11734     11733     11735     11733     11736
     11736     11737     11736     11738     11736     11739     11739     11740
     11739     11741     11739     11742     11742     11743     11742     11744
     11742     11745     11745     11746     11745     11747     11745     11748
     11748     11749     11748     11750     11748     11751     11751     11752
     11751     11753     11751     11754     11754     11755     11754     11756
     11754     11757     11757     11758     11757     11759     11757     11760
     11760     11761     11760     11762     11760     11763     11763     11764
     11763     11765     11763     11766     11766     11767     11766     11768
     11766     11769     11769     11770     11769     11771     11769     11772
      5971      5972      5971      5973      5971      5974      5971      5975
      5975      5976      5975      5977      5975      5978      5978      5979
      5978      5980      5978      5985      5985      5981      5981      5984
      5981      5982      5981      5983      5986      5987      5986      5988
      5986      5989      5986      5984      5989      5990      5989      5997
      5989      5991      5997      5998      5997      5999      5997      6000
      5991      5992      5992      5994      5992      5993      5994      5995
      5994      5996      5994      6006      6006      6007      6006      6008
      6006      6009      6009      6010      6009      6011      6009      6012
      6012      6013      6012      6014      6012      6015      6015      6016
      6015      6017      6015      6018      6018      6019      6018      6020
      6018      6021      6021      6022      6021      6023      6021      6024
      6024      6025      6024      6026      6026      6027      6026      6028
      6028      6029      6028      6030      6028      6031      6031      6032
      6031      6033      6031      6034      6034      6035      6034      6036
      6034      6037      6037      6038      6037      6039      6037      6040
      6040      6041      6040      6042      6040      6043      6043      6044
      6043      6045      6043      6046      6046      6047      6046      6048
      6046      6049      6049      6050      6049      6051      6049      6052
      6000      6001      6001      6003      6001      6002      6003      6004
      6003      6005      6003      6053      6053      6054      6053      6055
      6053      6056      6056      6057      6056      6058      6056      6059
      6059      6060      6059      6061      6059      6062      6062      6063
      6062      6064      6062      6065      6065      6066      6065      6067
      6065      6068      6068      6069      6068      6070      6068      6071
      6071      6072      6071      6073      6071      6074      6074      6075
      6074      6076      6074      6077      6077      6078      6077      6079
      6077      6080      6080      6081      6080      6082      6080      6083
      6083      6084      6083      6085      6083      6086      6086      6087
      6086      6088      6086      6089      6089      6090      6089      6091
      6089      6092      6092      6093      6092      6094      6092      6095
     18643     18647     18643     18651     18643     18655     18647     18648
     18647     18649     18647     18650     18651     18652     18651     18653
     18651     18654     18655     18656     18655     18657     18655     18658
     18643     18644     18644     18645     18644     18646     18644     18659
     18659     18660     18659     18661     18659     18665     18666     18667
     18665     18662     18662     18666     18662     18663     18662     18664
     18667     18668     18667     18669     18667     18670     18670     18671
     18670     18678     18670     18672     18678     18679     18678     18680
     18678     18681     18672     18673     18673     18675     18673     18674
     18675     18676     18675     18677     18675     18687     18687     18688
     18687     18689     18687     18690     18690     18691     18690     18692
     18690     18693     18693     18694     18693     18695     18693     18696
     18696     18697     18696     18698     18696     18699     18699     18700
     18699     18701     18699     18702     18702     18703     18702     18704
     18702     18705     18705     18706     18705     18707     18707     18708
     18707     18709     18709     18710     18709     18711     18709     18712
     18712     18713     18712     18714     18712     18715     18715     18716
     18715     18717     18715     18718     18718     18719     18718     18720
     18718     18721     18721     18722     18721     18723     18721     18724
     18724     18725     18724     18726     18724     18727     18727     18728
     18727     18729     18727     18730     18730     18731     18730     18732
     18730     18733     18681     18682     18682     18684     18682     18683
     18684     18685     18684     18686     18684     18734     18734     18735
     18734     18736     18734     18737     18737     18738     18737     18739
     18737     18740     18740     18741     18740     18742     18740     18743
     18743     18744     18743     18745     18743     18746     18746     18747
     18746     18748     18746     18749     18749     18750     18749     18751
     18749     18752     18752     18753     18752     18754     18752     18755
     18755     18756     18755     18757     18755     18758     18758     18759
     18758     18760     18758     18761     18761     18762     18761     18763
     18761     18764     18764     18765     18764     18766     18764     18767
     18767     18768     18767     18769     18767     18770     18770     18771
     18770     18772     18770     18773     18773     18774     18773     18775
     18773     18776     18777     18781     18777     18785     18777     18789
     18781     18782     18781     18783     18781     18784     18785     18786
     18785     18787     18785     18788     18789     18790     18789     18791
     18789     18792     18777     18778     18778     18779     18778     18780
     18778     18793     18793     18794     18793     18795     18793     18799
     18800     18801     18799     18796     18796     18800     18796     18797
     18796     18798     18801     18802     18801     18803     18801     18804
     18804     18805     18804     18812     18804     18806     18812     18813
     18812     18814     18812     18815     18806     18807     18807     18809
     18807     18808     18809     18810     18809     18811     18809     18821
     18821     18822     18821     18823     18821     18824     18824     18825
     18824     18826     18824     18827     18827     18828     18827     18829
     18827     18830     18830     18831     18830     18832     18830     18833
     18833     18834     18833     18835     18833     18836     18836     18837
     18836     18838     18836     18839     18839     18840     18839     18841
     18841     18842     18841     18843     18843     18844     18843     18845
     18843     18846     18846     18847     18846     18848     18846     18849
     18849     18850     18849     18851     18849     18852     18852     18853
     18852     18854     18852     18855     18855     18856     18855     18857
     18855     18858     18858     18859     18858     18860     18858     18861
     18861     18862     18861     18863     18861     18864     18864     18865
     18864     18866     18864     18867     18815     18816     18816     18818
     18816     18817     18818     18819     18818     18820     18818     18868
     18868     18869     18868     18870     18868     18871     18871     18872
     18871     18873     18871     18874     18874     18875     18874     18876
     18874     18877     18877     18878     18877     18879     18877     18880
     18880     18881     18880     18882     18880     18883     18883     18884
     18883     18885     18883     18886     18886     18887     18886     18888
     18886     18889     18889     18890     18889     18891     18889     18892
     18892     18893     18892     18894     18892     18895     18895     18896
     18895     18897     18895     18898     18898     18899     18898     18900
     18898     18901     18901     18902     18901     18903     18901     18904
     18904     18905     18904     18906     18904     18907     18907     18908
     18907     18909     18907     18910      6096      6097      6096      6098
      6096      6099      6096      6100      6100      6101      6100      6102
      6100      6103      6103      6104      6103      6105      6103      6110
      6110      6106      6106      6109      6106      6107      6106      6108
      6111      6112      6111      6113      6111      6114      6111      6109
      6114      6115      6114      6122      6114      6116      6122      6123
      6122      6124      6122      6125      6116      6117      6117      6119
      6117      6118      6119      6120      6119      6121      6119      6131
      6131      6132      6131      6133      6131      6134      6134      6135
      6134      6136      6134      6137      6137      6138      6137      6139
      6137      6140      6140      6141      6140      6142      6140      6143
      6143      6144      6143      6145      6143      6146      6146      6147
      6146      6148      6146      6149      6149      6150      6149      6151
      6151      6152      6151      6153      6153      6154      6153      6155
      6153      6156      6156      6157      6156      6158      6156      6159
      6159      6160      6159      6161      6159      6162      6162      6163
      6162      6164      6162      6165      6165      6166      6165      6167
      6165      6168      6168      6169      6168      6170      6168      6171
      6171      6172      6171      6173      6171      6174      6174      6175
      6174      6176      6174      6177      6125      6126      6126      6128
      6126      6127      6128      6129      6128      6130      6128      6178
      6178      6179      6178      6180      6178      6181      6181      6182
      6181      6183      6181      6184      6184      6185      6184      6186
      6184      6187      6187      6188      6187      6189      6187      6190
      6190      6191      6190      6192      6190      6193      6193      6194
      6193      6195      6193      6196      6196      6197      6196      6198
      6196      6199      6199      6200      6199      6201      6199      6202
      6202      6203      6202      6204      6202      6205      6205      6206
      6205      6207      6205      6208      6208      6209      6208      6210
      6208      6211      6211      6212      6211      6213      6211      6214
      6214      6215      6214      6216      6214      6217      6217      6218
      6217      6219      6217      6220      1481      1483      1481      1482
      1483      1484      1481      1527      1527      1528      1527      1529
      1527      1524      1524      1525      1524      1526      1481      1485
      1485      1486      1485      1487      1485      1488      1488      1519
      1519      1524      1519      1520      1520      1521      1520      1522
      1520      1523      1488      1489      1489      1490      1489      1491
      1491      1492      1491      1493      1491      1494      1494      1495
      1494      1517      1517      1518      1517      1519      1494      1496
      1496      1497      1496      1506      1506      1511      1511      1512
      1511      1513      1511      1514      1514      1515      1514      1516
      1514      1517      1506      1507      1507      1508      1507      1509
      1507      1510      1496      1498      1498      1499      1498      1500
      1498      1501      1501      1502      1501      1503      1501      1504
      1504      1505      1504      1506      1504      1530      1530      1531
      1530      1532      1532      1533      1532      1534      1532      1535
      1530      1536      1536      1537      1536      1538      1536      1539
      1539      1540      1539      1541      1539      1542      1542      1543
      1542      1544      1542      1545      1545      1546      1545      1547
      1547      1548      1547      1549      1547      1550      1545      1551
      1551      1552      1551      1553      1551      1554     18911     18915
     18911     18919     18911     18923     18915     18916     18915     18917
     18915     18918     18919     18920     18919     18921     18919     18922
     18923     18924     18923     18925     18923     18926     18911     18912
     18912     18913     18912     18914     18912     18927     18927     18928
     18927     18929     18927     18933     18934     18935     18933     18930
     18930     18934     18930     18931     18930     18932     18935     18936
     18935     18937     18935     18938     18938     18939     18938     18946
     18938     18940     18946     18947     18946     18948     18946     18949
     18940     18941     18941     18943     18941     18942     18943     18944
     18943     18945     18943     18955     18955     18956     18955     18957
     18955     18958     18958     18959     18958     18960     18958     18961
     18961     18962     18961     18963     18961     18964     18964     18965
     18964     18966     18964     18967     18967     18968     18967     18969
     18967     18970     18970     18971     18970     18972     18970     18973
     18973     18974     18973     18975     18975     18976     18975     18977
     18977     18978     18977     18979     18977     18980     18980     18981
     18980     18982     18980     18983     18983     18984     18983     18985
     18983     18986     18986     18987     18986     18988     18986     18989
     18989     18990     18989     18991     18989     18992     18992     18993
     18992     18994     18992     18995     18995     18996     18995     18997
     18995     18998     18998     18999     18998     19000     18998     19001
     18949     18950     18950     18952     18950     18951     18952     18953
     18952     18954     18952     19002     19002     19003     19002     19004
     19002     19005     19005     19006     19005     19007     19005     19008
     19008     19009     19008     19010     19008     19011     19011     19012
     19011     19013     19011     19014     19014     19015     19014     19016
     19014     19017     19017     19018     19017     19019     19017     19020
     19020     19021     19020     19022     19020     19023     19023     19024
     19023     19025     19023     19026     19026     19027     19026     19028
     19026     19029     19029     19030     19029     19031     19029     19032
     19032     19033     19032     19034     19032     19035     19035     19036
     19035     19037     19035     19038     19038     19039     19038     19040
     19038     19041     19041     19042     19041     19043     19041     19044
     22433     22434     22433     22429     22433     22413     22433     22438
     22413     22414     22413     22415     22415     22416     22413     22417
     22417     22418     22417     22419     22419     22420     22417     22421
     22421     22422     22421     22423     22423     22424     22421     22425
     22425     22426     22425     22429     22429     22430     22429     22431
     22431     22432     22425     22427     22427     22428     22438     22435
     22435     22439     22435     22436     22435     22437     22439     22440
     22440     22441     22440     22442     22440     22443     22443     22444
     22443     22451     22443     22445     22451     22452     22451     22453
     22451     22454     22445     22446     22446     22448     22446     22447
     22448     22449     22448     22450     22448     22460     22460     22461
     22460     22462     22460     22463     22463     22464     22463     22465
     22463     22466     22466     22467     22466     22468     22466     22469
     22469     22470     22469     22471     22469     22472     22472     22473
     22472     22474     22472     22475     22475     22476     22475     22477
     22475     22478     22478     22479     22478     22480     22480     22481
     22480     22482     22482     22483     22482     22484     22482     22485
     22485     22486     22485     22487     22485     22488     22488     22489
     22488     22490     22488     22491     22491     22492     22491     22493
     22491     22494     22494     22495     22494     22496     22494     22497
     22497     22498     22497     22499     22497     22500     22500     22501
     22500     22502     22500     22503     22503     22504     22503     22505
     22503     22506     22454     22455     22455     22457     22455     22456
     22457     22458     22457     22459     22457     22507     22507     22508
     22507     22509     22507     22510     22510     22511     22510     22512
     22510     22513     22513     22514     22513     22515     22513     22516
     22516     22517     22516     22518     22516     22519     22519     22520
     22519     22521     22519     22522     22522     22523     22522     22524
     22522     22525     22525     22526     22525     22527     22525     22528
     22528     22529     22528     22530     22528     22531     22531     22532
     22531     22533     22531     22534     22534     22535     22534     22536
     22534     22537     22537     22538     22537     22539     22537     22540
     22540     22541     22540     22542     22540     22543     22543     22544
     22543     22545     22543     22546     22546     22547     22546     22548
     22546     22549     22570     22571     22570     22566     22570     22550
     22570     22575     22550     22551     22550     22552     22552     22553
     22550     22554     22554     22555     22554     22556     22556     22557
     22554     22558     22558     22559     22558     22560     22560     22561
     22558     22562     22562     22563     22562     22566     22566     22567
     22566     22568     22568     22569     22562     22564     22564     22565
     22575     22572     22572     22576     22572     22573     22572     22574
     22576     22577     22577     22578     22577     22579     22577     22580
     22580     22581     22580     22588     22580     22582     22588     22589
     22588     22590     22588     22591     22582     22583     22583     22585
     22583     22584     22585     22586     22585     22587     22585     22597
     22597     22598     22597     22599     22597     22600     22600     22601
     22600     22602     22600     22603     22603     22604     22603     22605
     22603     22606     22606     22607     22606     22608     22606     22609
     22609     22610     22609     22611     22609     22612     22612     22613
     22612     22614     22612     22615     22615     22616     22615     22617
     22617     22618     22617     22619     22619     22620     22619     22621
     22619     22622     22622     22623     22622     22624     22622     22625
     22625     22626     22625     22627     22625     22628     22628     22629
     22628     22630     22628     22631     22631     22632     22631     22633
     22631     22634     22634     22635     22634     22636     22634     22637
     22637     22638     22637     22639     22637     22640     22640     22641
     22640     22642     22640     22643     22591     22592     22592     22594
     22592     22593     22594     22595     22594     22596     22594     22644
     22644     22645     22644     22646     22644     22647     22647     22648
     22647     22649     22647     22650     22650     22651     22650     22652
     22650     22653     22653     22654     22653     22655     22653     22656
     22656     22657     22656     22658     22656     22659     22659     22660
     22659     22661     22659     22662     22662     22663     22662     22664
     22662     22665     22665     22666     22665     22667     22665     22668
     22668     22669     22668     22670     22668     22671     22671     22672
     22671     22673     22671     22674     22674     22675     22674     22676
     22674     22677     22677     22678     22677     22679     22677     22680
     22680     22681     22680     22682     22680     22683     22683     22684
     22683     22685     22683     22686      1555      1557      1555      1556
      1557      1558      1555      1601      1601      1602      1601      1603
      1601      1598      1598      1599      1598      1600      1555      1559
      1559      1560      1559      1561      1559      1562      1562      1593
      1593      1598      1593      1594      1594      1595      1594      1596
      1594      1597      1562      1563      1563      1564      1563      1565
      1565      1566      1565      1567      1565      1568      1568      1569
      1568      1591      1591      1592      1591      1593      1568      1570
      1570      1571      1570      1580      1580      1585      1585      1586
      1585      1587      1585      1588      1588      1589      1588      1590
      1588      1591      1580      1581      1581      1582      1581      1583
      1581      1584      1570      1572      1572      1573      1572      1574
      1572      1575      1575      1576      1575      1577      1575      1578
      1578      1579      1578      1580      1578      1604      1604      1605
      1604      1606      1606      1607      1606      1608      1606      1609
      1604      1610      1610      1611      1610      1612      1610      1613
      1613      1614      1613      1615      1613      1616      1616      1617
      1616      1618      1616      1619      1619      1620      1619      1621
      1621      1622      1621      1623      1621      1624      1619      1625
      1625      1626      1625      1627      1625      1628     19045     19049
     19045     19053     19045     19057     19049     19050     19049     19051
     19049     19052     19053     19054     19053     19055     19053     19056
     19057     19058     19057     19059     19057     19060     19045     19046
     19046     19047     19046     19048     19046     19061     19061     19062
     19061     19063     19061     19067     19068     19069     19067     19064
     19064     19068     19064     19065     19064     19066     19069     19070
     19069     19071     19069     19072     19072     19073     19072     19080
     19072     19074     19080     19081     19080     19082     19080     19083
     19074     19075     19075     19077     19075     19076     19077     19078
     19077     19079     19077     19089     19089     19090     19089     19091
     19089     19092     19092     19093     19092     19094     19092     19095
     19095     19096     19095     19097     19095     19098     19098     19099
     19098     19100     19098     19101     19101     19102     19101     19103
     19101     19104     19104     19105     19104     19106     19104     19107
     19107     19108     19107     19109     19109     19110     19109     19111
     19111     19112     19111     19113     19111     19114     19114     19115
     19114     19116     19114     19117     19117     19118     19117     19119
     19117     19120     19120     19121     19120     19122     19120     19123
     19123     19124     19123     19125     19123     19126     19126     19127
     19126     19128     19126     19129     19129     19130     19129     19131
     19129     19132     19132     19133     19132     19134     19132     19135
     19083     19084     19084     19086     19084     19085     19086     19087
     19086     19088     19086     19136     19136     19137     19136     19138
     19136     19139     19139     19140     19139     19141     19139     19142
     19142     19143     19142     19144     19142     19145     19145     19146
     19145     19147     19145     19148     19148     19149     19148     19150
     19148     19151     19151     19152     19151     19153     19151     19154
     19154     19155     19154     19156     19154     19157     19157     19158
     19157     19159     19157     19160     19160     19161     19160     19162
     19160     19163     19163     19164     19163     19165     19163     19166
     19166     19167     19166     19168     19166     19169     19169     19170
     19169     19171     19169     19172     19172     19173     19172     19174
     19172     19175     19175     19176     19175     19177     19175     19178
      6221      6222      6221      6223      6221      6224      6221      6225
      6225      6226      6225      6227      6225      6228      6228      6229
      6228      6230      6228      6235      6235      6231      6231      6234
      6231      6232      6231      6233      6236      6237      6236      6238
      6236      6239      6236      6234      6239      6240      6239      6247
      6239      6241      6247      6248      6247      6249      6247      6250
      6241      6242      6242      6244      6242      6243      6244      6245
      6244      6246      6244      6256      6256      6257      6256      6258
      6256      6259      6259      6260      6259      6261      6259      6262
      6262      6263      6262      6264      6262      6265      6265      6266
      6265      6267      6265      6268      6268      6269      6268      6270
      6268      6271      6271      6272      6271      6273      6271      6274
      6274      6275      6274      6276      6276      6277      6276      6278
      6278      6279      6278      6280      6278      6281      6281      6282
      6281      6283      6281      6284      6284      6285      6284      6286
      6284      6287      6287      6288      6287      6289      6287      6290
      6290      6291      6290      6292      6290      6293      6293      6294
      6293      6295      6293      6296      6296      6297      6296      6298
      6296      6299      6299      6300      6299      6301      6299      6302
      6250      6251      6251      6253      6251      6252      6253      6254
      6253      6255      6253      6303      6303      6304      6303      6305
      6303      6306      6306      6307      6306      6308      6306      6309
      6309      6310      6309      6311      6309      6312      6312      6313
      6312      6314      6312      6315      6315      6316      6315      6317
      6315      6318      6318      6319      6318      6320      6318      6321
      6321      6322      6321      6323      6321      6324      6324      6325
      6324      6326      6324      6327      6327      6328      6327      6329
      6327      6330      6330      6331      6330      6332      6330      6333
      6333      6334      6333      6335      6333      6336      6336      6337
      6336      6338      6336      6339      6339      6340      6339      6341
      6339      6342      6342      6343      6342      6344      6342      6345
      1629      1631      1629      1630      1631      1632      1629      1675
      1675      1676      1675      1677      1675      1672      1672      1673
      1672      1674      1629      1633      1633      1634      1633      1635
      1633      1636      1636      1667      1667      1672      1667      1668
      1668      1669      1668      1670      1668      1671      1636      1637
      1637      1638      1637      1639      1639      1640      1639      1641
      1639      1642      1642      1643      1642      1665      1665      1666
      1665      1667      1642      1644      1644      1645      1644      1654
      1654      1659      1659      1660      1659      1661      1659      1662
      1662      1663      1662      1664      1662      1665      1654      1655
      1655      1656      1655      1657      1655      1658      1644      1646
      1646      1647      1646      1648      1646      1649      1649      1650
      1649      1651      1649      1652      1652      1653      1652      1654
      1652      1678      1678      1679      1678      1680      1680      1681
      1680      1682      1680      1683      1678      1684      1684      1685
      1684      1686      1684      1687      1687      1688      1687      1689
      1687      1690      1690      1691      1690      1692      1690      1693
      1693      1694      1693      1695      1695      1696      1695      1697
      1695      1698      1693      1699      1699      1700      1699      1701
      1699      1702      6346      6347      6346      6348      6346      6349
      6346      6350      6350      6351      6350      6352      6350      6353
      6353      6354      6353      6355      6353      6360      6360      6356
      6356      6359      6356      6357      6356      6358      6361      6362
      6361      6363      6361      6364      6361      6359      6364      6365
      6364      6372      6364      6366      6372      6373      6372      6374
      6372      6375      6366      6367      6367      6369      6367      6368
      6369      6370      6369      6371      6369      6381      6381      6382
      6381      6383      6381      6384      6384      6385      6384      6386
      6384      6387      6387      6388      6387      6389      6387      6390
      6390      6391      6390      6392      6390      6393      6393      6394
      6393      6395      6393      6396      6396      6397      6396      6398
      6396      6399      6399      6400      6399      6401      6401      6402
      6401      6403      6403      6404      6403      6405      6403      6406
      6406      6407      6406      6408      6406      6409      6409      6410
      6409      6411      6409      6412      6412      6413      6412      6414
      6412      6415      6415      6416      6415      6417      6415      6418
      6418      6419      6418      6420      6418      6421      6421      6422
      6421      6423      6421      6424      6424      6425      6424      6426
      6424      6427      6375      6376      6376      6378      6376      6377
      6378      6379      6378      6380      6378      6428      6428      6429
      6428      6430      6428      6431      6431      6432      6431      6433
      6431      6434      6434      6435      6434      6436      6434      6437
      6437      6438      6437      6439      6437      6440      6440      6441
      6440      6442      6440      6443      6443      6444      6443      6445
      6443      6446      6446      6447      6446      6448      6446      6449
      6449      6450      6449      6451      6449      6452      6452      6453
      6452      6454      6452      6455      6455      6456      6455      6457
      6455      6458      6458      6459      6458      6460      6458      6461
      6461      6462      6461      6463      6461      6464      6464      6465
      6464      6466      6464      6467      6467      6468      6467      6469
      6467      6470      6471      6472      6471      6473      6471      6474
      6471      6475      6475      6476      6475      6477      6475      6478
      6478      6479      6478      6480      6478      6485      6485      6481
      6481      6484      6481      6482      6481      6483      6486      6487
      6486      6488      6486      6489      6486      6484      6489      6490
      6489      6497      6489      6491      6497      6498      6497      6499
      6497      6500      6491      6492      6492      6494      6492      6493
      6494      6495      6494      6496      6494      6506      6506      6507
      6506      6508      6506      6509      6509      6510      6509      6511
      6509      6512      6512      6513      6512      6514      6512      6515
      6515      6516      6515      6517      6515      6518      6518      6519
      6518      6520      6518      6521      6521      6522      6521      6523
      6521      6524      6524      6525      6524      6526      6526      6527
      6526      6528      6528      6529      6528      6530      6528      6531
      6531      6532      6531      6533      6531      6534      6534      6535
      6534      6536      6534      6537      6537      6538      6537      6539
      6537      6540      6540      6541      6540      6542      6540      6543
      6543      6544      6543      6545      6543      6546      6546      6547
      6546      6548      6546      6549      6549      6550      6549      6551
      6549      6552      6500      6501      6501      6503      6501      6502
      6503      6504      6503      6505      6503      6553      6553      6554
      6553      6555      6553      6556      6556      6557      6556      6558
      6556      6559      6559      6560      6559      6561      6559      6562
      6562      6563      6562      6564      6562      6565      6565      6566
      6565      6567      6565      6568      6568      6569      6568      6570
      6568      6571      6571      6572      6571      6573      6571      6574
      6574      6575      6574      6576      6574      6577      6577      6578
      6577      6579      6577      6580      6580      6581      6580      6582
      6580      6583      6583      6584      6583      6585      6583      6586
      6586      6587      6586      6588      6586      6589      6589      6590
      6589      6591      6589      6592      6592      6593      6592      6594
      6592      6595     11773     11774     11773     11775     11773     11776
     11773     11777     11781     11779     11779     11777     11779     11780
     11777     11778     11777     11782     11790     11789     11782     11783
     11782     11784     11782     11788     11788     11785     11785     11789
     11785     11786     11785     11787     11790     11791     11790     11792
     11790     11793     11793     11794     11793     11801     11793     11795
     11801     11802     11801     11803     11801     11804     11795     11796
     11796     11798     11796     11797     11798     11799     11798     11800
     11798     11810     11810     11811     11810     11812     11810     11813
     11813     11814     11813     11815     11813     11816     11816     11817
     11816     11818     11816     11819     11819     11820     11819     11821
     11819     11822     11822     11823     11822     11824     11822     11825
     11825     11826     11825     11827     11825     11828     11828     11829
     11828     11830     11830     11831     11830     11832     11832     11833
     11832     11834     11832     11835     11835     11836     11835     11837
     11835     11838     11838     11839     11838     11840     11838     11841
     11841     11842     11841     11843     11841     11844     11844     11845
     11844     11846     11844     11847     11847     11848     11847     11849
     11847     11850     11850     11851     11850     11852     11850     11853
     11853     11854     11853     11855     11853     11856     11804     11805
     11805     11807     11805     11806     11807     11808     11807     11809
     11807     11857     11857     11858     11857     11859     11857     11860
     11860     11861     11860     11862     11860     11863     11863     11864
     11863     11865     11863     11866     11866     11867     11866     11868
     11866     11869     11869     11870     11869     11871     11869     11872
     11872     11873     11872     11874     11872     11875     11875     11876
     11875     11877     11875     11878     11878     11879     11878     11880
     11878     11881     11881     11882     11881     11883     11881     11884
     11884     11885     11884     11886     11884     11887     11887     11888
     11887     11889     11887     11890     11890     11891     11890     11892
     11890     11893     11893     11894     11893     11895     11893     11896
     11896     11897     11896     11898     11896     11899     19179     19183
     19179     19187     19179     19191     19183     19184     19183     19185
     19183     19186     19187     19188     19187     19189     19187     19190
     19191     19192     19191     19193     19191     19194     19179     19180
     19180     19181     19180     19182     19180     19195     19195     19196
     19195     19197     19195     19201     19202     19203     19201     19198
     19198     19202     19198     19199     19198     19200     19203     19204
     19203     19205     19203     19206     19206     19207     19206     19214
     19206     19208     19214     19215     19214     19216     19214     19217
     19208     19209     19209     19211     19209     19210     19211     19212
     19211     19213     19211     19223     19223     19224     19223     19225
     19223     19226     19226     19227     19226     19228     19226     19229
     19229     19230     19229     19231     19229     19232     19232     19233
     19232     19234     19232     19235     19235     19236     19235     19237
     19235     19238     19238     19239     19238     19240     19238     19241
     19241     19242     19241     19243     19243     19244     19243     19245
     19245     19246     19245     19247     19245     19248     19248     19249
     19248     19250     19248     19251     19251     19252     19251     19253
     19251     19254     19254     19255     19254     19256     19254     19257
     19257     19258     19257     19259     19257     19260     19260     19261
     19260     19262     19260     19263     19263     19264     19263     19265
     19263     19266     19266     19267     19266     19268     19266     19269
     19217     19218     19218     19220     19218     19219     19220     19221
     19220     19222     19220     19270     19270     19271     19270     19272
     19270     19273     19273     19274     19273     19275     19273     19276
     19276     19277     19276     19278     19276     19279     19279     19280
     19279     19281     19279     19282     19282     19283     19282     19284
     19282     19285     19285     19286     19285     19287     19285     19288
     19288     19289     19288     19290     19288     19291     19291     19292
     19291     19293     19291     19294     19294     19295     19294     19296
     19294     19297     19297     19298     19297     19299     19297     19300
     19300     19301     19300     19302     19300     19303     19303     19304
     19303     19305     19303     19306     19306     19307     19306     19308
     19306     19309     19309     19310     19309     19311     19309     19312
     11900     11901     11900     11902     11900     11903     11900     11904
     11908     11906     11906     11904     11906     11907     11904     11905
     11904     11909     11917     11916     11909     11910     11909     11911
     11909     11915     11915     11912     11912     11916     11912     11913
     11912     11914     11917     11918     11917     11919     11917     11920
     11920     11921     11920     11928     11920     11922     11928     11929
     11928     11930     11928     11931     11922     11923     11923     11925
     11923     11924     11925     11926     11925     11927     11925     11937
     11937     11938     11937     11939     11937     11940     11940     11941
     11940     11942     11940     11943     11943     11944     11943     11945
     11943     11946     11946     11947     11946     11948     11946     11949
     11949     11950     11949     11951     11949     11952     11952     11953
     11952     11954     11952     11955     11955     11956     11955     11957
     11957     11958     11957     11959     11959     11960     11959     11961
     11959     11962     11962     11963     11962     11964     11962     11965
     11965     11966     11965     11967     11965     11968     11968     11969
     11968     11970     11968     11971     11971     11972     11971     11973
     11971     11974     11974     11975     11974     11976     11974     11977
     11977     11978     11977     11979     11977     11980     11980     11981
     11980     11982     11980     11983     11931     11932     11932     11934
     11932     11933     11934     11935     11934     11936     11934     11984
     11984     11985     11984     11986     11984     11987     11987     11988
     11987     11989     11987     11990     11990     11991     11990     11992
     11990     11993     11993     11994     11993     11995     11993     11996
     11996     11997     11996     11998     11996     11999     11999     12000
     11999     12001     11999     12002     12002     12003     12002     12004
     12002     12005     12005     12006     12005     12007     12005     12008
     12008     12009     12008     12010     12008     12011     12011     12012
     12011     12013     12011     12014     12014     12015     12014     12016
     12014     12017     12017     12018     12017     12019     12017     12020
     12020     12021     12020     12022     12020     12023     12023     12024
     12023     12025     12023     12026      1703      1705      1703      1704
      1705      1706      1703      1749      1749      1750      1749      1751
      1749      1746      1746      1747      1746      1748      1703      1707
      1707      1708      1707      1709      1707      1710      1710      1741
      1741      1746      1741      1742      1742      1743      1742      1744
      1742      1745      1710      1711      1711      1712      1711      1713
      1713      1714      1713      1715      1713      1716      1716      1717
      1716      1739      1739      1740      1739      1741      1716      1718
      1718      1719      1718      1728      1728      1733      1733      1734
      1733      1735      1733      1736      1736      1737      1736      1738
      1736      1739      1728      1729      1729      1730      1729      1731
      1729      1732      1718      1720      1720      1721      1720      1722
      1720      1723      1723      1724      1723      1725      1723      1726
      1726      1727      1726      1728      1726      1752      1752      1753
      1752      1754      1754      1755      1754      1756      1754      1757
      1752      1758      1758      1759      1758      1760      1758      1761
      1761      1762      1761      1763      1761      1764      1764      1765
      1764      1766      1764      1767      1767      1768      1767      1769
      1769      1770      1769      1771      1769      1772      1767      1773
      1773      1774      1773      1775      1773      1776      6596      6597
      6596      6598      6596      6599      6596      6600      6600      6601
      6600      6602      6600      6603      6603      6604      6603      6605
      6603      6610      6610      6606      6606      6609      6606      6607
      6606      6608      6611      6612      6611      6613      6611      6614
      6611      6609      6614      6615      6614      6622      6614      6616
      6622      6623      6622      6624      6622      6625      6616      6617
      6617      6619      6617      6618      6619      6620      6619      6621
      6619      6631      6631      6632      6631      6633      6631      6634
      6634      6635      6634      6636      6634      6637      6637      6638
      6637      6639      6637      6640      6640      6641      6640      6642
      6640      6643      6643      6644      6643      6645      6643      6646
      6646      6647      6646      6648      6646      6649      6649      6650
      6649      6651      6651      6652      6651      6653      6653      6654
      6653      6655      6653      6656      6656      6657      6656      6658
      6656      6659      6659      6660      6659      6661      6659      6662
      6662      6663      6662      6664      6662      6665      6665      6666
      6665      6667      6665      6668      6668      6669      6668      6670
      6668      6671      6671      6672      6671      6673      6671      6674
      6674      6675      6674      6676      6674      6677      6625      6626
      6626      6628      6626      6627      6628      6629      6628      6630
      6628      6678      6678      6679      6678      6680      6678      6681
      6681      6682      6681      6683      6681      6684      6684      6685
      6684      6686      6684      6687      6687      6688      6687      6689
      6687      6690      6690      6691      6690      6692      6690      6693
      6693      6694      6693      6695      6693      6696      6696      6697
      6696      6698      6696      6699      6699      6700      6699      6701
      6699      6702      6702      6703      6702      6704      6702      6705
      6705      6706      6705      6707      6705      6708      6708      6709
      6708      6710      6708      6711      6711      6712      6711      6713
      6711      6714      6714      6715      6714      6716      6714      6717
      6717      6718      6717      6719      6717      6720      1777      1779
      1777      1778      1779      1780      1777      1823      1823      1824
      1823      1825      1823      1820      1820      1821      1820      1822
      1777      1781      1781      1782      1781      1783      1781      1784
      1784      1815      1815      1820      1815      1816      1816      1817
      1816      1818      1816      1819      1784      1785      1785      1786
      1785      1787      1787      1788      1787      1789      1787      1790
      1790      1791      1790      1813      1813      1814      1813      1815
      1790      1792      1792      1793      1792      1802      1802      1807
      1807      1808      1807      1809      1807      1810      1810      1811
      1810      1812      1810      1813      1802      1803      1803      1804
      1803      1805      1803      1806      1792      1794      1794      1795
      1794      1796      1794      1797      1797      1798      1797      1799
      1797      1800      1800      1801      1800      1802      1800      1826
      1826      1827      1826      1828      1828      1829      1828      1830
      1828      1831      1826      1832      1832      1833      1832      1834
      1832      1835      1835      1836      1835      1837      1835      1838
      1838      1839      1838      1840      1838      1841      1841      1842
      1841      1843      1843      1844      1843      1845      1843      1846
      1841      1847      1847      1848      1847      1849      1847      1850
     19313     19317     19313     19321     19313     19325     19317     19318
     19317     19319     19317     19320     19321     19322     19321     19323
     19321     19324     19325     19326     19325     19327     19325     19328
     19313     19314     19314     19315     19314     19316     19314     19329
     19329     19330     19329     19331     19329     19335     19336     19337
     19335     19332     19332     19336     19332     19333     19332     19334
     19337     19338     19337     19339     19337     19340     19340     19341
     19340     19348     19340     19342     19348     19349     19348     19350
     19348     19351     19342     19343     19343     19345     19343     19344
     19345     19346     19345     19347     19345     19357     19357     19358
     19357     19359     19357     19360     19360     19361     19360     19362
     19360     19363     19363     19364     19363     19365     19363     19366
     19366     19367     19366     19368     19366     19369     19369     19370
     19369     19371     19369     19372     19372     19373     19372     19374
     19372     19375     19375     19376     19375     19377     19377     19378
     19377     19379     19379     19380     19379     19381     19379     19382
     19382     19383     19382     19384     19382     19385     19385     19386
     19385     19387     19385     19388     19388     19389     19388     19390
     19388     19391     19391     19392     19391     19393     19391     19394
     19394     19395     19394     19396     19394     19397     19397     19398
     19397     19399     19397     19400     19400     19401     19400     19402
     19400     19403     19351     19352     19352     19354     19352     19353
     19354     19355     19354     19356     19354     19404     19404     19405
     19404     19406     19404     19407     19407     19408     19407     19409
     19407     19410     19410     19411     19410     19412     19410     19413
     19413     19414     19413     19415     19413     19416     19416     19417
     19416     19418     19416     19419     19419     19420     19419     19421
     19419     19422     19422     19423     19422     19424     19422     19425
     19425     19426     19425     19427     19425     19428     19428     19429
     19428     19430     19428     19431     19431     19432     19431     19433
     19431     19434     19434     19435     19434     19436     19434     19437
     19437     19438     19437     19439     19437     19440     19440     19441
     19440     19442     19440     19443     19443     19444     19443     19445
     19443     19446      1851      1853      1851      1852      1853      1854
      1851      1897      1897      1898      1897      1899      1897      1894
      1894      1895      1894      1896      1851      1855      1855      1856
      1855      1857      1855      1858      1858      1889      1889      1894
      1889      1890      1890      1891      1890      1892      1890      1893
      1858      1859      1859      1860      1859      1861      1861      1862
      1861      1863      1861      1864      1864      1865      1864      1887
      1887      1888      1887      1889      1864      1866      1866      1867
      1866      1876      1876      1881      1881      1882      1881      1883
      1881      1884      1884      1885      1884      1886      1884      1887
      1876      1877      1877      1878      1877      1879      1877      1880
      1866      1868      1868      1869      1868      1870      1868      1871
      1871      1872      1871      1873      1871      1874      1874      1875
      1874      1876      1874      1900      1900      1901      1900      1902
      1902      1903      1902      1904      1902      1905      1900      1906
      1906      1907      1906      1908      1906      1909      1909      1910
      1909      1911      1909      1912      1912      1913      1912      1914
      1912      1915      1915      1916      1915      1917      1917      1918
      1917      1919      1917      1920      1915      1921      1921      1922
      1921      1923      1921      1924      6721      6722      6721      6723
      6721      6724      6721      6725      6725      6726      6725      6727
      6725      6728      6728      6729      6728      6730      6728      6735
      6735      6731      6731      6734      6731      6732      6731      6733
      6736      6737      6736      6738      6736      6739      6736      6734
      6739      6740      6739      6747      6739      6741      6747      6748
      6747      6749      6747      6750      6741      6742      6742      6744
      6742      6743      6744      6745      6744      6746      6744      6756
      6756      6757      6756      6758      6756      6759      6759      6760
      6759      6761      6759      6762      6762      6763      6762      6764
      6762      6765      6765      6766      6765      6767      6765      6768
      6768      6769      6768      6770      6768      6771      6771      6772
      6771      6773      6771      6774      6774      6775      6774      6776
      6776      6777      6776      6778      6778      6779      6778      6780
      6778      6781      6781      6782      6781      6783      6781      6784
      6784      6785      6784      6786      6784      6787      6787      6788
      6787      6789      6787      6790      6790      6791      6790      6792
      6790      6793      6793      6794      6793      6795      6793      6796
      6796      6797      6796      6798      6796      6799      6799      6800
      6799      6801      6799      6802      6750      6751      6751      6753
      6751      6752      6753      6754      6753      6755      6753      6803
      6803      6804      6803      6805      6803      6806      6806      6807
      6806      6808      6806      6809      6809      6810      6809      6811
      6809      6812      6812      6813      6812      6814      6812      6815
      6815      6816      6815      6817      6815      6818      6818      6819
      6818      6820      6818      6821      6821      6822      6821      6823
      6821      6824      6824      6825      6824      6826      6824      6827
      6827      6828      6827      6829      6827      6830      6830      6831
      6830      6832      6830      6833      6833      6834      6833      6835
      6833      6836      6836      6837      6836      6838      6836      6839
      6839      6840      6839      6841      6839      6842      6842      6843
      6842      6844      6842      6845     12027     12028     12027     12029
     12027     12030     12027     12031     12035     12033     12033     12031
     12033     12034     12031     12032     12031     12036     12044     12043
     12036     12037     12036     12038     12036     12042     12042     12039
     12039     12043     12039     12040     12039     12041     12044     12045
     12044     12046     12044     12047     12047     12048     12047     12055
     12047     12049     12055     12056     12055     12057     12055     12058
     12049     12050     12050     12052     12050     12051     12052     12053
     12052     12054     12052     12064     12064     12065     12064     12066
     12064     12067     12067     12068     12067     12069     12067     12070
     12070     12071     12070     12072     12070     12073     12073     12074
     12073     12075     12073     12076     12076     12077     12076     12078
     12076     12079     12079     12080     12079     12081     12079     12082
     12082     12083     12082     12084     12084     12085     12084     12086
     12086     12087     12086     12088     12086     12089     12089     12090
     12089     12091     12089     12092     12092     12093     12092     12094
     12092     12095     12095     12096     12095     12097     12095     12098
     12098     12099     12098     12100     12098     12101     12101     12102
     12101     12103     12101     12104     12104     12105     12104     12106
     12104     12107     12107     12108     12107     12109     12107     12110
     12058     12059     12059     12061     12059     12060     12061     12062
     12061     12063     12061     12111     12111     12112     12111     12113
     12111     12114     12114     12115     12114     12116     12114     12117
     12117     12118     12117     12119     12117     12120     12120     12121
     12120     12122     12120     12123     12123     12124     12123     12125
     12123     12126     12126     12127     12126     12128     12126     12129
     12129     12130     12129     12131     12129     12132     12132     12133
     12132     12134     12132     12135     12135     12136     12135     12137
     12135     12138     12138     12139     12138     12140     12138     12141
     12141     12142     12141     12143     12141     12144     12144     12145
     12144     12146     12144     12147     12147     12148     12147     12149
     12147     12150     12150     12151     12150     12152     12150     12153
     19447     19451     19447     19455     19447     19459     19451     19452
     19451     19453     19451     19454     19455     19456     19455     19457
     19455     19458     19459     19460     19459     19461     19459     19462
     19447     19448     19448     19449     19448     19450     19448     19463
     19463     19464     19463     19465     19463     19469     19470     19471
     19469     19466     19466     19470     19466     19467     19466     19468
     19471     19472     19471     19473     19471     19474     19474     19475
     19474     19482     19474     19476     19482     19483     19482     19484
     19482     19485     19476     19477     19477     19479     19477     19478
     19479     19480     19479     19481     19479     19491     19491     19492
     19491     19493     19491     19494     19494     19495     19494     19496
     19494     19497     19497     19498     19497     19499     19497     19500
     19500     19501     19500     19502     19500     19503     19503     19504
     19503     19505     19503     19506     19506     19507     19506     19508
     19506     19509     19509     19510     19509     19511     19511     19512
     19511     19513     19513     19514     19513     19515     19513     19516
     19516     19517     19516     19518     19516     19519     19519     19520
     19519     19521     19519     19522     19522     19523     19522     19524
     19522     19525     19525     19526     19525     19527     19525     19528
     19528     19529     19528     19530     19528     19531     19531     19532
     19531     19533     19531     19534     19534     19535     19534     19536
     19534     19537     19485     19486     19486     19488     19486     19487
     19488     19489     19488     19490     19488     19538     19538     19539
     19538     19540     19538     19541     19541     19542     19541     19543
     19541     19544     19544     19545     19544     19546     19544     19547
     19547     19548     19547     19549     19547     19550     19550     19551
     19550     19552     19550     19553     19553     19554     19553     19555
     19553     19556     19556     19557     19556     19558     19556     19559
     19559     19560     19559     19561     19559     19562     19562     19563
     19562     19564     19562     19565     19565     19566     19565     19567
     19565     19568     19568     19569     19568     19570     19568     19571
     19571     19572     19571     19573     19571     19574     19574     19575
     19574     19576     19574     19577     19577     19578     19577     19579
     19577     19580      6846      6847      6846      6848      6846      6849
      6846      6850      6850      6851      6850      6852      6850      6853
      6853      6854      6853      6855      6853      6860      6860      6856
      6856      6859      6856      6857      6856      6858      6861      6862
      6861      6863      6861      6864      6861      6859      6864      6865
      6864      6872      6864      6866      6872      6873      6872      6874
      6872      6875      6866      6867      6867      6869      6867      6868
      6869      6870      6869      6871      6869      6881      6881      6882
      6881      6883      6881      6884      6884      6885      6884      6886
      6884      6887      6887      6888      6887      6889      6887      6890
      6890      6891      6890      6892      6890      6893      6893      6894
      6893      6895      6893      6896      6896      6897      6896      6898
      6896      6899      6899      6900      6899      6901      6901      6902
      6901      6903      6903      6904      6903      6905      6903      6906
      6906      6907      6906      6908      6906      6909      6909      6910
      6909      6911      6909      6912      6912      6913      6912      6914
      6912      6915      6915      6916      6915      6917      6915      6918
      6918      6919      6918      6920      6918      6921      6921      6922
      6921      6923      6921      6924      6924      6925      6924      6926
      6924      6927      6875      6876      6876      6878      6876      6877
      6878      6879      6878      6880      6878      6928      6928      6929
      6928      6930      6928      6931      6931      6932      6931      6933
      6931      6934      6934      6935      6934      6936      6934      6937
      6937      6938      6937      6939      6937      6940      6940      6941
      6940      6942      6940      6943      6943      6944      6943      6945
      6943      6946      6946      6947      6946      6948      6946      6949
      6949      6950      6949      6951      6949      6952      6952      6953
      6952      6954      6952      6955      6955      6956      6955      6957
      6955      6958      6958      6959      6958      6960      6958      6961
      6961      6962      6961      6963      6961      6964      6964      6965
      6964      6966      6964      6967      6967      6968      6967      6969
      6967      6970     19581     19585     19581     19589     19581     19593
     19585     19586     19585     19587     19585     19588     19589     19590
     19589     19591     19589     19592     19593     19594     19593     19595
     19593     19596     19581     19582     19582     19583     19582     19584
     19582     19597     19597     19598     19597     19599     19597     19603
     19604     19605     19603     19600     19600     19604     19600     19601
     19600     19602     19605     19606     19605     19607     19605     19608
     19608     19609     19608     19616     19608     19610     19616     19617
     19616     19618     19616     19619     19610     19611     19611     19613
     19611     19612     19613     19614     19613     19615     19613     19625
     19625     19626     19625     19627     19625     19628     19628     19629
     19628     19630     19628     19631     19631     19632     19631     19633
     19631     19634     19634     19635     19634     19636     19634     19637
     19637     19638     19637     19639     19637     19640     19640     19641
     19640     19642     19640     19643     19643     19644     19643     19645
     19645     19646     19645     19647     19647     19648     19647     19649
     19647     19650     19650     19651     19650     19652     19650     19653
     19653     19654     19653     19655     19653     19656     19656     19657
     19656     19658     19656     19659     19659     19660     19659     19661
     19659     19662     19662     19663     19662     19664     19662     19665
     19665     19666     19665     19667     19665     19668     19668     19669
     19668     19670     19668     19671     19619     19620     19620     19622
     19620     19621     19622     19623     19622     19624     19622     19672
     19672     19673     19672     19674     19672     19675     19675     19676
     19675     19677     19675     19678     19678     19679     19678     19680
     19678     19681     19681     19682     19681     19683     19681     19684
     19684     19685     19684     19686     19684     19687     19687     19688
     19687     19689     19687     19690     19690     19691     19690     19692
     19690     19693     19693     19694     19693     19695     19693     19696
     19696     19697     19696     19698     19696     19699     19699     19700
     19699     19701     19699     19702     19702     19703     19702     19704
     19702     19705     19705     19706     19705     19707     19705     19708
     19708     19709     19708     19710     19708     19711     19711     19712
     19711     19713     19711     19714     12154     12155     12154     12156
     12154     12157     12154     12158     12162     12160     12160     12158
     12160     12161     12158     12159     12158     12163     12171     12170
     12163     12164     12163     12165     12163     12169     12169     12166
     12166     12170     12166     12167     12166     12168     12171     12172
     12171     12173     12171     12174     12174     12175     12174     12182
     12174     12176     12182     12183     12182     12184     12182     12185
     12176     12177     12177     12179     12177     12178     12179     12180
     12179     12181     12179     12191     12191     12192     12191     12193
     12191     12194     12194     12195     12194     12196     12194     12197
     12197     12198     12197     12199     12197     12200     12200     12201
     12200     12202     12200     12203     12203     12204     12203     12205
     12203     12206     12206     12207     12206     12208     12206     12209
     12209     12210     12209     12211     12211     12212     12211     12213
     12213     12214     12213     12215     12213     12216     12216     12217
     12216     12218     12216     12219     12219     12220     12219     12221
     12219     12222     12222     12223     12222     12224     12222     12225
     12225     12226     12225     12227     12225     12228     12228     12229
     12228     12230     12228     12231     12231     12232     12231     12233
     12231     12234     12234     12235     12234     12236     12234     12237
     12185     12186     12186     12188     12186     12187     12188     12189
     12188     12190     12188     12238     12238     12239     12238     12240
     12238     12241     12241     12242     12241     12243     12241     12244
     12244     12245     12244     12246     12244     12247     12247     12248
     12247     12249     12247     12250     12250     12251     12250     12252
     12250     12253     12253     12254     12253     12255     12253     12256
     12256     12257     12256     12258     12256     12259     12259     12260
     12259     12261     12259     12262     12262     12263     12262     12264
     12262     12265     12265     12266     12265     12267     12265     12268
     12268     12269     12268     12270     12268     12271     12271     12272
     12271     12273     12271     12274     12274     12275     12274     12276
     12274     12277     12277     12278     12277     12279     12277     12280
     12281     12282     12281     12283     12281     12284     12281     12285
     12289     12287     12287     12285     12287     12288     12285     12286
     12285     12290     12298     12297     12290     12291     12290     12292
     12290     12296     12296     12293     12293     12297     12293     12294
     12293     12295     12298     12299     12298     12300     12298     12301
     12301     12302     12301     12309     12301     12303     12309     12310
     12309     12311     12309     12312     12303     12304     12304     12306
     12304     12305     12306     12307     12306     12308     12306     12318
     12318     12319     12318     12320     12318     12321     12321     12322
     12321     12323     12321     12324     12324     12325     12324     12326
     12324     12327     12327     12328     12327     12329     12327     12330
     12330     12331     12330     12332     12330     12333     12333     12334
     12333     12335     12333     12336     12336     12337     12336     12338
     12338     12339     12338     12340     12340     12341     12340     12342
     12340     12343     12343     12344     12343     12345     12343     12346
     12346     12347     12346     12348     12346     12349     12349     12350
     12349     12351     12349     12352     12352     12353     12352     12354
     12352     12355     12355     12356     12355     12357     12355     12358
     12358     12359     12358     12360     12358     12361     12361     12362
     12361     12363     12361     12364     12312     12313     12313     12315
     12313     12314     12315     12316     12315     12317     12315     12365
     12365     12366     12365     12367     12365     12368     12368     12369
     12368     12370     12368     12371     12371     12372     12371     12373
     12371     12374     12374     12375     12374     12376     12374     12377
     12377     12378     12377     12379     12377     12380     12380     12381
     12380     12382     12380     12383     12383     12384     12383     12385
     12383     12386     12386     12387     12386     12388     12386     12389
     12389     12390     12389     12391     12389     12392     12392     12393
     12392     12394     12392     12395     12395     12396     12395     12397
     12395     12398     12398     12399     12398     12400     12398     12401
     12401     12402     12401     12403     12401     12404     12404     12405
     12404     12406     12404     12407      1925      1927      1925      1926
      1927      1928      1925      1971      1971      1972      1971      1973
      1971      1968      1968      1969      1968      1970      1925      1929
      1929      1930      1929      1931      1929      1932      1932      1963
      1963      1968      1963      1964      1964      1965      1964      1966
      1964      1967      1932      1933      1933      1934      1933      1935
      1935      1936      1935      1937      1935      1938      1938      1939
      1938      1961      1961      1962      1961      1963      1938      1940
      1940      1941      1940      1950      1950      1955      1955      1956
      1955      1957      1955      1958      1958      1959      1958      1960
      1958      1961      1950      1951      1951      1952      1951      1953
      1951      1954      1940      1942      1942      1943      1942      1944
      1942      1945      1945      1946      1945      1947      1945      1948
      1948      1949      1948      1950      1948      1974      1974      1975
      1974      1976      1976      1977      1976      1978      1976      1979
      1974      1980      1980      1981      1980      1982      1980      1983
      1983      1984      1983      1985      1983      1986      1986      1987
      1986      1988      1986      1989      1989      1990      1989      1991
      1991      1992      1991      1993      1991      1994      1989      1995
      1995      1996      1995      1997      1995      1998     19715     19719
     19715     19723     19715     19727     19719     19720     19719     19721
     19719     19722     19723     19724     19723     19725     19723     19726
     19727     19728     19727     19729     19727     19730     19715     19716
     19716     19717     19716     19718     19716     19731     19731     19732
     19731     19733     19731     19737     19738     19739     19737     19734
     19734     19738     19734     19735     19734     19736     19739     19740
     19739     19741     19739     19742     19742     19743     19742     19750
     19742     19744     19750     19751     19750     19752     19750     19753
     19744     19745     19745     19747     19745     19746     19747     19748
     19747     19749     19747     19759     19759     19760     19759     19761
     19759     19762     19762     19763     19762     19764     19762     19765
     19765     19766     19765     19767     19765     19768     19768     19769
     19768     19770     19768     19771     19771     19772     19771     19773
     19771     19774     19774     19775     19774     19776     19774     19777
     19777     19778     19777     19779     19779     19780     19779     19781
     19781     19782     19781     19783     19781     19784     19784     19785
     19784     19786     19784     19787     19787     19788     19787     19789
     19787     19790     19790     19791     19790     19792     19790     19793
     19793     19794     19793     19795     19793     19796     19796     19797
     19796     19798     19796     19799     19799     19800     19799     19801
     19799     19802     19802     19803     19802     19804     19802     19805
     19753     19754     19754     19756     19754     19755     19756     19757
     19756     19758     19756     19806     19806     19807     19806     19808
     19806     19809     19809     19810     19809     19811     19809     19812
     19812     19813     19812     19814     19812     19815     19815     19816
     19815     19817     19815     19818     19818     19819     19818     19820
     19818     19821     19821     19822     19821     19823     19821     19824
     19824     19825     19824     19826     19824     19827     19827     19828
     19827     19829     19827     19830     19830     19831     19830     19832
     19830     19833     19833     19834     19833     19835     19833     19836
     19836     19837     19836     19838     19836     19839     19839     19840
     19839     19841     19839     19842     19842     19843     19842     19844
     19842     19845     19845     19846     19845     19847     19845     19848
     19849     19853     19849     19857     19849     19861     19853     19854
     19853     19855     19853     19856     19857     19858     19857     19859
     19857     19860     19861     19862     19861     19863     19861     19864
     19849     19850     19850     19851     19850     19852     19850     19865
     19865     19866     19865     19867     19865     19871     19872     19873
     19871     19868     19868     19872     19868     19869     19868     19870
     19873     19874     19873     19875     19873     19876     19876     19877
     19876     19884     19876     19878     19884     19885     19884     19886
     19884     19887     19878     19879     19879     19881     19879     19880
     19881     19882     19881     19883     19881     19893     19893     19894
     19893     19895     19893     19896     19896     19897     19896     19898
     19896     19899     19899     19900     19899     19901     19899     19902
     19902     19903     19902     19904     19902     19905     19905     19906
     19905     19907     19905     19908     19908     19909     19908     19910
     19908     19911     19911     19912     19911     19913     19913     19914
     19913     19915     19915     19916     19915     19917     19915     19918
     19918     19919     19918     19920     19918     19921     19921     19922
     19921     19923     19921     19924     19924     19925     19924     19926
     19924     19927     19927     19928     19927     19929     19927     19930
     19930     19931     19930     19932     19930     19933     19933     19934
     19933     19935     19933     19936     19936     19937     19936     19938
     19936     19939     19887     19888     19888     19890     19888     19889
     19890     19891     19890     19892     19890     19940     19940     19941
     19940     19942     19940     19943     19943     19944     19943     19945
     19943     19946     19946     19947     19946     19948     19946     19949
     19949     19950     19949     19951     19949     19952     19952     19953
     19952     19954     19952     19955     19955     19956     19955     19957
     19955     19958     19958     19959     19958     19960     19958     19961
     19961     19962     19961     19963     19961     19964     19964     19965
     19964     19966     19964     19967     19967     19968     19967     19969
     19967     19970     19970     19971     19970     19972     19970     19973
     19973     19974     19973     19975     19973     19976     19976     19977
     19976     19978     19976     19979     19979     19980     19979     19981
     19979     19982     19983     19987     19983     19991     19983     19995
     19987     19988     19987     19989     19987     19990     19991     19992
     19991     19993     19991     19994     19995     19996     19995     19997
     19995     19998     19983     19984     19984     19985     19984     19986
     19984     19999     19999     20000     19999     20001     19999     20005
     20006     20007     20005     20002     20002     20006     20002     20003
     20002     20004     20007     20008     20007     20009     20007     20010
     20010     20011     20010     20018     20010     20012     20018     20019
     20018     20020     20018     20021     20012     20013     20013     20015
     20013     20014     20015     20016     20015     20017     20015     20027
     20027     20028     20027     20029     20027     20030     20030     20031
     20030     20032     20030     20033     20033     20034     20033     20035
     20033     20036     20036     20037     20036     20038     20036     20039
     20039     20040     20039     20041     20039     20042     20042     20043
     20042     20044     20042     20045     20045     20046     20045     20047
     20047     20048     20047     20049     20049     20050     20049     20051
     20049     20052     20052     20053     20052     20054     20052     20055
     20055     20056     20055     20057     20055     20058     20058     20059
     20058     20060     20058     20061     20061     20062     20061     20063
     20061     20064     20064     20065     20064     20066     20064     20067
     20067     20068     20067     20069     20067     20070     20070     20071
     20070     20072     20070     20073     20021     20022     20022     20024
     20022     20023     20024     20025     20024     20026     20024     20074
     20074     20075     20074     20076     20074     20077     20077     20078
     20077     20079     20077     20080     20080     20081     20080     20082
     20080     20083     20083     20084     20083     20085     20083     20086
     20086     20087     20086     20088     20086     20089     20089     20090
     20089     20091     20089     20092     20092     20093     20092     20094
     20092     20095     20095     20096     20095     20097     20095     20098
     20098     20099     20098     20100     20098     20101     20101     20102
     20101     20103     20101     20104     20104     20105     20104     20106
     20104     20107     20107     20108     20107     20109     20107     20110
     20110     20111     20110     20112     20110     20113     20113     20114
     20113     20115     20113     20116      6971      6972      6971      6973
      6971      6974      6971      6975      6975      6976      6975      6977
      6975      6978      6978      6979      6978      6980      6978      6985
      6985      6981      6981      6984      6981      6982      6981      6983
      6986      6987      6986      6988      6986      6989      6986      6984
      6989      6990      6989      6997      6989      6991      6997      6998
      6997      6999      6997      7000      6991      6992      6992      6994
      6992      6993      6994      6995      6994      6996      6994      7006
      7006      7007      7006      7008      7006      7009      7009      7010
      7009      7011      7009      7012      7012      7013      7012      7014
      7012      7015      7015      7016      7015      7017      7015      7018
      7018      7019      7018      7020      7018      7021      7021      7022
      7021      7023      7021      7024      7024      7025      7024      7026
      7026      7027      7026      7028      7028      7029      7028      7030
      7028      7031      7031      7032      7031      7033      7031      7034
      7034      7035      7034      7036      7034      7037      7037      7038
      7037      7039      7037      7040      7040      7041      7040      7042
      7040      7043      7043      7044      7043      7045      7043      7046
      7046      7047      7046      7048      7046      7049      7049      7050
      7049      7051      7049      7052      7000      7001      7001      7003
      7001      7002      7003      7004      7003      7005      7003      7053
      7053      7054      7053      7055      7053      7056      7056      7057
      7056      7058      7056      7059      7059      7060      7059      7061
      7059      7062      7062      7063      7062      7064      7062      7065
      7065      7066      7065      7067      7065      7068      7068      7069
      7068      7070      7068      7071      7071      7072      7071      7073
      7071      7074      7074      7075      7074      7076      7074      7077
      7077      7078      7077      7079      7077      7080      7080      7081
      7080      7082      7080      7083      7083      7084      7083      7085
      7083      7086      7086      7087      7086      7088      7086      7089
      7089      7090      7089      7091      7089      7092      7092      7093
      7092      7094      7092      7095     12408     12409     12408     12410
     12408     12411     12408     12412     12416     12414     12414     12412
     12414     12415     12412     12413     12412     12417     12425     12424
     12417     12418     12417     12419     12417     12423     12423     12420
     12420     12424     12420     12421     12420     12422     12425     12426
     12425     12427     12425     12428     12428     12429     12428     12436
     12428     12430     12436     12437     12436     12438     12436     12439
     12430     12431     12431     12433     12431     12432     12433     12434
     12433     12435     12433     12445     12445     12446     12445     12447
     12445     12448     12448     12449     12448     12450     12448     12451
     12451     12452     12451     12453     12451     12454     12454     12455
     12454     12456     12454     12457     12457     12458     12457     12459
     12457     12460     12460     12461     12460     12462     12460     12463
     12463     12464     12463     12465     12465     12466     12465     12467
     12467     12468     12467     12469     12467     12470     12470     12471
     12470     12472     12470     12473     12473     12474     12473     12475
     12473     12476     12476     12477     12476     12478     12476     12479
     12479     12480     12479     12481     12479     12482     12482     12483
     12482     12484     12482     12485     12485     12486     12485     12487
     12485     12488     12488     12489     12488     12490     12488     12491
     12439     12440     12440     12442     12440     12441     12442     12443
     12442     12444     12442     12492     12492     12493     12492     12494
     12492     12495     12495     12496     12495     12497     12495     12498
     12498     12499     12498     12500     12498     12501     12501     12502
     12501     12503     12501     12504     12504     12505     12504     12506
     12504     12507     12507     12508     12507     12509     12507     12510
     12510     12511     12510     12512     12510     12513     12513     12514
     12513     12515     12513     12516     12516     12517     12516     12518
     12516     12519     12519     12520     12519     12521     12519     12522
     12522     12523     12522     12524     12522     12525     12525     12526
     12525     12527     12525     12528     12528     12529     12528     12530
     12528     12531     12531     12532     12531     12533     12531     12534
      1999      2001      1999      2000      2001      2002      1999      2045
      2045      2046      2045      2047      2045      2042      2042      2043
      2042      2044      1999      2003      2003      2004      2003      2005
      2003      2006      2006      2037      2037      2042      2037      2038
      2038      2039      2038      2040      2038      2041      2006      2007
      2007      2008      2007      2009      2009      2010      2009      2011
      2009      2012      2012      2013      2012      2035      2035      2036
      2035      2037      2012      2014      2014      2015      2014      2024
      2024      2029      2029      2030      2029      2031      2029      2032
      2032      2033      2032      2034      2032      2035      2024      2025
      2025      2026      2025      2027      2025      2028      2014      2016
      2016      2017      2016      2018      2016      2019      2019      2020
      2019      2021      2019      2022      2022      2023      2022      2024
      2022      2048      2048      2049      2048      2050      2050      2051
      2050      2052      2050      2053      2048      2054      2054      2055
      2054      2056      2054      2057      2057      2058      2057      2059
      2057      2060      2060      2061      2060      2062      2060      2063
      2063      2064      2063      2065      2065      2066      2065      2067
      2065      2068      2063      2069      2069      2070      2069      2071
      2069      2072     12535     12536     12535     12537     12535     12538
     12535     12539     12543     12541     12541     12539     12541     12542
     12539     12540     12539     12544     12552     12551     12544     12545
     12544     12546     12544     12550     12550     12547     12547     12551
     12547     12548     12547     12549     12552     12553     12552     12554
     12552     12555     12555     12556     12555     12563     12555     12557
     12563     12564     12563     12565     12563     12566     12557     12558
     12558     12560     12558     12559     12560     12561     12560     12562
     12560     12572     12572     12573     12572     12574     12572     12575
     12575     12576     12575     12577     12575     12578     12578     12579
     12578     12580     12578     12581     12581     12582     12581     12583
     12581     12584     12584     12585     12584     12586     12584     12587
     12587     12588     12587     12589     12587     12590     12590     12591
     12590     12592     12592     12593     12592     12594     12594     12595
     12594     12596     12594     12597     12597     12598     12597     12599
     12597     12600     12600     12601     12600     12602     12600     12603
     12603     12604     12603     12605     12603     12606     12606     12607
     12606     12608     12606     12609     12609     12610     12609     12611
     12609     12612     12612     12613     12612     12614     12612     12615
     12615     12616     12615     12617     12615     12618     12566     12567
     12567     12569     12567     12568     12569     12570     12569     12571
     12569     12619     12619     12620     12619     12621     12619     12622
     12622     12623     12622     12624     12622     12625     12625     12626
     12625     12627     12625     12628     12628     12629     12628     12630
     12628     12631     12631     12632     12631     12633     12631     12634
     12634     12635     12634     12636     12634     12637     12637     12638
     12637     12639     12637     12640     12640     12641     12640     12642
     12640     12643     12643     12644     12643     12645     12643     12646
     12646     12647     12646     12648     12646     12649     12649     12650
     12649     12651     12649     12652     12652     12653     12652     12654
     12652     12655     12655     12656     12655     12657     12655     12658
     12658     12659     12658     12660     12658     12661     12662     12663
     12662     12664     12662     12665     12662     12666     12670     12668
     12668     12666     12668     12669     12666     12667     12666     12671
     12679     12678     12671     12672     12671     12673     12671     12677
     12677     12674     12674     12678     12674     12675     12674     12676
     12679     12680     12679     12681     12679     12682     12682     12683
     12682     12690     12682     12684     12690     12691     12690     12692
     12690     12693     12684     12685     12685     12687     12685     12686
     12687     12688     12687     12689     12687     12699     12699     12700
     12699     12701     12699     12702     12702     12703     12702     12704
     12702     12705     12705     12706     12705     12707     12705     12708
     12708     12709     12708     12710     12708     12711     12711     12712
     12711     12713     12711     12714     12714     12715     12714     12716
     12714     12717     12717     12718     12717     12719     12719     12720
     12719     12721     12721     12722     12721     12723     12721     12724
     12724     12725     12724     12726     12724     12727     12727     12728
     12727     12729     12727     12730     12730     12731     12730     12732
     12730     12733     12733     12734     12733     12735     12733     12736
     12736     12737     12736     12738     12736     12739     12739     12740
     12739     12741     12739     12742     12742     12743     12742     12744
     12742     12745     12693     12694     12694     12696     12694     12695
     12696     12697     12696     12698     12696     12746     12746     12747
     12746     12748     12746     12749     12749     12750     12749     12751
     12749     12752     12752     12753     12752     12754     12752     12755
     12755     12756     12755     12757     12755     12758     12758     12759
     12758     12760     12758     12761     12761     12762     12761     12763
     12761     12764     12764     12765     12764     12766     12764     12767
     12767     12768     12767     12769     12767     12770     12770     12771
     12770     12772     12770     12773     12773     12774     12773     12775
     12773     12776     12776     12777     12776     12778     12776     12779
     12779     12780     12779     12781     12779     12782     12782     12783
     12782     12784     12782     12785     12785     12786     12785     12787
     12785     12788     20117     20121     20117     20125     20117     20129
     20121     20122     20121     20123     20121     20124     20125     20126
     20125     20127     20125     20128     20129     20130     20129     20131
     20129     20132     20117     20118     20118     20119     20118     20120
     20118     20133     20133     20134     20133     20135     20133     20139
     20140     20141     20139     20136     20136     20140     20136     20137
     20136     20138     20141     20142     20141     20143     20141     20144
     20144     20145     20144     20152     20144     20146     20152     20153
     20152     20154     20152     20155     20146     20147     20147     20149
     20147     20148     20149     20150     20149     20151     20149     20161
     20161     20162     20161     20163     20161     20164     20164     20165
     20164     20166     20164     20167     20167     20168     20167     20169
     20167     20170     20170     20171     20170     20172     20170     20173
     20173     20174     20173     20175     20173     20176     20176     20177
     20176     20178     20176     20179     20179     20180     20179     20181
     20181     20182     20181     20183     20183     20184     20183     20185
     20183     20186     20186     20187     20186     20188     20186     20189
     20189     20190     20189     20191     20189     20192     20192     20193
     20192     20194     20192     20195     20195     20196     20195     20197
     20195     20198     20198     20199     20198     20200     20198     20201
     20201     20202     20201     20203     20201     20204     20204     20205
     20204     20206     20204     20207     20155     20156     20156     20158
     20156     20157     20158     20159     20158     20160     20158     20208
     20208     20209     20208     20210     20208     20211     20211     20212
     20211     20213     20211     20214     20214     20215     20214     20216
     20214     20217     20217     20218     20217     20219     20217     20220
     20220     20221     20220     20222     20220     20223     20223     20224
     20223     20225     20223     20226     20226     20227     20226     20228
     20226     20229     20229     20230     20229     20231     20229     20232
     20232     20233     20232     20234     20232     20235     20235     20236
     20235     20237     20235     20238     20238     20239     20238     20240
     20238     20241     20241     20242     20241     20243     20241     20244
     20244     20245     20244     20246     20244     20247     20247     20248
     20247     20249     20247     20250     20251     20255     20251     20259
     20251     20263     20255     20256     20255     20257     20255     20258
     20259     20260     20259     20261     20259     20262     20263     20264
     20263     20265     20263     20266     20251     20252     20252     20253
     20252     20254     20252     20267     20267     20268     20267     20269
     20267     20273     20274     20275     20273     20270     20270     20274
     20270     20271     20270     20272     20275     20276     20275     20277
     20275     20278     20278     20279     20278     20286     20278     20280
     20286     20287     20286     20288     20286     20289     20280     20281
     20281     20283     20281     20282     20283     20284     20283     20285
     20283     20295     20295     20296     20295     20297     20295     20298
     20298     20299     20298     20300     20298     20301     20301     20302
     20301     20303     20301     20304     20304     20305     20304     20306
     20304     20307     20307     20308     20307     20309     20307     20310
     20310     20311     20310     20312     20310     20313     20313     20314
     20313     20315     20315     20316     20315     20317     20317     20318
     20317     20319     20317     20320     20320     20321     20320     20322
     20320     20323     20323     20324     20323     20325     20323     20326
     20326     20327     20326     20328     20326     20329     20329     20330
     20329     20331     20329     20332     20332     20333     20332     20334
     20332     20335     20335     20336     20335     20337     20335     20338
     20338     20339     20338     20340     20338     20341     20289     20290
     20290     20292     20290     20291     20292     20293     20292     20294
     20292     20342     20342     20343     20342     20344     20342     20345
     20345     20346     20345     20347     20345     20348     20348     20349
     20348     20350     20348     20351     20351     20352     20351     20353
     20351     20354     20354     20355     20354     20356     20354     20357
     20357     20358     20357     20359     20357     20360     20360     20361
     20360     20362     20360     20363     20363     20364     20363     20365
     20363     20366     20366     20367     20366     20368     20366     20369
     20369     20370     20369     20371     20369     20372     20372     20373
     20372     20374     20372     20375     20375     20376     20375     20377
     20375     20378     20378     20379     20378     20380     20378     20381
     20381     20382     20381     20383     20381     20384     20385     20389
     20385     20393     20385     20397     20389     20390     20389     20391
     20389     20392     20393     20394     20393     20395     20393     20396
     20397     20398     20397     20399     20397     20400     20385     20386
     20386     20387     20386     20388     20386     20401     20401     20402
     20401     20403     20401     20407     20408     20409     20407     20404
     20404     20408     20404     20405     20404     20406     20409     20410
     20409     20411     20409     20412     20412     20413     20412     20420
     20412     20414     20420     20421     20420     20422     20420     20423
     20414     20415     20415     20417     20415     20416     20417     20418
     20417     20419     20417     20429     20429     20430     20429     20431
     20429     20432     20432     20433     20432     20434     20432     20435
     20435     20436     20435     20437     20435     20438     20438     20439
     20438     20440     20438     20441     20441     20442     20441     20443
     20441     20444     20444     20445     20444     20446     20444     20447
     20447     20448     20447     20449     20449     20450     20449     20451
     20451     20452     20451     20453     20451     20454     20454     20455
     20454     20456     20454     20457     20457     20458     20457     20459
     20457     20460     20460     20461     20460     20462     20460     20463
     20463     20464     20463     20465     20463     20466     20466     20467
     20466     20468     20466     20469     20469     20470     20469     20471
     20469     20472     20472     20473     20472     20474     20472     20475
     20423     20424     20424     20426     20424     20425     20426     20427
     20426     20428     20426     20476     20476     20477     20476     20478
     20476     20479     20479     20480     20479     20481     20479     20482
     20482     20483     20482     20484     20482     20485     20485     20486
     20485     20487     20485     20488     20488     20489     20488     20490
     20488     20491     20491     20492     20491     20493     20491     20494
     20494     20495     20494     20496     20494     20497     20497     20498
     20497     20499     20497     20500     20500     20501     20500     20502
     20500     20503     20503     20504     20503     20505     20503     20506
     20506     20507     20506     20508     20506     20509     20509     20510
     20509     20511     20509     20512     20512     20513     20512     20514
     20512     20515     20515     20516     20515     20517     20515     20518
     12789     12790     12789     12791     12789     12792     12789     12793
     12797     12795     12795     12793     12795     12796     12793     12794
     12793     12798     12806     12805     12798     12799     12798     12800
     12798     12804     12804     12801     12801     12805     12801     12802
     12801     12803     12806     12807     12806     12808     12806     12809
     12809     12810     12809     12817     12809     12811     12817     12818
     12817     12819     12817     12820     12811     12812     12812     12814
     12812     12813     12814     12815     12814     12816     12814     12826
     12826     12827     12826     12828     12826     12829     12829     12830
     12829     12831     12829     12832     12832     12833     12832     12834
     12832     12835     12835     12836     12835     12837     12835     12838
     12838     12839     12838     12840     12838     12841     12841     12842
     12841     12843     12841     12844     12844     12845     12844     12846
     12846     12847     12846     12848     12848     12849     12848     12850
     12848     12851     12851     12852     12851     12853     12851     12854
     12854     12855     12854     12856     12854     12857     12857     12858
     12857     12859     12857     12860     12860     12861     12860     12862
     12860     12863     12863     12864     12863     12865     12863     12866
     12866     12867     12866     12868     12866     12869     12869     12870
     12869     12871     12869     12872     12820     12821     12821     12823
     12821     12822     12823     12824     12823     12825     12823     12873
     12873     12874     12873     12875     12873     12876     12876     12877
     12876     12878     12876     12879     12879     12880     12879     12881
     12879     12882     12882     12883     12882     12884     12882     12885
     12885     12886     12885     12887     12885     12888     12888     12889
     12888     12890     12888     12891     12891     12892     12891     12893
     12891     12894     12894     12895     12894     12896     12894     12897
     12897     12898     12897     12899     12897     12900     12900     12901
     12900     12902     12900     12903     12903     12904     12903     12905
     12903     12906     12906     12907     12906     12908     12906     12909
     12909     12910     12909     12911     12909     12912     12912     12913
     12912     12914     12912     12915      7096      7097      7096      7098
      7096      7099      7096      7100      7100      7101      7100      7102
      7100      7103      7103      7104      7103      7105      7103      7110
      7110      7106      7106      7109      7106      7107      7106      7108
      7111      7112      7111      7113      7111      7114      7111      7109
      7114      7115      7114      7122      7114      7116      7122      7123
      7122      7124      7122      7125      7116      7117      7117      7119
      7117      7118      7119      7120      7119      7121      7119      7131
      7131      7132      7131      7133      7131      7134      7134      7135
      7134      7136      7134      7137      7137      7138      7137      7139
      7137      7140      7140      7141      7140      7142      7140      7143
      7143      7144      7143      7145      7143      7146      7146      7147
      7146      7148      7146      7149      7149      7150      7149      7151
      7151      7152      7151      7153      7153      7154      7153      7155
      7153      7156      7156      7157      7156      7158      7156      7159
      7159      7160      7159      7161      7159      7162      7162      7163
      7162      7164      7162      7165      7165      7166      7165      7167
      7165      7168      7168      7169      7168      7170      7168      7171
      7171      7172      7171      7173      7171      7174      7174      7175
      7174      7176      7174      7177      7125      7126      7126      7128
      7126      7127      7128      7129      7128      7130      7128      7178
      7178      7179      7178      7180      7178      7181      7181      7182
      7181      7183      7181      7184      7184      7185      7184      7186
      7184      7187      7187      7188      7187      7189      7187      7190
      7190      7191      7190      7192      7190      7193      7193      7194
      7193      7195      7193      7196      7196      7197      7196      7198
      7196      7199      7199      7200      7199      7201      7199      7202
      7202      7203      7202      7204      7202      7205      7205      7206
      7205      7207      7205      7208      7208      7209      7208      7210
      7208      7211      7211      7212      7211      7213      7211      7214
      7214      7215      7214      7216      7214      7217      7217      7218
      7217      7219      7217      7220      7221      7222      7221      7223
      7221      7224      7221      7225      7225      7226      7225      7227
      7225      7228      7228      7229      7228      7230      7228      7235
      7235      7231      7231      7234      7231      7232      7231      7233
      7236      7237      7236      7238      7236      7239      7236      7234
      7239      7240      7239      7247      7239      7241      7247      7248
      7247      7249      7247      7250      7241      7242      7242      7244
      7242      7243      7244      7245      7244      7246      7244      7256
      7256      7257      7256      7258      7256      7259      7259      7260
      7259      7261      7259      7262      7262      7263      7262      7264
      7262      7265      7265      7266      7265      7267      7265      7268
      7268      7269      7268      7270      7268      7271      7271      7272
      7271      7273      7271      7274      7274      7275      7274      7276
      7276      7277      7276      7278      7278      7279      7278      7280
      7278      7281      7281      7282      7281      7283      7281      7284
      7284      7285      7284      7286      7284      7287      7287      7288
      7287      7289      7287      7290      7290      7291      7290      7292
      7290      7293      7293      7294      7293      7295      7293      7296
      7296      7297      7296      7298      7296      7299      7299      7300
      7299      7301      7299      7302      7250      7251      7251      7253
      7251      7252      7253      7254      7253      7255      7253      7303
      7303      7304      7303      7305      7303      7306      7306      7307
      7306      7308      7306      7309      7309      7310      7309      7311
      7309      7312      7312      7313      7312      7314      7312      7315
      7315      7316      7315      7317      7315      7318      7318      7319
      7318      7320      7318      7321      7321      7322      7321      7323
      7321      7324      7324      7325      7324      7326      7324      7327
      7327      7328      7327      7329      7327      7330      7330      7331
      7330      7332      7330      7333      7333      7334      7333      7335
      7333      7336      7336      7337      7336      7338      7336      7339
      7339      7340      7339      7341      7339      7342      7342      7343
      7342      7344      7342      7345     20519     20523     20519     20527
     20519     20531     20523     20524     20523     20525     20523     20526
     20527     20528     20527     20529     20527     20530     20531     20532
     20531     20533     20531     20534     20519     20520     20520     20521
     20520     20522     20520     20535     20535     20536     20535     20537
     20535     20541     20542     20543     20541     20538     20538     20542
     20538     20539     20538     20540     20543     20544     20543     20545
     20543     20546     20546     20547     20546     20554     20546     20548
     20554     20555     20554     20556     20554     20557     20548     20549
     20549     20551     20549     20550     20551     20552     20551     20553
     20551     20563     20563     20564     20563     20565     20563     20566
     20566     20567     20566     20568     20566     20569     20569     20570
     20569     20571     20569     20572     20572     20573     20572     20574
     20572     20575     20575     20576     20575     20577     20575     20578
     20578     20579     20578     20580     20578     20581     20581     20582
     20581     20583     20583     20584     20583     20585     20585     20586
     20585     20587     20585     20588     20588     20589     20588     20590
     20588     20591     20591     20592     20591     20593     20591     20594
     20594     20595     20594     20596     20594     20597     20597     20598
     20597     20599     20597     20600     20600     20601     20600     20602
     20600     20603     20603     20604     20603     20605     20603     20606
     20606     20607     20606     20608     20606     20609     20557     20558
     20558     20560     20558     20559     20560     20561     20560     20562
     20560     20610     20610     20611     20610     20612     20610     20613
     20613     20614     20613     20615     20613     20616     20616     20617
     20616     20618     20616     20619     20619     20620     20619     20621
     20619     20622     20622     20623     20622     20624     20622     20625
     20625     20626     20625     20627     20625     20628     20628     20629
     20628     20630     20628     20631     20631     20632     20631     20633
     20631     20634     20634     20635     20634     20636     20634     20637
     20637     20638     20637     20639     20637     20640     20640     20641
     20640     20642     20640     20643     20643     20644     20643     20645
     20643     20646     20646     20647     20646     20648     20646     20649
     20649     20650     20649     20651     20649     20652      7346      7347
      7346      7348      7346      7349      7346      7350      7350      7351
      7350      7352      7350      7353      7353      7354      7353      7355
      7353      7360      7360      7356      7356      7359      7356      7357
      7356      7358      7361      7362      7361      7363      7361      7364
      7361      7359      7364      7365      7364      7372      7364      7366
      7372      7373      7372      7374      7372      7375      7366      7367
      7367      7369      7367      7368      7369      7370      7369      7371
      7369      7381      7381      7382      7381      7383      7381      7384
      7384      7385      7384      7386      7384      7387      7387      7388
      7387      7389      7387      7390      7390      7391      7390      7392
      7390      7393      7393      7394      7393      7395      7393      7396
      7396      7397      7396      7398      7396      7399      7399      7400
      7399      7401      7401      7402      7401      7403      7403      7404
      7403      7405      7403      7406      7406      7407      7406      7408
      7406      7409      7409      7410      7409      7411      7409      7412
      7412      7413      7412      7414      7412      7415      7415      7416
      7415      7417      7415      7418      7418      7419      7418      7420
      7418      7421      7421      7422      7421      7423      7421      7424
      7424      7425      7424      7426      7424      7427      7375      7376
      7376      7378      7376      7377      7378      7379      7378      7380
      7378      7428      7428      7429      7428      7430      7428      7431
      7431      7432      7431      7433      7431      7434      7434      7435
      7434      7436      7434      7437      7437      7438      7437      7439
      7437      7440      7440      7441      7440      7442      7440      7443
      7443      7444      7443      7445      7443      7446      7446      7447
      7446      7448      7446      7449      7449      7450      7449      7451
      7449      7452      7452      7453      7452      7454      7452      7455
      7455      7456      7455      7457      7455      7458      7458      7459
      7458      7460      7458      7461      7461      7462      7461      7463
      7461      7464      7464      7465      7464      7466      7464      7467
      7467      7468      7467      7469      7467      7470     12916     12917
     12916     12918     12916     12919     12916     12920     12924     12922
     12922     12920     12922     12923     12920     12921     12920     12925
     12933     12932     12925     12926     12925     12927     12925     12931
     12931     12928     12928     12932     12928     12929     12928     12930
     12933     12934     12933     12935     12933     12936     12936     12937
     12936     12944     12936     12938     12944     12945     12944     12946
     12944     12947     12938     12939     12939     12941     12939     12940
     12941     12942     12941     12943     12941     12953     12953     12954
     12953     12955     12953     12956     12956     12957     12956     12958
     12956     12959     12959     12960     12959     12961     12959     12962
     12962     12963     12962     12964     12962     12965     12965     12966
     12965     12967     12965     12968     12968     12969     12968     12970
     12968     12971     12971     12972     12971     12973     12973     12974
     12973     12975     12975     12976     12975     12977     12975     12978
     12978     12979     12978     12980     12978     12981     12981     12982
     12981     12983     12981     12984     12984     12985     12984     12986
     12984     12987     12987     12988     12987     12989     12987     12990
     12990     12991     12990     12992     12990     12993     12993     12994
     12993     12995     12993     12996     12996     12997     12996     12998
     12996     12999     12947     12948     12948     12950     12948     12949
     12950     12951     12950     12952     12950     13000     13000     13001
     13000     13002     13000     13003     13003     13004     13003     13005
     13003     13006     13006     13007     13006     13008     13006     13009
     13009     13010     13009     13011     13009     13012     13012     13013
     13012     13014     13012     13015     13015     13016     13015     13017
     13015     13018     13018     13019     13018     13020     13018     13021
     13021     13022     13021     13023     13021     13024     13024     13025
     13024     13026     13024     13027     13027     13028     13027     13029
     13027     13030     13030     13031     13030     13032     13030     13033
     13033     13034     13033     13035     13033     13036     13036     13037
     13036     13038     13036     13039     13039     13040     13039     13041
     13039     13042      7471      7472      7471      7473      7471      7474
      7471      7475      7475      7476      7475      7477      7475      7478
      7478      7479      7478      7480      7478      7485      7485      7481
      7481      7484      7481      7482      7481      7483      7486      7487
      7486      7488      7486      7489      7486      7484      7489      7490
      7489      7497      7489      7491      7497      7498      7497      7499
      7497      7500      7491      7492      7492      7494      7492      7493
      7494      7495      7494      7496      7494      7506      7506      7507
      7506      7508      7506      7509      7509      7510      7509      7511
      7509      7512      7512      7513      7512      7514      7512      7515
      7515      7516      7515      7517      7515      7518      7518      7519
      7518      7520      7518      7521      7521      7522      7521      7523
      7521      7524      7524      7525      7524      7526      7526      7527
      7526      7528      7528      7529      7528      7530      7528      7531
      7531      7532      7531      7533      7531      7534      7534      7535
      7534      7536      7534      7537      7537      7538      7537      7539
      7537      7540      7540      7541      7540      7542      7540      7543
      7543      7544      7543      7545      7543      7546      7546      7547
      7546      7548      7546      7549      7549      7550      7549      7551
      7549      7552      7500      7501      7501      7503      7501      7502
      7503      7504      7503      7505      7503      7553      7553      7554
      7553      7555      7553      7556      7556      7557      7556      7558
      7556      7559      7559      7560      7559      7561      7559      7562
      7562      7563      7562      7564      7562      7565      7565      7566
      7565      7567      7565      7568      7568      7569      7568      7570
      7568      7571      7571      7572      7571      7573      7571      7574
      7574      7575      7574      7576      7574      7577      7577      7578
      7577      7579      7577      7580      7580      7581      7580      7582
      7580      7583      7583      7584      7583      7585      7583      7586
      7586      7587      7586      7588      7586      7589      7589      7590
      7589      7591      7589      7592      7592      7593      7592      7594
      7592      7595     13043     13044     13043     13045     13043     13046
     13043     13047     13051     13049     13049     13047     13049     13050
     13047     13048     13047     13052     13060     13059     13052     13053
     13052     13054     13052     13058     13058     13055     13055     13059
     13055     13056     13055     13057     13060     13061     13060     13062
     13060     13063     13063     13064     13063     13071     13063     13065
     13071     13072     13071     13073     13071     13074     13065     13066
     13066     13068     13066     13067     13068     13069     13068     13070
     13068     13080     13080     13081     13080     13082     13080     13083
     13083     13084     13083     13085     13083     13086     13086     13087
     13086     13088     13086     13089     13089     13090     13089     13091
     13089     13092     13092     13093     13092     13094     13092     13095
     13095     13096     13095     13097     13095     13098     13098     13099
     13098     13100     13100     13101     13100     13102     13102     13103
     13102     13104     13102     13105     13105     13106     13105     13107
     13105     13108     13108     13109     13108     13110     13108     13111
     13111     13112     13111     13113     13111     13114     13114     13115
     13114     13116     13114     13117     13117     13118     13117     13119
     13117     13120     13120     13121     13120     13122     13120     13123
     13123     13124     13123     13125     13123     13126     13074     13075
     13075     13077     13075     13076     13077     13078     13077     13079
     13077     13127     13127     13128     13127     13129     13127     13130
     13130     13131     13130     13132     13130     13133     13133     13134
     13133     13135     13133     13136     13136     13137     13136     13138
     13136     13139     13139     13140     13139     13141     13139     13142
     13142     13143     13142     13144     13142     13145     13145     13146
     13145     13147     13145     13148     13148     13149     13148     13150
     13148     13151     13151     13152     13151     13153     13151     13154
     13154     13155     13154     13156     13154     13157     13157     13158
     13157     13159     13157     13160     13160     13161     13160     13162
     13160     13163     13163     13164     13163     13165     13163     13166
     13166     13167     13166     13168     13166     13169      7596      7597
      7596      7598      7596      7599      7596      7600      7600      7601
      7600      7602      7600      7603      7603      7604      7603      7605
      7603      7610      7610      7606      7606      7609      7606      7607
      7606      7608      7611      7612      7611      7613      7611      7614
      7611      7609      7614      7615      7614      7622      7614      7616
      7622      7623      7622      7624      7622      7625      7616      7617
      7617      7619      7617      7618      7619      7620      7619      7621
      7619      7631      7631      7632      7631      7633      7631      7634
      7634      7635      7634      7636      7634      7637      7637      7638
      7637      7639      7637      7640      7640      7641      7640      7642
      7640      7643      7643      7644      7643      7645      7643      7646
      7646      7647      7646      7648      7646      7649      7649      7650
      7649      7651      7651      7652      7651      7653      7653      7654
      7653      7655      7653      7656      7656      7657      7656      7658
      7656      7659      7659      7660      7659      7661      7659      7662
      7662      7663      7662      7664      7662      7665      7665      7666
      7665      7667      7665      7668      7668      7669      7668      7670
      7668      7671      7671      7672      7671      7673      7671      7674
      7674      7675      7674      7676      7674      7677      7625      7626
      7626      7628      7626      7627      7628      7629      7628      7630
      7628      7678      7678      7679      7678      7680      7678      7681
      7681      7682      7681      7683      7681      7684      7684      7685
      7684      7686      7684      7687      7687      7688      7687      7689
      7687      7690      7690      7691      7690      7692      7690      7693
      7693      7694      7693      7695      7693      7696      7696      7697
      7696      7698      7696      7699      7699      7700      7699      7701
      7699      7702      7702      7703      7702      7704      7702      7705
      7705      7706      7705      7707      7705      7708      7708      7709
      7708      7710      7708      7711      7711      7712      7711      7713
      7711      7714      7714      7715      7714      7716      7714      7717
      7717      7718      7717      7719      7717      7720     20653     20657
     20653     20661     20653     20665     20657     20658     20657     20659
     20657     20660     20661     20662     20661     20663     20661     20664
     20665     20666     20665     20667     20665     20668     20653     20654
     20654     20655     20654     20656     20654     20669     20669     20670
     20669     20671     20669     20675     20676     20677     20675     20672
     20672     20676     20672     20673     20672     20674     20677     20678
     20677     20679     20677     20680     20680     20681     20680     20688
     20680     20682     20688     20689     20688     20690     20688     20691
     20682     20683     20683     20685     20683     20684     20685     20686
     20685     20687     20685     20697     20697     20698     20697     20699
     20697     20700     20700     20701     20700     20702     20700     20703
     20703     20704     20703     20705     20703     20706     20706     20707
     20706     20708     20706     20709     20709     20710     20709     20711
     20709     20712     20712     20713     20712     20714     20712     20715
     20715     20716     20715     20717     20717     20718     20717     20719
     20719     20720     20719     20721     20719     20722     20722     20723
     20722     20724     20722     20725     20725     20726     20725     20727
     20725     20728     20728     20729     20728     20730     20728     20731
     20731     20732     20731     20733     20731     20734     20734     20735
     20734     20736     20734     20737     20737     20738     20737     20739
     20737     20740     20740     20741     20740     20742     20740     20743
     20691     20692     20692     20694     20692     20693     20694     20695
     20694     20696     20694     20744     20744     20745     20744     20746
     20744     20747     20747     20748     20747     20749     20747     20750
     20750     20751     20750     20752     20750     20753     20753     20754
     20753     20755     20753     20756     20756     20757     20756     20758
     20756     20759     20759     20760     20759     20761     20759     20762
     20762     20763     20762     20764     20762     20765     20765     20766
     20765     20767     20765     20768     20768     20769     20768     20770
     20768     20771     20771     20772     20771     20773     20771     20774
     20774     20775     20774     20776     20774     20777     20777     20778
     20777     20779     20777     20780     20780     20781     20780     20782
     20780     20783     20783     20784     20783     20785     20783     20786
     20787     20791     20787     20795     20787     20799     20791     20792
     20791     20793     20791     20794     20795     20796     20795     20797
     20795     20798     20799     20800     20799     20801     20799     20802
     20787     20788     20788     20789     20788     20790     20788     20803
     20803     20804     20803     20805     20803     20809     20810     20811
     20809     20806     20806     20810     20806     20807     20806     20808
     20811     20812     20811     20813     20811     20814     20814     20815
     20814     20822     20814     20816     20822     20823     20822     20824
     20822     20825     20816     20817     20817     20819     20817     20818
     20819     20820     20819     20821     20819     20831     20831     20832
     20831     20833     20831     20834     20834     20835     20834     20836
     20834     20837     20837     20838     20837     20839     20837     20840
     20840     20841     20840     20842     20840     20843     20843     20844
     20843     20845     20843     20846     20846     20847     20846     20848
     20846     20849     20849     20850     20849     20851     20851     20852
     20851     20853     20853     20854     20853     20855     20853     20856
     20856     20857     20856     20858     20856     20859     20859     20860
     20859     20861     20859     20862     20862     20863     20862     20864
     20862     20865     20865     20866     20865     20867     20865     20868
     20868     20869     20868     20870     20868     20871     20871     20872
     20871     20873     20871     20874     20874     20875     20874     20876
     20874     20877     20825     20826     20826     20828     20826     20827
     20828     20829     20828     20830     20828     20878     20878     20879
     20878     20880     20878     20881     20881     20882     20881     20883
     20881     20884     20884     20885     20884     20886     20884     20887
     20887     20888     20887     20889     20887     20890     20890     20891
     20890     20892     20890     20893     20893     20894     20893     20895
     20893     20896     20896     20897     20896     20898     20896     20899
     20899     20900     20899     20901     20899     20902     20902     20903
     20902     20904     20902     20905     20905     20906     20905     20907
     20905     20908     20908     20909     20908     20910     20908     20911
     20911     20912     20911     20913     20911     20914     20914     20915
     20914     20916     20914     20917     20917     20918     20917     20919
     20917     20920      7721      7722      7721      7723      7721      7724
      7721      7725      7725      7726      7725      7727      7725      7728
      7728      7729      7728      7730      7728      7735      7735      7731
      7731      7734      7731      7732      7731      7733      7736      7737
      7736      7738      7736      7739      7736      7734      7739      7740
      7739      7747      7739      7741      7747      7748      7747      7749
      7747      7750      7741      7742      7742      7744      7742      7743
      7744      7745      7744      7746      7744      7756      7756      7757
      7756      7758      7756      7759      7759      7760      7759      7761
      7759      7762      7762      7763      7762      7764      7762      7765
      7765      7766      7765      7767      7765      7768      7768      7769
      7768      7770      7768      7771      7771      7772      7771      7773
      7771      7774      7774      7775      7774      7776      7776      7777
      7776      7778      7778      7779      7778      7780      7778      7781
      7781      7782      7781      7783      7781      7784      7784      7785
      7784      7786      7784      7787      7787      7788      7787      7789
      7787      7790      7790      7791      7790      7792      7790      7793
      7793      7794      7793      7795      7793      7796      7796      7797
      7796      7798      7796      7799      7799      7800      7799      7801
      7799      7802      7750      7751      7751      7753      7751      7752
      7753      7754      7753      7755      7753      7803      7803      7804
      7803      7805      7803      7806      7806      7807      7806      7808
      7806      7809      7809      7810      7809      7811      7809      7812
      7812      7813      7812      7814      7812      7815      7815      7816
      7815      7817      7815      7818      7818      7819      7818      7820
      7818      7821      7821      7822      7821      7823      7821      7824
      7824      7825      7824      7826      7824      7827      7827      7828
      7827      7829      7827      7830      7830      7831      7830      7832
      7830      7833      7833      7834      7833      7835      7833      7836
      7836      7837      7836      7838      7836      7839      7839      7840
      7839      7841      7839      7842      7842      7843      7842      7844
      7842      7845     20921     20925     20921     20929     20921     20933
     20925     20926     20925     20927     20925     20928     20929     20930
     20929     20931     20929     20932     20933     20934     20933     20935
     20933     20936     20921     20922     20922     20923     20922     20924
     20922     20937     20937     20938     20937     20939     20937     20943
     20944     20945     20943     20940     20940     20944     20940     20941
     20940     20942     20945     20946     20945     20947     20945     20948
     20948     20949     20948     20956     20948     20950     20956     20957
     20956     20958     20956     20959     20950     20951     20951     20953
     20951     20952     20953     20954     20953     20955     20953     20965
     20965     20966     20965     20967     20965     20968     20968     20969
     20968     20970     20968     20971     20971     20972     20971     20973
     20971     20974     20974     20975     20974     20976     20974     20977
     20977     20978     20977     20979     20977     20980     20980     20981
     20980     20982     20980     20983     20983     20984     20983     20985
     20985     20986     20985     20987     20987     20988     20987     20989
     20987     20990     20990     20991     20990     20992     20990     20993
     20993     20994     20993     20995     20993     20996     20996     20997
     20996     20998     20996     20999     20999     21000     20999     21001
     20999     21002     21002     21003     21002     21004     21002     21005
     21005     21006     21005     21007     21005     21008     21008     21009
     21008     21010     21008     21011     20959     20960     20960     20962
     20960     20961     20962     20963     20962     20964     20962     21012
     21012     21013     21012     21014     21012     21015     21015     21016
     21015     21017     21015     21018     21018     21019     21018     21020
     21018     21021     21021     21022     21021     21023     21021     21024
     21024     21025     21024     21026     21024     21027     21027     21028
     21027     21029     21027     21030     21030     21031     21030     21032
     21030     21033     21033     21034     21033     21035     21033     21036
     21036     21037     21036     21038     21036     21039     21039     21040
     21039     21041     21039     21042     21042     21043     21042     21044
     21042     21045     21045     21046     21045     21047     21045     21048
     21048     21049     21048     21050     21048     21051     21051     21052
     21051     21053     21051     21054     13170     13171     13170     13172
     13170     13173     13170     13174     13178     13176     13176     13174
     13176     13177     13174     13175     13174     13179     13187     13186
     13179     13180     13179     13181     13179     13185     13185     13182
     13182     13186     13182     13183     13182     13184     13187     13188
     13187     13189     13187     13190     13190     13191     13190     13198
     13190     13192     13198     13199     13198     13200     13198     13201
     13192     13193     13193     13195     13193     13194     13195     13196
     13195     13197     13195     13207     13207     13208     13207     13209
     13207     13210     13210     13211     13210     13212     13210     13213
     13213     13214     13213     13215     13213     13216     13216     13217
     13216     13218     13216     13219     13219     13220     13219     13221
     13219     13222     13222     13223     13222     13224     13222     13225
     13225     13226     13225     13227     13227     13228     13227     13229
     13229     13230     13229     13231     13229     13232     13232     13233
     13232     13234     13232     13235     13235     13236     13235     13237
     13235     13238     13238     13239     13238     13240     13238     13241
     13241     13242     13241     13243     13241     13244     13244     13245
     13244     13246     13244     13247     13247     13248     13247     13249
     13247     13250     13250     13251     13250     13252     13250     13253
     13201     13202     13202     13204     13202     13203     13204     13205
     13204     13206     13204     13254     13254     13255     13254     13256
     13254     13257     13257     13258     13257     13259     13257     13260
     13260     13261     13260     13262     13260     13263     13263     13264
     13263     13265     13263     13266     13266     13267     13266     13268
     13266     13269     13269     13270     13269     13271     13269     13272
     13272     13273     13272     13274     13272     13275     13275     13276
     13275     13277     13275     13278     13278     13279     13278     13280
     13278     13281     13281     13282     13281     13283     13281     13284
     13284     13285     13284     13286     13284     13287     13287     13288
     13287     13289     13287     13290     13290     13291     13290     13292
     13290     13293     13293     13294     13293     13295     13293     13296
     21055     21059     21055     21063     21055     21067     21059     21060
     21059     21061     21059     21062     21063     21064     21063     21065
     21063     21066     21067     21068     21067     21069     21067     21070
     21055     21056     21056     21057     21056     21058     21056     21071
     21071     21072     21071     21073     21071     21077     21078     21079
     21077     21074     21074     21078     21074     21075     21074     21076
     21079     21080     21079     21081     21079     21082     21082     21083
     21082     21090     21082     21084     21090     21091     21090     21092
     21090     21093     21084     21085     21085     21087     21085     21086
     21087     21088     21087     21089     21087     21099     21099     21100
     21099     21101     21099     21102     21102     21103     21102     21104
     21102     21105     21105     21106     21105     21107     21105     21108
     21108     21109     21108     21110     21108     21111     21111     21112
     21111     21113     21111     21114     21114     21115     21114     21116
     21114     21117     21117     21118     21117     21119     21119     21120
     21119     21121     21121     21122     21121     21123     21121     21124
     21124     21125     21124     21126     21124     21127     21127     21128
     21127     21129     21127     21130     21130     21131     21130     21132
     21130     21133     21133     21134     21133     21135     21133     21136
     21136     21137     21136     21138     21136     21139     21139     21140
     21139     21141     21139     21142     21142     21143     21142     21144
     21142     21145     21093     21094     21094     21096     21094     21095
     21096     21097     21096     21098     21096     21146     21146     21147
     21146     21148     21146     21149     21149     21150     21149     21151
     21149     21152     21152     21153     21152     21154     21152     21155
     21155     21156     21155     21157     21155     21158     21158     21159
     21158     21160     21158     21161     21161     21162     21161     21163
     21161     21164     21164     21165     21164     21166     21164     21167
     21167     21168     21167     21169     21167     21170     21170     21171
     21170     21172     21170     21173     21173     21174     21173     21175
     21173     21176     21176     21177     21176     21178     21176     21179
     21179     21180     21179     21181     21179     21182     21182     21183
     21182     21184     21182     21185     21185     21186     21185     21187
     21185     21188      7846      7847      7846      7848      7846      7849
      7846      7850      7850      7851      7850      7852      7850      7853
      7853      7854      7853      7855      7853      7860      7860      7856
      7856      7859      7856      7857      7856      7858      7861      7862
      7861      7863      7861      7864      7861      7859      7864      7865
      7864      7872      7864      7866      7872      7873      7872      7874
      7872      7875      7866      7867      7867      7869      7867      7868
      7869      7870      7869      7871      7869      7881      7881      7882
      7881      7883      7881      7884      7884      7885      7884      7886
      7884      7887      7887      7888      7887      7889      7887      7890
      7890      7891      7890      7892      7890      7893      7893      7894
      7893      7895      7893      7896      7896      7897      7896      7898
      7896      7899      7899      7900      7899      7901      7901      7902
      7901      7903      7903      7904      7903      7905      7903      7906
      7906      7907      7906      7908      7906      7909      7909      7910
      7909      7911      7909      7912      7912      7913      7912      7914
      7912      7915      7915      7916      7915      7917      7915      7918
      7918      7919      7918      7920      7918      7921      7921      7922
      7921      7923      7921      7924      7924      7925      7924      7926
      7924      7927      7875      7876      7876      7878      7876      7877
      7878      7879      7878      7880      7878      7928      7928      7929
      7928      7930      7928      7931      7931      7932      7931      7933
      7931      7934      7934      7935      7934      7936      7934      7937
      7937      7938      7937      7939      7937      7940      7940      7941
      7940      7942      7940      7943      7943      7944      7943      7945
      7943      7946      7946      7947      7946      7948      7946      7949
      7949      7950      7949      7951      7949      7952      7952      7953
      7952      7954      7952      7955      7955      7956      7955      7957
      7955      7958      7958      7959      7958      7960      7958      7961
      7961      7962      7961      7963      7961      7964      7964      7965
      7964      7966      7964      7967      7967      7968      7967      7969
      7967      7970     21189     21193     21189     21197     21189     21201
     21193     21194     21193     21195     21193     21196     21197     21198
     21197     21199     21197     21200     21201     21202     21201     21203
     21201     21204     21189     21190     21190     21191     21190     21192
     21190     21205     21205     21206     21205     21207     21205     21211
     21212     21213     21211     21208     21208     21212     21208     21209
     21208     21210     21213     21214     21213     21215     21213     21216
     21216     21217     21216     21224     21216     21218     21224     21225
     21224     21226     21224     21227     21218     21219     21219     21221
     21219     21220     21221     21222     21221     21223     21221     21233
     21233     21234     21233     21235     21233     21236     21236     21237
     21236     21238     21236     21239     21239     21240     21239     21241
     21239     21242     21242     21243     21242     21244     21242     21245
     21245     21246     21245     21247     21245     21248     21248     21249
     21248     21250     21248     21251     21251     21252     21251     21253
     21253     21254     21253     21255     21255     21256     21255     21257
     21255     21258     21258     21259     21258     21260     21258     21261
     21261     21262     21261     21263     21261     21264     21264     21265
     21264     21266     21264     21267     21267     21268     21267     21269
     21267     21270     21270     21271     21270     21272     21270     21273
     21273     21274     21273     21275     21273     21276     21276     21277
     21276     21278     21276     21279     21227     21228     21228     21230
     21228     21229     21230     21231     21230     21232     21230     21280
     21280     21281     21280     21282     21280     21283     21283     21284
     21283     21285     21283     21286     21286     21287     21286     21288
     21286     21289     21289     21290     21289     21291     21289     21292
     21292     21293     21292     21294     21292     21295     21295     21296
     21295     21297     21295     21298     21298     21299     21298     21300
     21298     21301     21301     21302     21301     21303     21301     21304
     21304     21305     21304     21306     21304     21307     21307     21308
     21307     21309     21307     21310     21310     21311     21310     21312
     21310     21313     21313     21314     21313     21315     21313     21316
     21316     21317     21316     21318     21316     21319     21319     21320
     21319     21321     21319     21322      7971      7972      7971      7973
      7971      7974      7971      7975      7975      7976      7975      7977
      7975      7978      7978      7979      7978      7980      7978      7985
      7985      7981      7981      7984      7981      7982      7981      7983
      7986      7987      7986      7988      7986      7989      7986      7984
      7989      7990      7989      7997      7989      7991      7997      7998
      7997      7999      7997      8000      7991      7992      7992      7994
      7992      7993      7994      7995      7994      7996      7994      8006
      8006      8007      8006      8008      8006      8009      8009      8010
      8009      8011      8009      8012      8012      8013      8012      8014
      8012      8015      8015      8016      8015      8017      8015      8018
      8018      8019      8018      8020      8018      8021      8021      8022
      8021      8023      8021      8024      8024      8025      8024      8026
      8026      8027      8026      8028      8028      8029      8028      8030
      8028      8031      8031      8032      8031      8033      8031      8034
      8034      8035      8034      8036      8034      8037      8037      8038
      8037      8039      8037      8040      8040      8041      8040      8042
      8040      8043      8043      8044      8043      8045      8043      8046
      8046      8047      8046      8048      8046      8049      8049      8050
      8049      8051      8049      8052      8000      8001      8001      8003
      8001      8002      8003      8004      8003      8005      8003      8053
      8053      8054      8053      8055      8053      8056      8056      8057
      8056      8058      8056      8059      8059      8060      8059      8061
      8059      8062      8062      8063      8062      8064      8062      8065
      8065      8066      8065      8067      8065      8068      8068      8069
      8068      8070      8068      8071      8071      8072      8071      8073
      8071      8074      8074      8075      8074      8076      8074      8077
      8077      8078      8077      8079      8077      8080      8080      8081
      8080      8082      8080      8083      8083      8084      8083      8085
      8083      8086      8086      8087      8086      8088      8086      8089
      8089      8090      8089      8091      8089      8092      8092      8093
      8092      8094      8092      8095     22707     22708     22707     22703
     22707     22687     22707     22712     22687     22688     22687     22689
     22689     22690     22687     22691     22691     22692     22691     22693
     22693     22694     22691     22695     22695     22696     22695     22697
     22697     22698     22695     22699     22699     22700     22699     22703
     22703     22704     22703     22705     22705     22706     22699     22701
     22701     22702     22712     22709     22709     22713     22709     22710
     22709     22711     22713     22714     22714     22715     22714     22716
     22714     22717     22717     22718     22717     22725     22717     22719
     22725     22726     22725     22727     22725     22728     22719     22720
     22720     22722     22720     22721     22722     22723     22722     22724
     22722     22734     22734     22735     22734     22736     22734     22737
     22737     22738     22737     22739     22737     22740     22740     22741
     22740     22742     22740     22743     22743     22744     22743     22745
     22743     22746     22746     22747     22746     22748     22746     22749
     22749     22750     22749     22751     22749     22752     22752     22753
     22752     22754     22754     22755     22754     22756     22756     22757
     22756     22758     22756     22759     22759     22760     22759     22761
     22759     22762     22762     22763     22762     22764     22762     22765
     22765     22766     22765     22767     22765     22768     22768     22769
     22768     22770     22768     22771     22771     22772     22771     22773
     22771     22774     22774     22775     22774     22776     22774     22777
     22777     22778     22777     22779     22777     22780     22728     22729
     22729     22731     22729     22730     22731     22732     22731     22733
     22731     22781     22781     22782     22781     22783     22781     22784
     22784     22785     22784     22786     22784     22787     22787     22788
     22787     22789     22787     22790     22790     22791     22790     22792
     22790     22793     22793     22794     22793     22795     22793     22796
     22796     22797     22796     22798     22796     22799     22799     22800
     22799     22801     22799     22802     22802     22803     22802     22804
     22802     22805     22805     22806     22805     22807     22805     22808
     22808     22809     22808     22810     22808     22811     22811     22812
     22811     22813     22811     22814     22814     22815     22814     22816
     22814     22817     22817     22818     22817     22819     22817     22820
     22820     22821     22820     22822     22820     22823      8096      8097
      8096      8098      8096      8099      8096      8100      8100      8101
      8100      8102      8100      8103      8103      8104      8103      8105
      8103      8110      8110      8106      8106      8109      8106      8107
      8106      8108      8111      8112      8111      8113      8111      8114
      8111      8109      8114      8115      8114      8122      8114      8116
      8122      8123      8122      8124      8122      8125      8116      8117
      8117      8119      8117      8118      8119      8120      8119      8121
      8119      8131      8131      8132      8131      8133      8131      8134
      8134      8135      8134      8136      8134      8137      8137      8138
      8137      8139      8137      8140      8140      8141      8140      8142
      8140      8143      8143      8144      8143      8145      8143      8146
      8146      8147      8146      8148      8146      8149      8149      8150
      8149      8151      8151      8152      8151      8153      8153      8154
      8153      8155      8153      8156      8156      8157      8156      8158
      8156      8159      8159      8160      8159      8161      8159      8162
      8162      8163      8162      8164      8162      8165      8165      8166
      8165      8167      8165      8168      8168      8169      8168      8170
      8168      8171      8171      8172      8171      8173      8171      8174
      8174      8175      8174      8176      8174      8177      8125      8126
      8126      8128      8126      8127      8128      8129      8128      8130
      8128      8178      8178      8179      8178      8180      8178      8181
      8181      8182      8181      8183      8181      8184      8184      8185
      8184      8186      8184      8187      8187      8188      8187      8189
      8187      8190      8190      8191      8190      8192      8190      8193
      8193      8194      8193      8195      8193      8196      8196      8197
      8196      8198      8196      8199      8199      8200      8199      8201
      8199      8202      8202      8203      8202      8204      8202      8205
      8205      8206      8205      8207      8205      8208      8208      8209
      8208      8210      8208      8211      8211      8212      8211      8213
      8211      8214      8214      8215      8214      8216      8214      8217
      8217      8218      8217      8219      8217      8220      2073      2075
      2073      2074      2075      2076      2073      2119      2119      2120
      2119      2121      2119      2116      2116      2117      2116      2118
      2073      2077      2077      2078      2077      2079      2077      2080
      2080      2111      2111      2116      2111      2112      2112      2113
      2112      2114      2112      2115      2080      2081      2081      2082
      2081      2083      2083      2084      2083      2085      2083      2086
      2086      2087      2086      2109      2109      2110      2109      2111
      2086      2088      2088      2089      2088      2098      2098      2103
      2103      2104      2103      2105      2103      2106      2106      2107
      2106      2108      2106      2109      2098      2099      2099      2100
      2099      2101      2099      2102      2088      2090      2090      2091
      2090      2092      2090      2093      2093      2094      2093      2095
      2093      2096      2096      2097      2096      2098      2096      2122
      2122      2123      2122      2124      2124      2125      2124      2126
      2124      2127      2122      2128      2128      2129      2128      2130
      2128      2131      2131      2132      2131      2133      2131      2134
      2134      2135      2134      2136      2134      2137      2137      2138
      2137      2139      2139      2140      2139      2141      2139      2142
      2137      2143      2143      2144      2143      2145      2143      2146
      8221      8222      8221      8223      8221      8224      8221      8225
      8225      8226      8225      8227      8225      8228      8228      8229
      8228      8230      8228      8235      8235      8231      8231      8234
      8231      8232      8231      8233      8236      8237      8236      8238
      8236      8239      8236      8234      8239      8240      8239      8247
      8239      8241      8247      8248      8247      8249      8247      8250
      8241      8242      8242      8244      8242      8243      8244      8245
      8244      8246      8244      8256      8256      8257      8256      8258
      8256      8259      8259      8260      8259      8261      8259      8262
      8262      8263      8262      8264      8262      8265      8265      8266
      8265      8267      8265      8268      8268      8269      8268      8270
      8268      8271      8271      8272      8271      8273      8271      8274
      8274      8275      8274      8276      8276      8277      8276      8278
      8278      8279      8278      8280      8278      8281      8281      8282
      8281      8283      8281      8284      8284      8285      8284      8286
      8284      8287      8287      8288      8287      8289      8287      8290
      8290      8291      8290      8292      8290      8293      8293      8294
      8293      8295      8293      8296      8296      8297      8296      8298
      8296      8299      8299      8300      8299      8301      8299      8302
      8250      8251      8251      8253      8251      8252      8253      8254
      8253      8255      8253      8303      8303      8304      8303      8305
      8303      8306      8306      8307      8306      8308      8306      8309
      8309      8310      8309      8311      8309      8312      8312      8313
      8312      8314      8312      8315      8315      8316      8315      8317
      8315      8318      8318      8319      8318      8320      8318      8321
      8321      8322      8321      8323      8321      8324      8324      8325
      8324      8326      8324      8327      8327      8328      8327      8329
      8327      8330      8330      8331      8330      8332      8330      8333
      8333      8334      8333      8335      8333      8336      8336      8337
      8336      8338      8336      8339      8339      8340      8339      8341
      8339      8342      8342      8343      8342      8344      8342      8345
      2147      2149      2147      2148      2149      2150      2147      2193
      2193      2194      2193      2195      2193      2190      2190      2191
      2190      2192      2147      2151      2151      2152      2151      2153
      2151      2154      2154      2185      2185      2190      2185      2186
      2186      2187      2186      2188      2186      2189      2154      2155
      2155      2156      2155      2157      2157      2158      2157      2159
      2157      2160      2160      2161      2160      2183      2183      2184
      2183      2185      2160      2162      2162      2163      2162      2172
      2172      2177      2177      2178      2177      2179      2177      2180
      2180      2181      2180      2182      2180      2183      2172      2173
      2173      2174      2173      2175      2173      2176      2162      2164
      2164      2165      2164      2166      2164      2167      2167      2168
      2167      2169      2167      2170      2170      2171      2170      2172
      2170      2196      2196      2197      2196      2198      2198      2199
      2198      2200      2198      2201      2196      2202      2202      2203
      2202      2204      2202      2205      2205      2206      2205      2207
      2205      2208      2208      2209      2208      2210      2208      2211
      2211      2212      2211      2213      2213      2214      2213      2215
      2213      2216      2211      2217      2217      2218      2217      2219
      2217      2220      8346      8347      8346      8348      8346      8349
      8346      8350      8350      8351      8350      8352      8350      8353
      8353      8354      8353      8355      8353      8360      8360      8356
      8356      8359      8356      8357      8356      8358      8361      8362
      8361      8363      8361      8364      8361      8359      8364      8365
      8364      8372      8364      8366      8372      8373      8372      8374
      8372      8375      8366      8367      8367      8369      8367      8368
      8369      8370      8369      8371      8369      8381      8381      8382
      8381      8383      8381      8384      8384      8385      8384      8386
      8384      8387      8387      8388      8387      8389      8387      8390
      8390      8391      8390      8392      8390      8393      8393      8394
      8393      8395      8393      8396      8396      8397      8396      8398
      8396      8399      8399      8400      8399      8401      8401      8402
      8401      8403      8403      8404      8403      8405      8403      8406
      8406      8407      8406      8408      8406      8409      8409      8410
      8409      8411      8409      8412      8412      8413      8412      8414
      8412      8415      8415      8416      8415      8417      8415      8418
      8418      8419      8418      8420      8418      8421      8421      8422
      8421      8423      8421      8424      8424      8425      8424      8426
      8424      8427      8375      8376      8376      8378      8376      8377
      8378      8379      8378      8380      8378      8428      8428      8429
      8428      8430      8428      8431      8431      8432      8431      8433
      8431      8434      8434      8435      8434      8436      8434      8437
      8437      8438      8437      8439      8437      8440      8440      8441
      8440      8442      8440      8443      8443      8444      8443      8445
      8443      8446      8446      8447      8446      8448      8446      8449
      8449      8450      8449      8451      8449      8452      8452      8453
      8452      8454      8452      8455      8455      8456      8455      8457
      8455      8458      8458      8459      8458      8460      8458      8461
      8461      8462      8461      8463      8461      8464      8464      8465
      8464      8466      8464      8467      8467      8468      8467      8469
      8467      8470     21323     21327     21323     21331     21323     21335
     21327     21328     21327     21329     21327     21330     21331     21332
     21331     21333     21331     21334     21335     21336     21335     21337
     21335     21338     21323     21324     21324     21325     21324     21326
     21324     21339     21339     21340     21339     21341     21339     21345
     21346     21347     21345     21342     21342     21346     21342     21343
     21342     21344     21347     21348     21347     21349     21347     21350
     21350     21351     21350     21358     21350     21352     21358     21359
     21358     21360     21358     21361     21352     21353     21353     21355
     21353     21354     21355     21356     21355     21357     21355     21367
     21367     21368     21367     21369     21367     21370     21370     21371
     21370     21372     21370     21373     21373     21374     21373     21375
     21373     21376     21376     21377     21376     21378     21376     21379
     21379     21380     21379     21381     21379     21382     21382     21383
     21382     21384     21382     21385     21385     21386     21385     21387
     21387     21388     21387     21389     21389     21390     21389     21391
     21389     21392     21392     21393     21392     21394     21392     21395
     21395     21396     21395     21397     21395     21398     21398     21399
     21398     21400     21398     21401     21401     21402     21401     21403
     21401     21404     21404     21405     21404     21406     21404     21407
     21407     21408     21407     21409     21407     21410     21410     21411
     21410     21412     21410     21413     21361     21362     21362     21364
     21362     21363     21364     21365     21364     21366     21364     21414
     21414     21415     21414     21416     21414     21417     21417     21418
     21417     21419     21417     21420     21420     21421     21420     21422
     21420     21423     21423     21424     21423     21425     21423     21426
     21426     21427     21426     21428     21426     21429     21429     21430
     21429     21431     21429     21432     21432     21433     21432     21434
     21432     21435     21435     21436     21435     21437     21435     21438
     21438     21439     21438     21440     21438     21441     21441     21442
     21441     21443     21441     21444     21444     21445     21444     21446
     21444     21447     21447     21448     21447     21449     21447     21450
     21450     21451     21450     21452     21450     21453     21453     21454
     21453     21455     21453     21456     13297     13298     13297     13299
     13297     13300     13297     13301     13305     13303     13303     13301
     13303     13304     13301     13302     13301     13306     13314     13313
     13306     13307     13306     13308     13306     13312     13312     13309
     13309     13313     13309     13310     13309     13311     13314     13315
     13314     13316     13314     13317     13317     13318     13317     13325
     13317     13319     13325     13326     13325     13327     13325     13328
     13319     13320     13320     13322     13320     13321     13322     13323
     13322     13324     13322     13334     13334     13335     13334     13336
     13334     13337     13337     13338     13337     13339     13337     13340
     13340     13341     13340     13342     13340     13343     13343     13344
     13343     13345     13343     13346     13346     13347     13346     13348
     13346     13349     13349     13350     13349     13351     13349     13352
     13352     13353     13352     13354     13354     13355     13354     13356
     13356     13357     13356     13358     13356     13359     13359     13360
     13359     13361     13359     13362     13362     13363     13362     13364
     13362     13365     13365     13366     13365     13367     13365     13368
     13368     13369     13368     13370     13368     13371     13371     13372
     13371     13373     13371     13374     13374     13375     13374     13376
     13374     13377     13377     13378     13377     13379     13377     13380
     13328     13329     13329     13331     13329     13330     13331     13332
     13331     13333     13331     13381     13381     13382     13381     13383
     13381     13384     13384     13385     13384     13386     13384     13387
     13387     13388     13387     13389     13387     13390     13390     13391
     13390     13392     13390     13393     13393     13394     13393     13395
     13393     13396     13396     13397     13396     13398     13396     13399
     13399     13400     13399     13401     13399     13402     13402     13403
     13402     13404     13402     13405     13405     13406     13405     13407
     13405     13408     13408     13409     13408     13410     13408     13411
     13411     13412     13411     13413     13411     13414     13414     13415
     13414     13416     13414     13417     13417     13418     13417     13419
     13417     13420     13420     13421     13420     13422     13420     13423
     13424     13425     13424     13426     13424     13427     13424     13428
     13432     13430     13430     13428     13430     13431     13428     13429
     13428     13433     13441     13440     13433     13434     13433     13435
     13433     13439     13439     13436     13436     13440     13436     13437
     13436     13438     13441     13442     13441     13443     13441     13444
     13444     13445     13444     13452     13444     13446     13452     13453
     13452     13454     13452     13455     13446     13447     13447     13449
     13447     13448     13449     13450     13449     13451     13449     13461
     13461     13462     13461     13463     13461     13464     13464     13465
     13464     13466     13464     13467     13467     13468     13467     13469
     13467     13470     13470     13471     13470     13472     13470     13473
     13473     13474     13473     13475     13473     13476     13476     13477
     13476     13478     13476     13479     13479     13480     13479     13481
     13481     13482     13481     13483     13483     13484     13483     13485
     13483     13486     13486     13487     13486     13488     13486     13489
     13489     13490     13489     13491     13489     13492     13492     13493
     13492     13494     13492     13495     13495     13496     13495     13497
     13495     13498     13498     13499     13498     13500     13498     13501
     13501     13502     13501     13503     13501     13504     13504     13505
     13504     13506     13504     13507     13455     13456     13456     13458
     13456     13457     13458     13459     13458     13460     13458     13508
     13508     13509     13508     13510     13508     13511     13511     13512
     13511     13513     13511     13514     13514     13515     13514     13516
     13514     13517     13517     13518     13517     13519     13517     13520
     13520     13521     13520     13522     13520     13523     13523     13524
     13523     13525     13523     13526     13526     13527     13526     13528
     13526     13529     13529     13530     13529     13531     13529     13532
     13532     13533     13532     13534     13532     13535     13535     13536
     13535     13537     13535     13538     13538     13539     13538     13540
     13538     13541     13541     13542     13541     13543     13541     13544
     13544     13545     13544     13546     13544     13547     13547     13548
     13547     13549     13547     13550     21457     21461     21457     21465
     21457     21469     21461     21462     21461     21463     21461     21464
     21465     21466     21465     21467     21465     21468     21469     21470
     21469     21471     21469     21472     21457     21458     21458     21459
     21458     21460     21458     21473     21473     21474     21473     21475
     21473     21479     21480     21481     21479     21476     21476     21480
     21476     21477     21476     21478     21481     21482     21481     21483
     21481     21484     21484     21485     21484     21492     21484     21486
     21492     21493     21492     21494     21492     21495     21486     21487
     21487     21489     21487     21488     21489     21490     21489     21491
     21489     21501     21501     21502     21501     21503     21501     21504
     21504     21505     21504     21506     21504     21507     21507     21508
     21507     21509     21507     21510     21510     21511     21510     21512
     21510     21513     21513     21514     21513     21515     21513     21516
     21516     21517     21516     21518     21516     21519     21519     21520
     21519     21521     21521     21522     21521     21523     21523     21524
     21523     21525     21523     21526     21526     21527     21526     21528
     21526     21529     21529     21530     21529     21531     21529     21532
     21532     21533     21532     21534     21532     21535     21535     21536
     21535     21537     21535     21538     21538     21539     21538     21540
     21538     21541     21541     21542     21541     21543     21541     21544
     21544     21545     21544     21546     21544     21547     21495     21496
     21496     21498     21496     21497     21498     21499     21498     21500
     21498     21548     21548     21549     21548     21550     21548     21551
     21551     21552     21551     21553     21551     21554     21554     21555
     21554     21556     21554     21557     21557     21558     21557     21559
     21557     21560     21560     21561     21560     21562     21560     21563
     21563     21564     21563     21565     21563     21566     21566     21567
     21566     21568     21566     21569     21569     21570     21569     21571
     21569     21572     21572     21573     21572     21574     21572     21575
     21575     21576     21575     21577     21575     21578     21578     21579
     21578     21580     21578     21581     21581     21582     21581     21583
     21581     21584     21584     21585     21584     21586     21584     21587
     21587     21588     21587     21589     21587     21590     22844     22845
     22844     22840     22844     22824     22844     22849     22824     22825
     22824     22826     22826     22827     22824     22828     22828     22829
     22828     22830     22830     22831     22828     22832     22832     22833
     22832     22834     22834     22835     22832     22836     22836     22837
     22836     22840     22840     22841     22840     22842     22842     22843
     22836     22838     22838     22839     22849     22846     22846     22850
     22846     22847     22846     22848     22850     22851     22851     22852
     22851     22853     22851     22854     22854     22855     22854     22862
     22854     22856     22862     22863     22862     22864     22862     22865
     22856     22857     22857     22859     22857     22858     22859     22860
     22859     22861     22859     22871     22871     22872     22871     22873
     22871     22874     22874     22875     22874     22876     22874     22877
     22877     22878     22877     22879     22877     22880     22880     22881
     22880     22882     22880     22883     22883     22884     22883     22885
     22883     22886     22886     22887     22886     22888     22886     22889
     22889     22890     22889     22891     22891     22892     22891     22893
     22893     22894     22893     22895     22893     22896     22896     22897
     22896     22898     22896     22899     22899     22900     22899     22901
     22899     22902     22902     22903     22902     22904     22902     22905
     22905     22906     22905     22907     22905     22908     22908     22909
     22908     22910     22908     22911     22911     22912     22911     22913
     22911     22914     22914     22915     22914     22916     22914     22917
     22865     22866     22866     22868     22866     22867     22868     22869
     22868     22870     22868     22918     22918     22919     22918     22920
     22918     22921     22921     22922     22921     22923     22921     22924
     22924     22925     22924     22926     22924     22927     22927     22928
     22927     22929     22927     22930     22930     22931     22930     22932
     22930     22933     22933     22934     22933     22935     22933     22936
     22936     22937     22936     22938     22936     22939     22939     22940
     22939     22941     22939     22942     22942     22943     22942     22944
     22942     22945     22945     22946     22945     22947     22945     22948
     22948     22949     22948     22950     22948     22951     22951     22952
     22951     22953     22951     22954     22954     22955     22954     22956
     22954     22957     22957     22958     22957     22959     22957     22960
     24319     24320     24319     24321     24320     24321     24322     24323
     24322     24324     24323     24324     24325     24326     24325     24327
     24326     24327     24328     24329     24328     24330     24329     24330
     24331     24332     24331     24333     24332     24333     24334     24335
     24334     24336     24335     24336     24337     24338     24337     24339
     24338     24339     24340     24341     24340     24342     24341     24342
     24343     24344     24343     24345     24344     24345     24346     24347
     24346     24348     24347     24348     24349     24350     24349     24351
     24350     24351     24352     24353     24352     24354     24353     24354
     24355     24356     24355     24357     24356     24357     24358     24359
     24358     24360     24359     24360     24361     24362     24361     24363
     24362     24363     24364     24365     24364     24366     24365     24366
     24367     24368     24367     24369     24368     24369     24370     24371
     24370     24372     24371     24372     24373     24374     24373     24375
     24374     24375     24376     24377     24376     24378     24377     24378
     24379     24380     24379     24381     24380     24381     24382     24383
     24382     24384     24383     24384     24385     24386     24385     24387
     24386     24387     24388     24389     24388     24390     24389     24390
     24391     24392     24391     24393     24392     24393     24394     24395
     24394     24396     24395     24396     24397     24398     24397     24399
     24398     24399     24400     24401     24400     24402     24401     24402
     24403     24404     24403     24405     24404     24405     24406     24407
     24406     24408     24407     24408     24409     24410     24409     24411
     24410     24411     24412     24413     24412     24414     24413     24414
     24415     24416     24415     24417     24416     24417     24418     24419
     24418     24420     24419     24420     24421     24422     24421     24423
     24422     24423     24424     24425     24424     24426     24425     24426
     24427     24428     24427     24429     24428     24429     24430     24431
     24430     24432     24431     24432     24433     24434     24433     24435
     24434     24435     24436     24437     24436     24438     24437     24438
     24439     24440     24439     24441     24440     24441     24442     24443
     24442     24444     24443     24444     24445     24446     24445     24447
     24446     24447     24448     24449     24448     24450     24449     24450
     24451     24452     24451     24453     24452     24453     24454     24455
     24454     24456     24455     24456     24457     24458     24457     24459
     24458     24459     24460     24461     24460     24462     24461     24462
     24463     24464     24463     24465     24464     24465     24466     24467
     24466     24468     24467     24468     24469     24470     24469     24471
     24470     24471     24472     24473     24472     24474     24473     24474
     24475     24476     24475     24477     24476     24477     24478     24479
     24478     24480     24479     24480     24481     24482     24481     24483
     24482     24483     24484     24485     24484     24486     24485     24486
     24487     24488     24487     24489     24488     24489     24490     24491
     24490     24492     24491     24492     24493     24494     24493     24495
     24494     24495     24496     24497     24496     24498     24497     24498
     24499     24500     24499     24501     24500     24501     24502     24503
     24502     24504     24503     24504     24505     24506     24505     24507
     24506     24507     24508     24509     24508     24510     24509     24510
     24511     24512     24511     24513     24512     24513     24514     24515
     24514     24516     24515     24516     24517     24518     24517     24519
     24518     24519     24520     24521     24520     24522     24521     24522
     24523     24524     24523     24525     24524     24525     24526     24527
     24526     24528     24527     24528     24529     24530     24529     24531
     24530     24531     24532     24533     24532     24534     24533     24534
     24535     24536     24535     24537     24536     24537     24538     24539
     24538     24540     24539     24540     24541     24542     24541     24543
     24542     24543     24544     24545     24544     24546     24545     24546
     24547     24548     24547     24549     24548     24549     24550     24551
     24550     24552     24551     24552     24553     24554     24553     24555
     24554     24555     24556     24557     24556     24558     24557     24558
     24559     24560     24559     24561     24560     24561     24562     24563
     24562     24564     24563     24564     24565     24566     24565     24567
     24566     24567     24568     24569     24568     24570     24569     24570
     24571     24572     24571     24573     24572     24573     24574     24575
     24574     24576     24575     24576     24577     24578     24577     24579
     24578     24579     24580     24581     24580     24582     24581     24582
     24583     24584     24583     24585     24584     24585     24586     24587
     24586     24588     24587     24588     24589     24590     24589     24591
     24590     24591     24592     24593     24592     24594     24593     24594
     24595     24596     24595     24597     24596     24597     24598     24599
     24598     24600     24599     24600     24601     24602     24601     24603
     24602     24603     24604     24605     24604     24606     24605     24606
     24607     24608     24607     24609     24608     24609     24610     24611
     24610     24612     24611     24612     24613     24614     24613     24615
     24614     24615     24616     24617     24616     24618     24617     24618
     24619     24620     24619     24621     24620     24621     24622     24623
     24622     24624     24623     24624     24625     24626     24625     24627
     24626     24627     24628     24629     24628     24630     24629     24630
     24631     24632     24631     24633     24632     24633     24634     24635
     24634     24636     24635     24636     24637     24638     24637     24639
     24638     24639     24640     24641     24640     24642     24641     24642
     24643     24644     24643     24645     24644     24645     24646     24647
     24646     24648     24647     24648     24649     24650     24649     24651
     24650     24651     24652     24653     24652     24654     24653     24654
     24655     24656     24655     24657     24656     24657     24658     24659
     24658     24660     24659     24660     24661     24662     24661     24663
     24662     24663     24664     24665     24664     24666     24665     24666
     24667     24668     24667     24669     24668     24669     24670     24671
     24670     24672     24671     24672     24673     24674     24673     24675
     24674     24675     24676     24677     24676     24678     24677     24678
     24679     24680     24679     24681     24680     24681     24682     24683
     24682     24684     24683     24684     24685     24686     24685     24687
     24686     24687     24688     24689     24688     24690     24689     24690
     24691     24692     24691     24693     24692     24693     24694     24695
     24694     24696     24695     24696     24697     24698     24697     24699
     24698     24699     24700     24701     24700     24702     24701     24702
     24703     24704     24703     24705     24704     24705     24706     24707
     24706     24708     24707     24708     24709     24710     24709     24711
     24710     24711     24712     24713     24712     24714     24713     24714
     24715     24716     24715     24717     24716     24717     24718     24719
     24718     24720     24719     24720     24721     24722     24721     24723
     24722     24723     24724     24725     24724     24726     24725     24726
     24727     24728     24727     24729     24728     24729     24730     24731
     24730     24732     24731     24732     24733     24734     24733     24735
     24734     24735     24736     24737     24736     24738     24737     24738
     24739     24740     24739     24741     24740     24741     24742     24743
     24742     24744     24743     24744     24745     24746     24745     24747
     24746     24747     24748     24749     24748     24750     24749     24750
     24751     24752     24751     24753     24752     24753     24754     24755
     24754     24756     24755     24756     24757     24758     24757     24759
     24758     24759     24760     24761     24760     24762     24761     24762
     24763     24764     24763     24765     24764     24765     24766     24767
     24766     24768     24767     24768     24769     24770     24769     24771
     24770     24771     24772     24773     24772     24774     24773     24774
     24775     24776     24775     24777     24776     24777     24778     24779
     24778     24780     24779     24780     24781     24782     24781     24783
     24782     24783     24784     24785     24784     24786     24785     24786
     24787     24788     24787     24789     24788     24789     24790     24791
     24790     24792     24791     24792     24793     24794     24793     24795
     24794     24795     24796     24797     24796     24798     24797     24798
     24799     24800     24799     24801     24800     24801     24802     24803
     24802     24804     24803     24804     24805     24806     24805     24807
     24806     24807     24808     24809     24808     24810     24809     24810
     24811     24812     24811     24813     24812     24813     24814     24815
     24814     24816     24815     24816     24817     24818     24817     24819
     24818     24819     24820     24821     24820     24822     24821     24822
     24823     24824     24823     24825     24824     24825     24826     24827
     24826     24828     24827     24828     24829     24830     24829     24831
     24830     24831     24832     24833     24832     24834     24833     24834
     24835     24836     24835     24837     24836     24837     24838     24839
     24838     24840     24839     24840     24841     24842     24841     24843
     24842     24843     24844     24845     24844     24846     24845     24846
     24847     24848     24847     24849     24848     24849     24850     24851
     24850     24852     24851     24852     24853     24854     24853     24855
     24854     24855     24856     24857     24856     24858     24857     24858
     24859     24860     24859     24861     24860     24861     24862     24863
     24862     24864     24863     24864     24865     24866     24865     24867
     24866     24867     24868     24869     24868     24870     24869     24870
     24871     24872     24871     24873     24872     24873     24874     24875
     24874     24876     24875     24876     24877     24878     24877     24879
     24878     24879     24880     24881     24880     24882     24881     24882
     24883     24884     24883     24885     24884     24885     24886     24887
     24886     24888     24887     24888     24889     24890     24889     24891
     24890     24891     24892     24893     24892     24894     24893     24894
     24895     24896     24895     24897     24896     24897     24898     24899
     24898     24900     24899     24900     24901     24902     24901     24903
     24902     24903     24904     24905     24904     24906     24905     24906
     24907     24908     24907     24909     24908     24909     24910     24911
     24910     24912     24911     24912     24913     24914     24913     24915
     24914     24915     24916     24917     24916     24918     24917     24918
     24919     24920     24919     24921     24920     24921     24922     24923
     24922     24924     24923     24924     24925     24926     24925     24927
     24926     24927     24928     24929     24928     24930     24929     24930
     24931     24932     24931     24933     24932     24933     24934     24935
     24934     24936     24935     24936     24937     24938     24937     24939
     24938     24939     24940     24941     24940     24942     24941     24942
     24943     24944     24943     24945     24944     24945     24946     24947
     24946     24948     24947     24948     24949     24950     24949     24951
     24950     24951     24952     24953     24952     24954     24953     24954
     24955     24956     24955     24957     24956     24957     24958     24959
     24958     24960     24959     24960     24961     24962     24961     24963
     24962     24963     24964     24965     24964     24966     24965     24966
     24967     24968     24967     24969     24968     24969     24970     24971
     24970     24972     24971     24972     24973     24974     24973     24975
     24974     24975     24976     24977     24976     24978     24977     24978
     24979     24980     24979     24981     24980     24981     24982     24983
     24982     24984     24983     24984     24985     24986     24985     24987
     24986     24987     24988     24989     24988     24990     24989     24990
     24991     24992     24991     24993     24992     24993     24994     24995
     24994     24996     24995     24996     24997     24998     24997     24999
     24998     24999     25000     25001     25000     25002     25001     25002
     25003     25004     25003     25005     25004     25005     25006     25007
     25006     25008     25007     25008     25009     25010     25009     25011
     25010     25011     25012     25013     25012     25014     25013     25014
     25015     25016     25015     25017     25016     25017     25018     25019
     25018     25020     25019     25020     25021     25022     25021     25023
     25022     25023     25024     25025     25024     25026     25025     25026
     25027     25028     25027     25029     25028     25029     25030     25031
     25030     25032     25031     25032     25033     25034     25033     25035
     25034     25035     25036     25037     25036     25038     25037     25038
     25039     25040     25039     25041     25040     25041     25042     25043
     25042     25044     25043     25044     25045     25046     25045     25047
     25046     25047     25048     25049     25048     25050     25049     25050
     25051     25052     25051     25053     25052     25053     25054     25055
     25054     25056     25055     25056     25057     25058     25057     25059
     25058     25059     25060     25061     25060     25062     25061     25062
     25063     25064     25063     25065     25064     25065     25066     25067
     25066     25068     25067     25068     25069     25070     25069     25071
     25070     25071     25072     25073     25072     25074     25073     25074
     25075     25076     25075     25077     25076     25077     25078     25079
     25078     25080     25079     25080     25081     25082     25081     25083
     25082     25083     25084     25085     25084     25086     25085     25086
     25087     25088     25087     25089     25088     25089     25090     25091
     25090     25092     25091     25092     25093     25094     25093     25095
     25094     25095     25096     25097     25096     25098     25097     25098
     25099     25100     25099     25101     25100     25101     25102     25103
     25102     25104     25103     25104     25105     25106     25105     25107
     25106     25107     25108     25109     25108     25110     25109     25110
     25111     25112     25111     25113     25112     25113     25114     25115
     25114     25116     25115     25116     25117     25118     25117     25119
     25118     25119     25120     25121     25120     25122     25121     25122
     25123     25124     25123     25125     25124     25125     25126     25127
     25126     25128     25127     25128     25129     25130     25129     25131
     25130     25131     25132     25133     25132     25134     25133     25134
     25135     25136     25135     25137     25136     25137     25138     25139
     25138     25140     25139     25140     25141     25142     25141     25143
     25142     25143     25144     25145     25144     25146     25145     25146
     25147     25148     25147     25149     25148     25149     25150     25151
     25150     25152     25151     25152     25153     25154     25153     25155
     25154     25155     25156     25157     25156     25158     25157     25158
     25159     25160     25159     25161     25160     25161     25162     25163
     25162     25164     25163     25164     25165     25166     25165     25167
     25166     25167     25168     25169     25168     25170     25169     25170
     25171     25172     25171     25173     25172     25173     25174     25175
     25174     25176     25175     25176     25177     25178     25177     25179
     25178     25179     25180     25181     25180     25182     25181     25182
     25183     25184     25183     25185     25184     25185     25186     25187
     25186     25188     25187     25188     25189     25190     25189     25191
     25190     25191     25192     25193     25192     25194     25193     25194
     25195     25196     25195     25197     25196     25197     25198     25199
     25198     25200     25199     25200     25201     25202     25201     25203
     25202     25203     25204     25205     25204     25206     25205     25206
     25207     25208     25207     25209     25208     25209     25210     25211
     25210     25212     25211     25212     25213     25214     25213     25215
     25214     25215     25216     25217     25216     25218     25217     25218
     25219     25220     25219     25221     25220     25221     25222     25223
     25222     25224     25223     25224     25225     25226     25225     25227
     25226     25227     25228     25229     25228     25230     25229     25230
     25231     25232     25231     25233     25232     25233     25234     25235
     25234     25236     25235     25236     25237     25238     25237     25239
     25238     25239     25240     25241     25240     25242     25241     25242
     25243     25244     25243     25245     25244     25245     25246     25247
     25246     25248     25247     25248     25249     25250     25249     25251
     25250     25251     25252     25253     25252     25254     25253     25254
     25255     25256     25255     25257     25256     25257     25258     25259
     25258     25260     25259     25260     25261     25262     25261     25263
     25262     25263     25264     25265     25264     25266     25265     25266
     25267     25268     25267     25269     25268     25269     25270     25271
     25270     25272     25271     25272     25273     25274     25273     25275
     25274     25275     25276     25277     25276     25278     25277     25278
     25279     25280     25279     25281     25280     25281     25282     25283
     25282     25284     25283     25284     25285     25286     25285     25287
     25286     25287     25288     25289     25288     25290     25289     25290
     25291     25292     25291     25293     25292     25293     25294     25295
     25294     25296     25295     25296     25297     25298     25297     25299
     25298     25299     25300     25301     25300     25302     25301     25302
     25303     25304     25303     25305     25304     25305     25306     25307
     25306     25308     25307     25308     25309     25310     25309     25311
     25310     25311     25312     25313     25312     25314     25313     25314
     25315     25316     25315     25317     25316     25317     25318     25319
     25318     25320     25319     25320     25321     25322     25321     25323
     25322     25323     25324     25325     25324     25326     25325     25326
     25327     25328     25327     25329     25328     25329     25330     25331
     25330     25332     25331     25332     25333     25334     25333     25335
     25334     25335     25336     25337     25336     25338     25337     25338
     25339     25340     25339     25341     25340     25341     25342     25343
     25342     25344     25343     25344     25345     25346     25345     25347
     25346     25347     25348     25349     25348     25350     25349     25350
     25351     25352     25351     25353     25352     25353     25354     25355
     25354     25356     25355     25356     25357     25358     25357     25359
     25358     25359     25360     25361     25360     25362     25361     25362
     25363     25364     25363     25365     25364     25365     25366     25367
     25366     25368     25367     25368     25369     25370     25369     25371
     25370     25371     25372     25373     25372     25374     25373     25374
     25375     25376     25375     25377     25376     25377     25378     25379
     25378     25380     25379     25380     25381     25382     25381     25383
     25382     25383     25384     25385     25384     25386     25385     25386
     25387     25388     25387     25389     25388     25389     25390     25391
     25390     25392     25391     25392     25393     25394     25393     25395
     25394     25395     25396     25397     25396     25398     25397     25398
     25399     25400     25399     25401     25400     25401     25402     25403
     25402     25404     25403     25404     25405     25406     25405     25407
     25406     25407     25408     25409     25408     25410     25409     25410
     25411     25412     25411     25413     25412     25413     25414     25415
     25414     25416     25415     25416     25417     25418     25417     25419
     25418     25419     25420     25421     25420     25422     25421     25422
     25423     25424     25423     25425     25424     25425     25426     25427
     25426     25428     25427     25428     25429     25430     25429     25431
     25430     25431     25432     25433     25432     25434     25433     25434
     25435     25436     25435     25437     25436     25437     25438     25439
     25438     25440     25439     25440     25441     25442     25441     25443
     25442     25443     25444     25445     25444     25446     25445     25446
     25447     25448     25447     25449     25448     25449     25450     25451
     25450     25452     25451     25452     25453     25454     25453     25455
     25454     25455     25456     25457     25456     25458     25457     25458
     25459     25460     25459     25461     25460     25461     25462     25463
     25462     25464     25463     25464     25465     25466     25465     25467
     25466     25467     25468     25469     25468     25470     25469     25470
     25471     25472     25471     25473     25472     25473     25474     25475
     25474     25476     25475     25476     25477     25478     25477     25479
     25478     25479     25480     25481     25480     25482     25481     25482
     25483     25484     25483     25485     25484     25485     25486     25487
     25486     25488     25487     25488     25489     25490     25489     25491
     25490     25491     25492     25493     25492     25494     25493     25494
     25495     25496     25495     25497     25496     25497     25498     25499
     25498     25500     25499     25500     25501     25502     25501     25503
     25502     25503     25504     25505     25504     25506     25505     25506
     25507     25508     25507     25509     25508     25509     25510     25511
     25510     25512     25511     25512     25513     25514     25513     25515
     25514     25515     25516     25517     25516     25518     25517     25518
     25519     25520     25519     25521     25520     25521     25522     25523
     25522     25524     25523     25524     25525     25526     25525     25527
     25526     25527     25528     25529     25528     25530     25529     25530
     25531     25532     25531     25533     25532     25533     25534     25535
     25534     25536     25535     25536     25537     25538     25537     25539
     25538     25539     25540     25541     25540     25542     25541     25542
     25543     25544     25543     25545     25544     25545     25546     25547
     25546     25548     25547     25548     25549     25550     25549     25551
     25550     25551     25552     25553     25552     25554     25553     25554
     25555     25556     25555     25557     25556     25557     25558     25559
     25558     25560     25559     25560     25561     25562     25561     25563
     25562     25563     25564     25565     25564     25566     25565     25566
     25567     25568     25567     25569     25568     25569     25570     25571
     25570     25572     25571     25572     25573     25574     25573     25575
     25574     25575     25576     25577     25576     25578     25577     25578
     25579     25580     25579     25581     25580     25581     25582     25583
     25582     25584     25583     25584     25585     25586     25585     25587
     25586     25587     25588     25589     25588     25590     25589     25590
     25591     25592     25591     25593     25592     25593     25594     25595
     25594     25596     25595     25596     25597     25598     25597     25599
     25598     25599     25600     25601     25600     25602     25601     25602
     25603     25604     25603     25605     25604     25605     25606     25607
     25606     25608     25607     25608     25609     25610     25609     25611
     25610     25611     25612     25613     25612     25614     25613     25614
     25615     25616     25615     25617     25616     25617     25618     25619
     25618     25620     25619     25620     25621     25622     25621     25623
     25622     25623     25624     25625     25624     25626     25625     25626
     25627     25628     25627     25629     25628     25629     25630     25631
     25630     25632     25631     25632     25633     25634     25633     25635
     25634     25635     25636     25637     25636     25638     25637     25638
     25639     25640     25639     25641     25640     25641     25642     25643
     25642     25644     25643     25644     25645     25646     25645     25647
     25646     25647     25648     25649     25648     25650     25649     25650
     25651     25652     25651     25653     25652     25653     25654     25655
     25654     25656     25655     25656     25657     25658     25657     25659
     25658     25659     25660     25661     25660     25662     25661     25662
     25663     25664     25663     25665     25664     25665     25666     25667
     25666     25668     25667     25668     25669     25670     25669     25671
     25670     25671     25672     25673     25672     25674     25673     25674
     25675     25676     25675     25677     25676     25677     25678     25679
     25678     25680     25679     25680     25681     25682     25681     25683
     25682     25683     25684     25685     25684     25686     25685     25686
     25687     25688     25687     25689     25688     25689     25690     25691
     25690     25692     25691     25692     25693     25694     25693     25695
     25694     25695     25696     25697     25696     25698     25697     25698
     25699     25700     25699     25701     25700     25701     25702     25703
     25702     25704     25703     25704     25705     25706     25705     25707
     25706     25707     25708     25709     25708     25710     25709     25710
     25711     25712     25711     25713     25712     25713     25714     25715
     25714     25716     25715     25716     25717     25718     25717     25719
     25718     25719     25720     25721     25720     25722     25721     25722
     25723     25724     25723     25725     25724     25725     25726     25727
     25726     25728     25727     25728     25729     25730     25729     25731
     25730     25731     25732     25733     25732     25734     25733     25734
     25735     25736     25735     25737     25736     25737     25738     25739
     25738     25740     25739     25740     25741     25742     25741     25743
     25742     25743     25744     25745     25744     25746     25745     25746
     25747     25748     25747     25749     25748     25749     25750     25751
     25750     25752     25751     25752     25753     25754     25753     25755
     25754     25755     25756     25757     25756     25758     25757     25758
     25759     25760     25759     25761     25760     25761     25762     25763
     25762     25764     25763     25764     25765     25766     25765     25767
     25766     25767     25768     25769     25768     25770     25769     25770
     25771     25772     25771     25773     25772     25773     25774     25775
     25774     25776     25775     25776     25777     25778     25777     25779
     25778     25779     25780     25781     25780     25782     25781     25782
     25783     25784     25783     25785     25784     25785     25786     25787
     25786     25788     25787     25788     25789     25790     25789     25791
     25790     25791     25792     25793     25792     25794     25793     25794
     25795     25796     25795     25797     25796     25797     25798     25799
     25798     25800     25799     25800     25801     25802     25801     25803
     25802     25803     25804     25805     25804     25806     25805     25806
     25807     25808     25807     25809     25808     25809     25810     25811
     25810     25812     25811     25812     25813     25814     25813     25815
     25814     25815     25816     25817     25816     25818     25817     25818
     25819     25820     25819     25821     25820     25821     25822     25823
     25822     25824     25823     25824     25825     25826     25825     25827
     25826     25827     25828     25829     25828     25830     25829     25830
     25831     25832     25831     25833     25832     25833     25834     25835
     25834     25836     25835     25836     25837     25838     25837     25839
     25838     25839     25840     25841     25840     25842     25841     25842
     25843     25844     25843     25845     25844     25845     25846     25847
     25846     25848     25847     25848     25849     25850     25849     25851
     25850     25851     25852     25853     25852     25854     25853     25854
     25855     25856     25855     25857     25856     25857     25858     25859
     25858     25860     25859     25860     25861     25862     25861     25863
     25862     25863     25864     25865     25864     25866     25865     25866
     25867     25868     25867     25869     25868     25869     25870     25871
     25870     25872     25871     25872     25873     25874     25873     25875
     25874     25875     25876     25877     25876     25878     25877     25878
     25879     25880     25879     25881     25880     25881     25882     25883
     25882     25884     25883     25884     25885     25886     25885     25887
     25886     25887     25888     25889     25888     25890     25889     25890
     25891     25892     25891     25893     25892     25893     25894     25895
     25894     25896     25895     25896     25897     25898     25897     25899
     25898     25899     25900     25901     25900     25902     25901     25902
     25903     25904     25903     25905     25904     25905     25906     25907
     25906     25908     25907     25908     25909     25910     25909     25911
     25910     25911     25912     25913     25912     25914     25913     25914
     25915     25916     25915     25917     25916     25917     25918     25919
     25918     25920     25919     25920     25921     25922     25921     25923
     25922     25923     25924     25925     25924     25926     25925     25926
     25927     25928     25927     25929     25928     25929     25930     25931
     25930     25932     25931     25932     25933     25934     25933     25935
     25934     25935     25936     25937     25936     25938     25937     25938
     25939     25940     25939     25941     25940     25941     25942     25943
     25942     25944     25943     25944     25945     25946     25945     25947
     25946     25947     25948     25949     25948     25950     25949     25950
     25951     25952     25951     25953     25952     25953     25954     25955
     25954     25956     25955     25956     25957     25958     25957     25959
     25958     25959     25960     25961     25960     25962     25961     25962
     25963     25964     25963     25965     25964     25965     25966     25967
     25966     25968     25967     25968     25969     25970     25969     25971
     25970     25971     25972     25973     25972     25974     25973     25974
     25975     25976     25975     25977     25976     25977     25978     25979
     25978     25980     25979     25980     25981     25982     25981     25983
     25982     25983     25984     25985     25984     25986     25985     25986
     25987     25988     25987     25989     25988     25989     25990     25991
     25990     25992     25991     25992     25993     25994     25993     25995
     25994     25995     25996     25997     25996     25998     25997     25998
     25999     26000     25999     26001     26000     26001     26002     26003
     26002     26004     26003     26004     26005     26006     26005     26007
     26006     26007     26008     26009     26008     26010     26009     26010
     26011     26012     26011     26013     26012     26013     26014     26015
     26014     26016     26015     26016     26017     26018     26017     26019
     26018     26019     26020     26021     26020     26022     26021     26022
     26023     26024     26023     26025     26024     26025     26026     26027
     26026     26028     26027     26028     26029     26030     26029     26031
     26030     26031     26032     26033     26032     26034     26033     26034
     26035     26036     26035     26037     26036     26037     26038     26039
     26038     26040     26039     26040     26041     26042     26041     26043
     26042     26043     26044     26045     26044     26046     26045     26046
     26047     26048     26047     26049     26048     26049     26050     26051
     26050     26052     26051     26052     26053     26054     26053     26055
     26054     26055     26056     26057     26056     26058     26057     26058
     26059     26060     26059     26061     26060     26061     26062     26063
     26062     26064     26063     26064     26065     26066     26065     26067
     26066     26067     26068     26069     26068     26070     26069     26070
     26071     26072     26071     26073     26072     26073     26074     26075
     26074     26076     26075     26076     26077     26078     26077     26079
     26078     26079     26080     26081     26080     26082     26081     26082
     26083     26084     26083     26085     26084     26085     26086     26087
     26086     26088     26087     26088     26089     26090     26089     26091
     26090     26091     26092     26093     26092     26094     26093     26094
     26095     26096     26095     26097     26096     26097     26098     26099
     26098     26100     26099     26100     26101     26102     26101     26103
     26102     26103     26104     26105     26104     26106     26105     26106
     26107     26108     26107     26109     26108     26109     26110     26111
     26110     26112     26111     26112     26113     26114     26113     26115
     26114     26115     26116     26117     26116     26118     26117     26118
     26119     26120     26119     26121     26120     26121     26122     26123
     26122     26124     26123     26124     26125     26126     26125     26127
     26126     26127     26128     26129     26128     26130     26129     26130
     26131     26132     26131     26133     26132     26133     26134     26135
     26134     26136     26135     26136     26137     26138     26137     26139
     26138     26139     26140     26141     26140     26142     26141     26142
     26143     26144     26143     26145     26144     26145     26146     26147
     26146     26148     26147     26148     26149     26150     26149     26151
     26150     26151     26152     26153     26152     26154     26153     26154
     26155     26156     26155     26157     26156     26157     26158     26159
     26158     26160     26159     26160     26161     26162     26161     26163
     26162     26163     26164     26165     26164     26166     26165     26166
     26167     26168     26167     26169     26168     26169     26170     26171
     26170     26172     26171     26172     26173     26174     26173     26175
     26174     26175     26176     26177     26176     26178     26177     26178
     26179     26180     26179     26181     26180     26181     26182     26183
     26182     26184     26183     26184     26185     26186     26185     26187
     26186     26187     26188     26189     26188     26190     26189     26190
     26191     26192     26191     26193     26192     26193     26194     26195
     26194     26196     26195     26196     26197     26198     26197     26199
     26198     26199     26200     26201     26200     26202     26201     26202
     26203     26204     26203     26205     26204     26205     26206     26207
     26206     26208     26207     26208     26209     26210     26209     26211
     26210     26211     26212     26213     26212     26214     26213     26214
     26215     26216     26215     26217     26216     26217     26218     26219
     26218     26220     26219     26220     26221     26222     26221     26223
     26222     26223     26224     26225     26224     26226     26225     26226
     26227     26228     26227     26229     26228     26229     26230     26231
     26230     26232     26231     26232     26233     26234     26233     26235
     26234     26235     26236     26237     26236     26238     26237     26238
     26239     26240     26239     26241     26240     26241     26242     26243
     26242     26244     26243     26244     26245     26246     26245     26247
     26246     26247     26248     26249     26248     26250     26249     26250
     26251     26252     26251     26253     26252     26253     26254     26255
     26254     26256     26255     26256     26257     26258     26257     26259
     26258     26259     26260     26261     26260     26262     26261     26262
     26263     26264     26263     26265     26264     26265     26266     26267
     26266     26268     26267     26268     26269     26270     26269     26271
     26270     26271     26272     26273     26272     26274     26273     26274
     26275     26276     26275     26277     26276     26277     26278     26279
     26278     26280     26279     26280     26281     26282     26281     26283
     26282     26283     26284     26285     26284     26286     26285     26286
     26287     26288     26287     26289     26288     26289     26290     26291
     26290     26292     26291     26292     26293     26294     26293     26295
     26294     26295     26296     26297     26296     26298     26297     26298
     26299     26300     26299     26301     26300     26301     26302     26303
     26302     26304     26303     26304     26305     26306     26305     26307
     26306     26307     26308     26309     26308     26310     26309     26310
     26311     26312     26311     26313     26312     26313     26314     26315
     26314     26316     26315     26316     26317     26318     26317     26319
     26318     26319     26320     26321     26320     26322     26321     26322
     26323     26324     26323     26325     26324     26325     26326     26327
     26326     26328     26327     26328     26329     26330     26329     26331
     26330     26331     26332     26333     26332     26334     26333     26334
     26335     26336     26335     26337     26336     26337     26338     26339
     26338     26340     26339     26340     26341     26342     26341     26343
     26342     26343     26344     26345     26344     26346     26345     26346
     26347     26348     26347     26349     26348     26349     26350     26351
     26350     26352     26351     26352     26353     26354     26353     26355
     26354     26355     26356     26357     26356     26358     26357     26358
     26359     26360     26359     26361     26360     26361     26362     26363
     26362     26364     26363     26364     26365     26366     26365     26367
     26366     26367     26368     26369     26368     26370     26369     26370
     26371     26372     26371     26373     26372     26373     26374     26375
     26374     26376     26375     26376     26377     26378     26377     26379
     26378     26379     26380     26381     26380     26382     26381     26382
     26383     26384     26383     26385     26384     26385     26386     26387
     26386     26388     26387     26388     26389     26390     26389     26391
     26390     26391     26392     26393     26392     26394     26393     26394
     26395     26396     26395     26397     26396     26397     26398     26399
     26398     26400     26399     26400     26401     26402     26401     26403
     26402     26403     26404     26405     26404     26406     26405     26406
     26407     26408     26407     26409     26408     26409     26410     26411
     26410     26412     26411     26412     26413     26414     26413     26415
     26414     26415     26416     26417     26416     26418     26417     26418
     26419     26420     26419     26421     26420     26421     26422     26423
     26422     26424     26423     26424     26425     26426     26425     26427
     26426     26427     26428     26429     26428     26430     26429     26430
     26431     26432     26431     26433     26432     26433     26434     26435
     26434     26436     26435     26436     26437     26438     26437     26439
     26438     26439     26440     26441     26440     26442     26441     26442
     26443     26444     26443     26445     26444     26445     26446     26447
     26446     26448     26447     26448     26449     26450     26449     26451
     26450     26451     26452     26453     26452     26454     26453     26454
     26455     26456     26455     26457     26456     26457     26458     26459
     26458     26460     26459     26460     26461     26462     26461     26463
     26462     26463     26464     26465     26464     26466     26465     26466
     26467     26468     26467     26469     26468     26469     26470     26471
     26470     26472     26471     26472     26473     26474     26473     26475
     26474     26475     26476     26477     26476     26478     26477     26478
     26479     26480     26479     26481     26480     26481     26482     26483
     26482     26484     26483     26484     26485     26486     26485     26487
     26486     26487     26488     26489     26488     26490     26489     26490
     26491     26492     26491     26493     26492     26493     26494     26495
     26494     26496     26495     26496     26497     26498     26497     26499
     26498     26499     26500     26501     26500     26502     26501     26502
     26503     26504     26503     26505     26504     26505     26506     26507
     26506     26508     26507     26508     26509     26510     26509     26511
     26510     26511     26512     26513     26512     26514     26513     26514
     26515     26516     26515     26517     26516     26517     26518     26519
     26518     26520     26519     26520     26521     26522     26521     26523
     26522     26523     26524     26525     26524     26526     26525     26526
     26527     26528     26527     26529     26528     26529     26530     26531
     26530     26532     26531     26532     26533     26534     26533     26535
     26534     26535     26536     26537     26536     26538     26537     26538
     26539     26540     26539     26541     26540     26541     26542     26543
     26542     26544     26543     26544     26545     26546     26545     26547
     26546     26547     26548     26549     26548     26550     26549     26550
     26551     26552     26551     26553     26552     26553     26554     26555
     26554     26556     26555     26556     26557     26558     26557     26559
     26558     26559     26560     26561     26560     26562     26561     26562
     26563     26564     26563     26565     26564     26565     26566     26567
     26566     26568     26567     26568     26569     26570     26569     26571
     26570     26571     26572     26573     26572     26574     26573     26574
     26575     26576     26575     26577     26576     26577     26578     26579
     26578     26580     26579     26580     26581     26582     26581     26583
     26582     26583     26584     26585     26584     26586     26585     26586
     26587     26588     26587     26589     26588     26589     26590     26591
     26590     26592     26591     26592     26593     26594     26593     26595
     26594     26595     26596     26597     26596     26598     26597     26598
     26599     26600     26599     26601     26600     26601     26602     26603
     26602     26604     26603     26604     26605     26606     26605     26607
     26606     26607     26608     26609     26608     26610     26609     26610
     26611     26612     26611     26613     26612     26613     26614     26615
     26614     26616     26615     26616     26617     26618     26617     26619
     26618     26619     26620     26621     26620     26622     26621     26622
     26623     26624     26623     26625     26624     26625     26626     26627
     26626     26628     26627     26628     26629     26630     26629     26631
     26630     26631     26632     26633     26632     26634     26633     26634
     26635     26636     26635     26637     26636     26637     26638     26639
     26638     26640     26639     26640     26641     26642     26641     26643
     26642     26643     26644     26645     26644     26646     26645     26646
     26647     26648     26647     26649     26648     26649     26650     26651
     26650     26652     26651     26652     26653     26654     26653     26655
     26654     26655     26656     26657     26656     26658     26657     26658
     26659     26660     26659     26661     26660     26661     26662     26663
     26662     26664     26663     26664     26665     26666     26665     26667
     26666     26667     26668     26669     26668     26670     26669     26670
     26671     26672     26671     26673     26672     26673     26674     26675
     26674     26676     26675     26676     26677     26678     26677     26679
     26678     26679     26680     26681     26680     26682     26681     26682
     26683     26684     26683     26685     26684     26685     26686     26687
     26686     26688     26687     26688     26689     26690     26689     26691
     26690     26691     26692     26693     26692     26694     26693     26694
     26695     26696     26695     26697     26696     26697     26698     26699
     26698     26700     26699     26700     26701     26702     26701     26703
     26702     26703     26704     26705     26704     26706     26705     26706
     26707     26708     26707     26709     26708     26709     26710     26711
     26710     26712     26711     26712     26713     26714     26713     26715
     26714     26715     26716     26717     26716     26718     26717     26718
     26719     26720     26719     26721     26720     26721     26722     26723
     26722     26724     26723     26724     26725     26726     26725     26727
     26726     26727     26728     26729     26728     26730     26729     26730
     26731     26732     26731     26733     26732     26733     26734     26735
     26734     26736     26735     26736     26737     26738     26737     26739
     26738     26739     26740     26741     26740     26742     26741     26742
     26743     26744     26743     26745     26744     26745     26746     26747
     26746     26748     26747     26748     26749     26750     26749     26751
     26750     26751     26752     26753     26752     26754     26753     26754
     26755     26756     26755     26757     26756     26757     26758     26759
     26758     26760     26759     26760     26761     26762     26761     26763
     26762     26763     26764     26765     26764     26766     26765     26766
     26767     26768     26767     26769     26768     26769     26770     26771
     26770     26772     26771     26772     26773     26774     26773     26775
     26774     26775     26776     26777     26776     26778     26777     26778
     26779     26780     26779     26781     26780     26781     26782     26783
     26782     26784     26783     26784     26785     26786     26785     26787
     26786     26787     26788     26789     26788     26790     26789     26790
     26791     26792     26791     26793     26792     26793     26794     26795
     26794     26796     26795     26796     26797     26798     26797     26799
     26798     26799     26800     26801     26800     26802     26801     26802
     26803     26804     26803     26805     26804     26805     26806     26807
     26806     26808     26807     26808     26809     26810     26809     26811
     26810     26811     26812     26813     26812     26814     26813     26814
     26815     26816     26815     26817     26816     26817     26818     26819
     26818     26820     26819     26820     26821     26822     26821     26823
     26822     26823     26824     26825     26824     26826     26825     26826
     26827     26828     26827     26829     26828     26829     26830     26831
     26830     26832     26831     26832     26833     26834     26833     26835
     26834     26835     26836     26837     26836     26838     26837     26838
     26839     26840     26839     26841     26840     26841     26842     26843
     26842     26844     26843     26844     26845     26846     26845     26847
     26846     26847     26848     26849     26848     26850     26849     26850
     26851     26852     26851     26853     26852     26853     26854     26855
     26854     26856     26855     26856     26857     26858     26857     26859
     26858     26859     26860     26861     26860     26862     26861     26862
     26863     26864     26863     26865     26864     26865     26866     26867
     26866     26868     26867     26868     26869     26870     26869     26871
     26870     26871     26872     26873     26872     26874     26873     26874
     26875     26876     26875     26877     26876     26877     26878     26879
     26878     26880     26879     26880     26881     26882     26881     26883
     26882     26883     26884     26885     26884     26886     26885     26886
     26887     26888     26887     26889     26888     26889     26890     26891
     26890     26892     26891     26892     26893     26894     26893     26895
     26894     26895     26896     26897     26896     26898     26897     26898
     26899     26900     26899     26901     26900     26901     26902     26903
     26902     26904     26903     26904     26905     26906     26905     26907
     26906     26907     26908     26909     26908     26910     26909     26910
     26911     26912     26911     26913     26912     26913     26914     26915
     26914     26916     26915     26916     26917     26918     26917     26919
     26918     26919     26920     26921     26920     26922     26921     26922
     26923     26924     26923     26925     26924     26925     26926     26927
     26926     26928     26927     26928     26929     26930     26929     26931
     26930     26931     26932     26933     26932     26934     26933     26934
     26935     26936     26935     26937     26936     26937     26938     26939
     26938     26940     26939     26940     26941     26942     26941     26943
     26942     26943     26944     26945     26944     26946     26945     26946
     26947     26948     26947     26949     26948     26949     26950     26951
     26950     26952     26951     26952     26953     26954     26953     26955
     26954     26955     26956     26957     26956     26958     26957     26958
     26959     26960     26959     26961     26960     26961     26962     26963
     26962     26964     26963     26964     26965     26966     26965     26967
     26966     26967     26968     26969     26968     26970     26969     26970
     26971     26972     26971     26973     26972     26973     26974     26975
     26974     26976     26975     26976     26977     26978     26977     26979
     26978     26979     26980     26981     26980     26982     26981     26982
     26983     26984     26983     26985     26984     26985     26986     26987
     26986     26988     26987     26988     26989     26990     26989     26991
     26990     26991     26992     26993     26992     26994     26993     26994
     26995     26996     26995     26997     26996     26997     26998     26999
     26998     27000     26999     27000     27001     27002     27001     27003
     27002     27003     27004     27005     27004     27006     27005     27006
     27007     27008     27007     27009     27008     27009     27010     27011
     27010     27012     27011     27012     27013     27014     27013     27015
     27014     27015     27016     27017     27016     27018     27017     27018
     27019     27020     27019     27021     27020     27021     27022     27023
     27022     27024     27023     27024     27025     27026     27025     27027
     27026     27027     27028     27029     27028     27030     27029     27030
     27031     27032     27031     27033     27032     27033     27034     27035
     27034     27036     27035     27036     27037     27038     27037     27039
     27038     27039     27040     27041     27040     27042     27041     27042
     27043     27044     27043     27045     27044     27045     27046     27047
     27046     27048     27047     27048     27049     27050     27049     27051
     27050     27051     27052     27053     27052     27054     27053     27054
     27055     27056     27055     27057     27056     27057     27058     27059
     27058     27060     27059     27060     27061     27062     27061     27063
     27062     27063     27064     27065     27064     27066     27065     27066
     27067     27068     27067     27069     27068     27069     27070     27071
     27070     27072     27071     27072     27073     27074     27073     27075
     27074     27075     27076     27077     27076     27078     27077     27078
     27079     27080     27079     27081     27080     27081     27082     27083
     27082     27084     27083     27084     27085     27086     27085     27087
     27086     27087     27088     27089     27088     27090     27089     27090
     27091     27092     27091     27093     27092     27093     27094     27095
     27094     27096     27095     27096     27097     27098     27097     27099
     27098     27099     27100     27101     27100     27102     27101     27102
     27103     27104     27103     27105     27104     27105     27106     27107
     27106     27108     27107     27108     27109     27110     27109     27111
     27110     27111     27112     27113     27112     27114     27113     27114
     27115     27116     27115     27117     27116     27117     27118     27119
     27118     27120     27119     27120     27121     27122     27121     27123
     27122     27123     27124     27125     27124     27126     27125     27126
     27127     27128     27127     27129     27128     27129     27130     27131
     27130     27132     27131     27132     27133     27134     27133     27135
     27134     27135     27136     27137     27136     27138     27137     27138
     27139     27140     27139     27141     27140     27141     27142     27143
     27142     27144     27143     27144     27145     27146     27145     27147
     27146     27147     27148     27149     27148     27150     27149     27150
     27151     27152     27151     27153     27152     27153     27154     27155
     27154     27156     27155     27156     27157     27158     27157     27159
     27158     27159     27160     27161     27160     27162     27161     27162
     27163     27164     27163     27165     27164     27165     27166     27167
     27166     27168     27167     27168     27169     27170     27169     27171
     27170     27171     27172     27173     27172     27174     27173     27174
     27175     27176     27175     27177     27176     27177     27178     27179
     27178     27180     27179     27180     27181     27182     27181     27183
     27182     27183     27184     27185     27184     27186     27185     27186
     27187     27188     27187     27189     27188     27189     27190     27191
     27190     27192     27191     27192     27193     27194     27193     27195
     27194     27195     27196     27197     27196     27198     27197     27198
     27199     27200     27199     27201     27200     27201     27202     27203
     27202     27204     27203     27204     27205     27206     27205     27207
     27206     27207     27208     27209     27208     27210     27209     27210
     27211     27212     27211     27213     27212     27213     27214     27215
     27214     27216     27215     27216     27217     27218     27217     27219
     27218     27219     27220     27221     27220     27222     27221     27222
     27223     27224     27223     27225     27224     27225     27226     27227
     27226     27228     27227     27228     27229     27230     27229     27231
     27230     27231     27232     27233     27232     27234     27233     27234
     27235     27236     27235     27237     27236     27237     27238     27239
     27238     27240     27239     27240     27241     27242     27241     27243
     27242     27243     27244     27245     27244     27246     27245     27246
     27247     27248     27247     27249     27248     27249     27250     27251
     27250     27252     27251     27252     27253     27254     27253     27255
     27254     27255     27256     27257     27256     27258     27257     27258
     27259     27260     27259     27261     27260     27261     27262     27263
     27262     27264     27263     27264     27265     27266     27265     27267
     27266     27267     27268     27269     27268     27270     27269     27270
     27271     27272     27271     27273     27272     27273     27274     27275
     27274     27276     27275     27276     27277     27278     27277     27279
     27278     27279     27280     27281     27280     27282     27281     27282
     27283     27284     27283     27285     27284     27285     27286     27287
     27286     27288     27287     27288     27289     27290     27289     27291
     27290     27291     27292     27293     27292     27294     27293     27294
     27295     27296     27295     27297     27296     27297     27298     27299
     27298     27300     27299     27300     27301     27302     27301     27303
     27302     27303     27304     27305     27304     27306     27305     27306
     27307     27308     27307     27309     27308     27309     27310     27311
     27310     27312     27311     27312     27313     27314     27313     27315
     27314     27315     27316     27317     27316     27318     27317     27318
     27319     27320     27319     27321     27320     27321     27322     27323
     27322     27324     27323     27324     27325     27326     27325     27327
     27326     27327     27328     27329     27328     27330     27329     27330
     27331     27332     27331     27333     27332     27333     27334     27335
     27334     27336     27335     27336     27337     27338     27337     27339
     27338     27339     27340     27341     27340     27342     27341     27342
     27343     27344     27343     27345     27344     27345     27346     27347
     27346     27348     27347     27348     27349     27350     27349     27351
     27350     27351     27352     27353     27352     27354     27353     27354
     27355     27356     27355     27357     27356     27357     27358     27359
     27358     27360     27359     27360     27361     27362     27361     27363
     27362     27363     27364     27365     27364     27366     27365     27366
     27367     27368     27367     27369     27368     27369     27370     27371
     27370     27372     27371     27372     27373     27374     27373     27375
     27374     27375     27376     27377     27376     27378     27377     27378
     27379     27380     27379     27381     27380     27381     27382     27383
     27382     27384     27383     27384     27385     27386     27385     27387
     27386     27387     27388     27389     27388     27390     27389     27390
     27391     27392     27391     27393     27392     27393     27394     27395
     27394     27396     27395     27396     27397     27398     27397     27399
     27398     27399     27400     27401     27400     27402     27401     27402
     27403     27404     27403     27405     27404     27405     27406     27407
     27406     27408     27407     27408     27409     27410     27409     27411
     27410     27411     27412     27413     27412     27414     27413     27414
     27415     27416     27415     27417     27416     27417     27418     27419
     27418     27420     27419     27420     27421     27422     27421     27423
     27422     27423     27424     27425     27424     27426     27425     27426
     27427     27428     27427     27429     27428     27429     27430     27431
     27430     27432     27431     27432     27433     27434     27433     27435
     27434     27435     27436     27437     27436     27438     27437     27438
     27439     27440     27439     27441     27440     27441     27442     27443
     27442     27444     27443     27444     27445     27446     27445     27447
     27446     27447     27448     27449     27448     27450     27449     27450
     27451     27452     27451     27453     27452     27453     27454     27455
     27454     27456     27455     27456     27457     27458     27457     27459
     27458     27459     27460     27461     27460     27462     27461     27462
     27463     27464     27463     27465     27464     27465     27466     27467
     27466     27468     27467     27468     27469     27470     27469     27471
     27470     27471     27472     27473     27472     27474     27473     27474
     27475     27476     27475     27477     27476     27477     27478     27479
     27478     27480     27479     27480     27481     27482     27481     27483
     27482     27483     27484     27485     27484     27486     27485     27486
     27487     27488     27487     27489     27488     27489     27490     27491
     27490     27492     27491     27492     27493     27494     27493     27495
     27494     27495     27496     27497     27496     27498     27497     27498
     27499     27500     27499     27501     27500     27501     27502     27503
     27502     27504     27503     27504     27505     27506     27505     27507
     27506     27507     27508     27509     27508     27510     27509     27510
     27511     27512     27511     27513     27512     27513     27514     27515
     27514     27516     27515     27516     27517     27518     27517     27519
     27518     27519     27520     27521     27520     27522     27521     27522
     27523     27524     27523     27525     27524     27525     27526     27527
     27526     27528     27527     27528     27529     27530     27529     27531
     27530     27531     27532     27533     27532     27534     27533     27534
     27535     27536     27535     27537     27536     27537     27538     27539
     27538     27540     27539     27540     27541     27542     27541     27543
     27542     27543     27544     27545     27544     27546     27545     27546
     27547     27548     27547     27549     27548     27549     27550     27551
     27550     27552     27551     27552     27553     27554     27553     27555
     27554     27555     27556     27557     27556     27558     27557     27558
     27559     27560     27559     27561     27560     27561     27562     27563
     27562     27564     27563     27564     27565     27566     27565     27567
     27566     27567     27568     27569     27568     27570     27569     27570
     27571     27572     27571     27573     27572     27573     27574     27575
     27574     27576     27575     27576     27577     27578     27577     27579
     27578     27579     27580     27581     27580     27582     27581     27582
     27583     27584     27583     27585     27584     27585     27586     27587
     27586     27588     27587     27588     27589     27590     27589     27591
     27590     27591     27592     27593     27592     27594     27593     27594
     27595     27596     27595     27597     27596     27597     27598     27599
     27598     27600     27599     27600     27601     27602     27601     27603
     27602     27603     27604     27605     27604     27606     27605     27606
     27607     27608     27607     27609     27608     27609     27610     27611
     27610     27612     27611     27612     27613     27614     27613     27615
     27614     27615     27616     27617     27616     27618     27617     27618
     27619     27620     27619     27621     27620     27621     27622     27623
     27622     27624     27623     27624     27625     27626     27625     27627
     27626     27627     27628     27629     27628     27630     27629     27630
     27631     27632     27631     27633     27632     27633     27634     27635
     27634     27636     27635     27636     27637     27638     27637     27639
     27638     27639     27640     27641     27640     27642     27641     27642
     27643     27644     27643     27645     27644     27645     27646     27647
     27646     27648     27647     27648     27649     27650     27649     27651
     27650     27651     27652     27653     27652     27654     27653     27654
     27655     27656     27655     27657     27656     27657     27658     27659
     27658     27660     27659     27660     27661     27662     27661     27663
     27662     27663     27664     27665     27664     27666     27665     27666
     27667     27668     27667     27669     27668     27669     27670     27671
     27670     27672     27671     27672     27673     27674     27673     27675
     27674     27675     27676     27677     27676     27678     27677     27678
     27679     27680     27679     27681     27680     27681     27682     27683
     27682     27684     27683     27684     27685     27686     27685     27687
     27686     27687     27688     27689     27688     27690     27689     27690
     27691     27692     27691     27693     27692     27693     27694     27695
     27694     27696     27695     27696     27697     27698     27697     27699
     27698     27699     27700     27701     27700     27702     27701     27702
     27703     27704     27703     27705     27704     27705     27706     27707
     27706     27708     27707     27708     27709     27710     27709     27711
     27710     27711     27712     27713     27712     27714     27713     27714
     27715     27716     27715     27717     27716     27717     27718     27719
     27718     27720     27719     27720     27721     27722     27721     27723
     27722     27723     27724     27725     27724     27726     27725     27726
     27727     27728     27727     27729     27728     27729     27730     27731
     27730     27732     27731     27732     27733     27734     27733     27735
     27734     27735     27736     27737     27736     27738     27737     27738
     27739     27740     27739     27741     27740     27741     27742     27743
     27742     27744     27743     27744     27745     27746     27745     27747
     27746     27747     27748     27749     27748     27750     27749     27750
     27751     27752     27751     27753     27752     27753     27754     27755
     27754     27756     27755     27756     27757     27758     27757     27759
     27758     27759     27760     27761     27760     27762     27761     27762
     27763     27764     27763     27765     27764     27765     27766     27767
     27766     27768     27767     27768     27769     27770     27769     27771
     27770     27771     27772     27773     27772     27774     27773     27774
     27775     27776     27775     27777     27776     27777     27778     27779
     27778     27780     27779     27780     27781     27782     27781     27783
     27782     27783     27784     27785     27784     27786     27785     27786
     27787     27788     27787     27789     27788     27789     27790     27791
     27790     27792     27791     27792     27793     27794     27793     27795
     27794     27795     27796     27797     27796     27798     27797     27798
     27799     27800     27799     27801     27800     27801     27802     27803
     27802     27804     27803     27804     27805     27806     27805     27807
     27806     27807     27808     27809     27808     27810     27809     27810
     27811     27812     27811     27813     27812     27813     27814     27815
     27814     27816     27815     27816     27817     27818     27817     27819
     27818     27819     27820     27821     27820     27822     27821     27822
     27823     27824     27823     27825     27824     27825     27826     27827
     27826     27828     27827     27828     27829     27830     27829     27831
     27830     27831     27832     27833     27832     27834     27833     27834
     27835     27836     27835     27837     27836     27837     27838     27839
     27838     27840     27839     27840     27841     27842     27841     27843
     27842     27843     27844     27845     27844     27846     27845     27846
     27847     27848     27847     27849     27848     27849     27850     27851
     27850     27852     27851     27852     27853     27854     27853     27855
     27854     27855     27856     27857     27856     27858     27857     27858
     27859     27860     27859     27861     27860     27861     27862     27863
     27862     27864     27863     27864     27865     27866     27865     27867
     27866     27867     27868     27869     27868     27870     27869     27870
     27871     27872     27871     27873     27872     27873     27874     27875
     27874     27876     27875     27876     27877     27878     27877     27879
     27878     27879     27880     27881     27880     27882     27881     27882
     27883     27884     27883     27885     27884     27885     27886     27887
     27886     27888     27887     27888     27889     27890     27889     27891
     27890     27891     27892     27893     27892     27894     27893     27894
     27895     27896     27895     27897     27896     27897     27898     27899
     27898     27900     27899     27900     27901     27902     27901     27903
     27902     27903     27904     27905     27904     27906     27905     27906
     27907     27908     27907     27909     27908     27909     27910     27911
     27910     27912     27911     27912     27913     27914     27913     27915
     27914     27915     27916     27917     27916     27918     27917     27918
     27919     27920     27919     27921     27920     27921     27922     27923
     27922     27924     27923     27924     27925     27926     27925     27927
     27926     27927     27928     27929     27928     27930     27929     27930
     27931     27932     27931     27933     27932     27933     27934     27935
     27934     27936     27935     27936     27937     27938     27937     27939
     27938     27939     27940     27941     27940     27942     27941     27942
     27943     27944     27943     27945     27944     27945     27946     27947
     27946     27948     27947     27948     27949     27950     27949     27951
     27950     27951     27952     27953     27952     27954     27953     27954
     27955     27956     27955     27957     27956     27957     27958     27959
     27958     27960     27959     27960     27961     27962     27961     27963
     27962     27963     27964     27965     27964     27966     27965     27966
     27967     27968     27967     27969     27968     27969     27970     27971
     27970     27972     27971     27972     27973     27974     27973     27975
     27974     27975     27976     27977     27976     27978     27977     27978
     27979     27980     27979     27981     27980     27981     27982     27983
     27982     27984     27983     27984     27985     27986     27985     27987
     27986     27987     27988     27989     27988     27990     27989     27990
     27991     27992     27991     27993     27992     27993     27994     27995
     27994     27996     27995     27996     27997     27998     27997     27999
     27998     27999     28000     28001     28000     28002     28001     28002
     28003     28004     28003     28005     28004     28005     28006     28007
     28006     28008     28007     28008     28009     28010     28009     28011
     28010     28011     28012     28013     28012     28014     28013     28014
     28015     28016     28015     28017     28016     28017     28018     28019
     28018     28020     28019     28020     28021     28022     28021     28023
     28022     28023     28024     28025     28024     28026     28025     28026
     28027     28028     28027     28029     28028     28029     28030     28031
     28030     28032     28031     28032     28033     28034     28033     28035
     28034     28035     28036     28037     28036     28038     28037     28038
     28039     28040     28039     28041     28040     28041     28042     28043
     28042     28044     28043     28044     28045     28046     28045     28047
     28046     28047     28048     28049     28048     28050     28049     28050
     28051     28052     28051     28053     28052     28053     28054     28055
     28054     28056     28055     28056     28057     28058     28057     28059
     28058     28059     28060     28061     28060     28062     28061     28062
     28063     28064     28063     28065     28064     28065     28066     28067
     28066     28068     28067     28068     28069     28070     28069     28071
     28070     28071     28072     28073     28072     28074     28073     28074
     28075     28076     28075     28077     28076     28077     28078     28079
     28078     28080     28079     28080     28081     28082     28081     28083
     28082     28083     28084     28085     28084     28086     28085     28086
     28087     28088     28087     28089     28088     28089     28090     28091
     28090     28092     28091     28092     28093     28094     28093     28095
     28094     28095     28096     28097     28096     28098     28097     28098
     28099     28100     28099     28101     28100     28101     28102     28103
     28102     28104     28103     28104     28105     28106     28105     28107
     28106     28107     28108     28109     28108     28110     28109     28110
     28111     28112     28111     28113     28112     28113     28114     28115
     28114     28116     28115     28116     28117     28118     28117     28119
     28118     28119     28120     28121     28120     28122     28121     28122
     28123     28124     28123     28125     28124     28125     28126     28127
     28126     28128     28127     28128     28129     28130     28129     28131
     28130     28131     28132     28133     28132     28134     28133     28134
     28135     28136     28135     28137     28136     28137     28138     28139
     28138     28140     28139     28140     28141     28142     28141     28143
     28142     28143     28144     28145     28144     28146     28145     28146
     28147     28148     28147     28149     28148     28149     28150     28151
     28150     28152     28151     28152     28153     28154     28153     28155
     28154     28155     28156     28157     28156     28158     28157     28158
     28159     28160     28159     28161     28160     28161     28162     28163
     28162     28164     28163     28164     28165     28166     28165     28167
     28166     28167     28168     28169     28168     28170     28169     28170
     28171     28172     28171     28173     28172     28173     28174     28175
     28174     28176     28175     28176     28177     28178     28177     28179
     28178     28179     28180     28181     28180     28182     28181     28182
     28183     28184     28183     28185     28184     28185     28186     28187
     28186     28188     28187     28188     28189     28190     28189     28191
     28190     28191     28192     28193     28192     28194     28193     28194
     28195     28196     28195     28197     28196     28197     28198     28199
     28198     28200     28199     28200     28201     28202     28201     28203
     28202     28203     28204     28205     28204     28206     28205     28206
     28207     28208     28207     28209     28208     28209     28210     28211
     28210     28212     28211     28212     28213     28214     28213     28215
     28214     28215     28216     28217     28216     28218     28217     28218
     28219     28220     28219     28221     28220     28221     28222     28223
     28222     28224     28223     28224     28225     28226     28225     28227
     28226     28227     28228     28229     28228     28230     28229     28230
     28231     28232     28231     28233     28232     28233     28234     28235
     28234     28236     28235     28236     28237     28238     28237     28239
     28238     28239     28240     28241     28240     28242     28241     28242
     28243     28244     28243     28245     28244     28245     28246     28247
     28246     28248     28247     28248     28249     28250     28249     28251
     28250     28251     28252     28253     28252     28254     28253     28254
     28255     28256     28255     28257     28256     28257     28258     28259
     28258     28260     28259     28260     28261     28262     28261     28263
     28262     28263     28264     28265     28264     28266     28265     28266
     28267     28268     28267     28269     28268     28269     28270     28271
     28270     28272     28271     28272     28273     28274     28273     28275
     28274     28275     28276     28277     28276     28278     28277     28278
     28279     28280     28279     28281     28280     28281     28282     28283
     28282     28284     28283     28284     28285     28286     28285     28287
     28286     28287     28288     28289     28288     28290     28289     28290
     28291     28292     28291     28293     28292     28293     28294     28295
     28294     28296     28295     28296     28297     28298     28297     28299
     28298     28299     28300     28301     28300     28302     28301     28302
     28303     28304     28303     28305     28304     28305     28306     28307
     28306     28308     28307     28308     28309     28310     28309     28311
     28310     28311     28312     28313     28312     28314     28313     28314
     28315     28316     28315     28317     28316     28317     28318     28319
     28318     28320     28319     28320     28321     28322     28321     28323
     28322     28323     28324     28325     28324     28326     28325     28326
     28327     28328     28327     28329     28328     28329     28330     28331
     28330     28332     28331     28332     28333     28334     28333     28335
     28334     28335     28336     28337     28336     28338     28337     28338
     28339     28340     28339     28341     28340     28341     28342     28343
     28342     28344     28343     28344     28345     28346     28345     28347
     28346     28347     28348     28349     28348     28350     28349     28350
     28351     28352     28351     28353     28352     28353     28354     28355
     28354     28356     28355     28356     28357     28358     28357     28359
     28358     28359     28360     28361     28360     28362     28361     28362
     28363     28364     28363     28365     28364     28365     28366     28367
     28366     28368     28367     28368     28369     28370     28369     28371
     28370     28371     28372     28373     28372     28374     28373     28374
     28375     28376     28375     28377     28376     28377     28378     28379
     28378     28380     28379     28380     28381     28382     28381     28383
     28382     28383     28384     28385     28384     28386     28385     28386
     28387     28388     28387     28389     28388     28389     28390     28391
     28390     28392     28391     28392     28393     28394     28393     28395
     28394     28395     28396     28397     28396     28398     28397     28398
     28399     28400     28399     28401     28400     28401     28402     28403
     28402     28404     28403     28404     28405     28406     28405     28407
     28406     28407     28408     28409     28408     28410     28409     28410
     28411     28412     28411     28413     28412     28413     28414     28415
     28414     28416     28415     28416     28417     28418     28417     28419
     28418     28419     28420     28421     28420     28422     28421     28422
     28423     28424     28423     28425     28424     28425     28426     28427
     28426     28428     28427     28428     28429     28430     28429     28431
     28430     28431     28432     28433     28432     28434     28433     28434
     28435     28436     28435     28437     28436     28437     28438     28439
     28438     28440     28439     28440     28441     28442     28441     28443
     28442     28443     28444     28445     28444     28446     28445     28446
     28447     28448     28447     28449     28448     28449     28450     28451
     28450     28452     28451     28452     28453     28454     28453     28455
     28454     28455     28456     28457     28456     28458     28457     28458
     28459     28460     28459     28461     28460     28461     28462     28463
     28462     28464     28463     28464     28465     28466     28465     28467
     28466     28467     28468     28469     28468     28470     28469     28470
     28471     28472     28471     28473     28472     28473     28474     28475
     28474     28476     28475     28476     28477     28478     28477     28479
     28478     28479     28480     28481     28480     28482     28481     28482
     28483     28484     28483     28485     28484     28485     28486     28487
     28486     28488     28487     28488     28489     28490     28489     28491
     28490     28491     28492     28493     28492     28494     28493     28494
     28495     28496     28495     28497     28496     28497     28498     28499
     28498     28500     28499     28500     28501     28502     28501     28503
     28502     28503     28504     28505     28504     28506     28505     28506
     28507     28508     28507     28509     28508     28509     28510     28511
     28510     28512     28511     28512     28513     28514     28513     28515
     28514     28515     28516     28517     28516     28518     28517     28518
     28519     28520     28519     28521     28520     28521     28522     28523
     28522     28524     28523     28524     28525     28526     28525     28527
     28526     28527     28528     28529     28528     28530     28529     28530
     28531     28532     28531     28533     28532     28533     28534     28535
     28534     28536     28535     28536     28537     28538     28537     28539
     28538     28539     28540     28541     28540     28542     28541     28542
     28543     28544     28543     28545     28544     28545     28546     28547
     28546     28548     28547     28548     28549     28550     28549     28551
     28550     28551     28552     28553     28552     28554     28553     28554
     28555     28556     28555     28557     28556     28557     28558     28559
     28558     28560     28559     28560     28561     28562     28561     28563
     28562     28563     28564     28565     28564     28566     28565     28566
     28567     28568     28567     28569     28568     28569     28570     28571
     28570     28572     28571     28572     28573     28574     28573     28575
     28574     28575     28576     28577     28576     28578     28577     28578
     28579     28580     28579     28581     28580     28581     28582     28583
     28582     28584     28583     28584     28585     28586     28585     28587
     28586     28587     28588     28589     28588     28590     28589     28590
     28591     28592     28591     28593     28592     28593     28594     28595
     28594     28596     28595     28596     28597     28598     28597     28599
     28598     28599     28600     28601     28600     28602     28601     28602
     28603     28604     28603     28605     28604     28605     28606     28607
     28606     28608     28607     28608     28609     28610     28609     28611
     28610     28611     28612     28613     28612     28614     28613     28614
     28615     28616     28615     28617     28616     28617     28618     28619
     28618     28620     28619     28620     28621     28622     28621     28623
     28622     28623     28624     28625     28624     28626     28625     28626
     28627     28628     28627     28629     28628     28629     28630     28631
     28630     28632     28631     28632     28633     28634     28633     28635
     28634     28635     28636     28637     28636     28638     28637     28638
     28639     28640     28639     28641     28640     28641     28642     28643
     28642     28644     28643     28644     28645     28646     28645     28647
     28646     28647     28648     28649     28648     28650     28649     28650
     28651     28652     28651     28653     28652     28653     28654     28655
     28654     28656     28655     28656     28657     28658     28657     28659
     28658     28659     28660     28661     28660     28662     28661     28662
     28663     28664     28663     28665     28664     28665     28666     28667
     28666     28668     28667     28668     28669     28670     28669     28671
     28670     28671     28672     28673     28672     28674     28673     28674
     28675     28676     28675     28677     28676     28677     28678     28679
     28678     28680     28679     28680     28681     28682     28681     28683
     28682     28683     28684     28685     28684     28686     28685     28686
     28687     28688     28687     28689     28688     28689     28690     28691
     28690     28692     28691     28692     28693     28694     28693     28695
     28694     28695     28696     28697     28696     28698     28697     28698
     28699     28700     28699     28701     28700     28701     28702     28703
     28702     28704     28703     28704     28705     28706     28705     28707
     28706     28707     28708     28709     28708     28710     28709     28710
     28711     28712     28711     28713     28712     28713     28714     28715
     28714     28716     28715     28716     28717     28718     28717     28719
     28718     28719     28720     28721     28720     28722     28721     28722
     28723     28724     28723     28725     28724     28725     28726     28727
     28726     28728     28727     28728     28729     28730     28729     28731
     28730     28731     28732     28733     28732     28734     28733     28734
     28735     28736     28735     28737     28736     28737     28738     28739
     28738     28740     28739     28740     28741     28742     28741     28743
     28742     28743     28744     28745     28744     28746     28745     28746
     28747     28748     28747     28749     28748     28749     28750     28751
     28750     28752     28751     28752     28753     28754     28753     28755
     28754     28755     28756     28757     28756     28758     28757     28758
     28759     28760     28759     28761     28760     28761     28762     28763
     28762     28764     28763     28764     28765     28766     28765     28767
     28766     28767     28768     28769     28768     28770     28769     28770
     28771     28772     28771     28773     28772     28773     28774     28775
     28774     28776     28775     28776     28777     28778     28777     28779
     28778     28779     28780     28781     28780     28782     28781     28782
     28783     28784     28783     28785     28784     28785     28786     28787
     28786     28788     28787     28788     28789     28790     28789     28791
     28790     28791     28792     28793     28792     28794     28793     28794
     28795     28796     28795     28797     28796     28797     28798     28799
     28798     28800     28799     28800     28801     28802     28801     28803
     28802     28803     28804     28805     28804     28806     28805     28806
     28807     28808     28807     28809     28808     28809     28810     28811
     28810     28812     28811     28812     28813     28814     28813     28815
     28814     28815     28816     28817     28816     28818     28817     28818
     28819     28820     28819     28821     28820     28821     28822     28823
     28822     28824     28823     28824     28825     28826     28825     28827
     28826     28827     28828     28829     28828     28830     28829     28830
     28831     28832     28831     28833     28832     28833     28834     28835
     28834     28836     28835     28836     28837     28838     28837     28839
     28838     28839     28840     28841     28840     28842     28841     28842
     28843     28844     28843     28845     28844     28845     28846     28847
     28846     28848     28847     28848     28849     28850     28849     28851
     28850     28851     28852     28853     28852     28854     28853     28854
     28855     28856     28855     28857     28856     28857     28858     28859
     28858     28860     28859     28860     28861     28862     28861     28863
     28862     28863     28864     28865     28864     28866     28865     28866
     28867     28868     28867     28869     28868     28869     28870     28871
     28870     28872     28871     28872     28873     28874     28873     28875
     28874     28875     28876     28877     28876     28878     28877     28878
     28879     28880     28879     28881     28880     28881     28882     28883
     28882     28884     28883     28884     28885     28886     28885     28887
     28886     28887     28888     28889     28888     28890     28889     28890
     28891     28892     28891     28893     28892     28893     28894     28895
     28894     28896     28895     28896     28897     28898     28897     28899
     28898     28899     28900     28901     28900     28902     28901     28902
     28903     28904     28903     28905     28904     28905     28906     28907
     28906     28908     28907     28908     28909     28910     28909     28911
     28910     28911     28912     28913     28912     28914     28913     28914
     28915     28916     28915     28917     28916     28917     28918     28919
     28918     28920     28919     28920     28921     28922     28921     28923
     28922     28923     28924     28925     28924     28926     28925     28926
     28927     28928     28927     28929     28928     28929     28930     28931
     28930     28932     28931     28932     28933     28934     28933     28935
     28934     28935     28936     28937     28936     28938     28937     28938
     28939     28940     28939     28941     28940     28941     28942     28943
     28942     28944     28943     28944     28945     28946     28945     28947
     28946     28947     28948     28949     28948     28950     28949     28950
     28951     28952     28951     28953     28952     28953     28954     28955
     28954     28956     28955     28956     28957     28958     28957     28959
     28958     28959     28960     28961     28960     28962     28961     28962
     28963     28964     28963     28965     28964     28965     28966     28967
     28966     28968     28967     28968     28969     28970     28969     28971
     28970     28971     28972     28973     28972     28974     28973     28974
     28975     28976     28975     28977     28976     28977     28978     28979
     28978     28980     28979     28980     28981     28982     28981     28983
     28982     28983     28984     28985     28984     28986     28985     28986
     28987     28988     28987     28989     28988     28989     28990     28991
     28990     28992     28991     28992     28993     28994     28993     28995
     28994     28995     28996     28997     28996     28998     28997     28998
     28999     29000     28999     29001     29000     29001     29002     29003
     29002     29004     29003     29004     29005     29006     29005     29007
     29006     29007     29008     29009     29008     29010     29009     29010
     29011     29012     29011     29013     29012     29013     29014     29015
     29014     29016     29015     29016     29017     29018     29017     29019
     29018     29019     29020     29021     29020     29022     29021     29022
     29023     29024     29023     29025     29024     29025     29026     29027
     29026     29028     29027     29028     29029     29030     29029     29031
     29030     29031     29032     29033     29032     29034     29033     29034
     29035     29036     29035     29037     29036     29037     29038     29039
     29038     29040     29039     29040     29041     29042     29041     29043
     29042     29043     29044     29045     29044     29046     29045     29046
     29047     29048     29047     29049     29048     29049     29050     29051
     29050     29052     29051     29052     29053     29054     29053     29055
     29054     29055     29056     29057     29056     29058     29057     29058
     29059     29060     29059     29061     29060     29061     29062     29063
     29062     29064     29063     29064     29065     29066     29065     29067
     29066     29067     29068     29069     29068     29070     29069     29070
     29071     29072     29071     29073     29072     29073     29074     29075
     29074     29076     29075     29076     29077     29078     29077     29079
     29078     29079     29080     29081     29080     29082     29081     29082
     29083     29084     29083     29085     29084     29085     29086     29087
     29086     29088     29087     29088     29089     29090     29089     29091
     29090     29091     29092     29093     29092     29094     29093     29094
     29095     29096     29095     29097     29096     29097     29098     29099
     29098     29100     29099     29100     29101     29102     29101     29103
     29102     29103     29104     29105     29104     29106     29105     29106
     29107     29108     29107     29109     29108     29109     29110     29111
     29110     29112     29111     29112     29113     29114     29113     29115
     29114     29115     29116     29117     29116     29118     29117     29118
     29119     29120     29119     29121     29120     29121     29122     29123
     29122     29124     29123     29124     29125     29126     29125     29127
     29126     29127     29128     29129     29128     29130     29129     29130
     29131     29132     29131     29133     29132     29133     29134     29135
     29134     29136     29135     29136     29137     29138     29137     29139
     29138     29139     29140     29141     29140     29142     29141     29142
     29143     29144     29143     29145     29144     29145     29146     29147
     29146     29148     29147     29148     29149     29150     29149     29151
     29150     29151     29152     29153     29152     29154     29153     29154
     29155     29156     29155     29157     29156     29157     29158     29159
     29158     29160     29159     29160     29161     29162     29161     29163
     29162     29163     29164     29165     29164     29166     29165     29166
     29167     29168     29167     29169     29168     29169     29170     29171
     29170     29172     29171     29172     29173     29174     29173     29175
     29174     29175     29176     29177     29176     29178     29177     29178
     29179     29180     29179     29181     29180     29181     29182     29183
     29182     29184     29183     29184     29185     29186     29185     29187
     29186     29187     29188     29189     29188     29190     29189     29190
     29191     29192     29191     29193     29192     29193     29194     29195
     29194     29196     29195     29196     29197     29198     29197     29199
     29198     29199     29200     29201     29200     29202     29201     29202
     29203     29204     29203     29205     29204     29205     29206     29207
     29206     29208     29207     29208     29209     29210     29209     29211
     29210     29211     29212     29213     29212     29214     29213     29214
     29215     29216     29215     29217     29216     29217     29218     29219
     29218     29220     29219     29220     29221     29222     29221     29223
     29222     29223     29224     29225     29224     29226     29225     29226
     29227     29228     29227     29229     29228     29229     29230     29231
     29230     29232     29231     29232     29233     29234     29233     29235
     29234     29235     29236     29237     29236     29238     29237     29238
     29239     29240     29239     29241     29240     29241     29242     29243
     29242     29244     29243     29244     29245     29246     29245     29247
     29246     29247     29248     29249     29248     29250     29249     29250
     29251     29252     29251     29253     29252     29253     29254     29255
     29254     29256     29255     29256     29257     29258     29257     29259
     29258     29259     29260     29261     29260     29262     29261     29262
     29263     29264     29263     29265     29264     29265     29266     29267
     29266     29268     29267     29268     29269     29270     29269     29271
     29270     29271     29272     29273     29272     29274     29273     29274
     29275     29276     29275     29277     29276     29277     29278     29279
     29278     29280     29279     29280     29281     29282     29281     29283
     29282     29283     29284     29285     29284     29286     29285     29286
     29287     29288     29287     29289     29288     29289     29290     29291
     29290     29292     29291     29292     29293     29294     29293     29295
     29294     29295     29296     29297     29296     29298     29297     29298
     29299     29300     29299     29301     29300     29301     29302     29303
     29302     29304     29303     29304     29305     29306     29305     29307
     29306     29307     29308     29309     29308     29310     29309     29310
     29311     29312     29311     29313     29312     29313     29314     29315
     29314     29316     29315     29316     29317     29318     29317     29319
     29318     29319     29320     29321     29320     29322     29321     29322
     29323     29324     29323     29325     29324     29325     29326     29327
     29326     29328     29327     29328     29329     29330     29329     29331
     29330     29331     29332     29333     29332     29334     29333     29334
     29335     29336     29335     29337     29336     29337     29338     29339
     29338     29340     29339     29340     29341     29342     29341     29343
     29342     29343     29344     29345     29344     29346     29345     29346
     29347     29348     29347     29349     29348     29349     29350     29351
     29350     29352     29351     29352     29353     29354     29353     29355
     29354     29355     29356     29357     29356     29358     29357     29358
     29359     29360     29359     29361     29360     29361     29362     29363
     29362     29364     29363     29364     29365     29366     29365     29367
     29366     29367     29368     29369     29368     29370     29369     29370
     29371     29372     29371     29373     29372     29373     29374     29375
     29374     29376     29375     29376     29377     29378     29377     29379
     29378     29379     29380     29381     29380     29382     29381     29382
     29383     29384     29383     29385     29384     29385     29386     29387
     29386     29388     29387     29388     29389     29390     29389     29391
     29390     29391     29392     29393     29392     29394     29393     29394
     29395     29396     29395     29397     29396     29397     29398     29399
     29398     29400     29399     29400     29401     29402     29401     29403
     29402     29403     29404     29405     29404     29406     29405     29406
     29407     29408     29407     29409     29408     29409     29410     29411
     29410     29412     29411     29412     29413     29414     29413     29415
     29414     29415     29416     29417     29416     29418     29417     29418
     29419     29420     29419     29421     29420     29421     29422     29423
     29422     29424     29423     29424     29425     29426     29425     29427
     29426     29427     29428     29429     29428     29430     29429     29430
     29431     29432     29431     29433     29432     29433     29434     29435
     29434     29436     29435     29436     29437     29438     29437     29439
     29438     29439     29440     29441     29440     29442     29441     29442
     29443     29444     29443     29445     29444     29445     29446     29447
     29446     29448     29447     29448     29449     29450     29449     29451
     29450     29451     29452     29453     29452     29454     29453     29454
     29455     29456     29455     29457     29456     29457     29458     29459
     29458     29460     29459     29460     29461     29462     29461     29463
     29462     29463     29464     29465     29464     29466     29465     29466
     29467     29468     29467     29469     29468     29469     29470     29471
     29470     29472     29471     29472     29473     29474     29473     29475
     29474     29475     29476     29477     29476     29478     29477     29478
     29479     29480     29479     29481     29480     29481     29482     29483
     29482     29484     29483     29484     29485     29486     29485     29487
     29486     29487     29488     29489     29488     29490     29489     29490
     29491     29492     29491     29493     29492     29493     29494     29495
     29494     29496     29495     29496     29497     29498     29497     29499
     29498     29499     29500     29501     29500     29502     29501     29502
     29503     29504     29503     29505     29504     29505     29506     29507
     29506     29508     29507     29508     29509     29510     29509     29511
     29510     29511     29512     29513     29512     29514     29513     29514
     29515     29516     29515     29517     29516     29517     29518     29519
     29518     29520     29519     29520     29521     29522     29521     29523
     29522     29523     29524     29525     29524     29526     29525     29526
     29527     29528     29527     29529     29528     29529     29530     29531
     29530     29532     29531     29532     29533     29534     29533     29535
     29534     29535     29536     29537     29536     29538     29537     29538
     29539     29540     29539     29541     29540     29541     29542     29543
     29542     29544     29543     29544     29545     29546     29545     29547
     29546     29547     29548     29549     29548     29550     29549     29550
     29551     29552     29551     29553     29552     29553     29554     29555
     29554     29556     29555     29556     29557     29558     29557     29559
     29558     29559     29560     29561     29560     29562     29561     29562
     29563     29564     29563     29565     29564     29565     29566     29567
     29566     29568     29567     29568     29569     29570     29569     29571
     29570     29571     29572     29573     29572     29574     29573     29574
     29575     29576     29575     29577     29576     29577     29578     29579
     29578     29580     29579     29580     29581     29582     29581     29583
     29582     29583     29584     29585     29584     29586     29585     29586
     29587     29588     29587     29589     29588     29589     29590     29591
     29590     29592     29591     29592     29593     29594     29593     29595
     29594     29595     29596     29597     29596     29598     29597     29598
     29599     29600     29599     29601     29600     29601     29602     29603
     29602     29604     29603     29604     29605     29606     29605     29607
     29606     29607     29608     29609     29608     29610     29609     29610
     29611     29612     29611     29613     29612     29613     29614     29615
     29614     29616     29615     29616     29617     29618     29617     29619
     29618     29619     29620     29621     29620     29622     29621     29622
     29623     29624     29623     29625     29624     29625     29626     29627
     29626     29628     29627     29628     29629     29630     29629     29631
     29630     29631     29632     29633     29632     29634     29633     29634
     29635     29636     29635     29637     29636     29637     29638     29639
     29638     29640     29639     29640     29641     29642     29641     29643
     29642     29643     29644     29645     29644     29646     29645     29646
     29647     29648     29647     29649     29648     29649     29650     29651
     29650     29652     29651     29652     29653     29654     29653     29655
     29654     29655     29656     29657     29656     29658     29657     29658
     29659     29660     29659     29661     29660     29661     29662     29663
     29662     29664     29663     29664     29665     29666     29665     29667
     29666     29667     29668     29669     29668     29670     29669     29670
     29671     29672     29671     29673     29672     29673     29674     29675
     29674     29676     29675     29676     29677     29678     29677     29679
     29678     29679     29680     29681     29680     29682     29681     29682
     29683     29684     29683     29685     29684     29685     29686     29687
     29686     29688     29687     29688     29689     29690     29689     29691
     29690     29691     29692     29693     29692     29694     29693     29694
     29695     29696     29695     29697     29696     29697     29698     29699
     29698     29700     29699     29700     29701     29702     29701     29703
     29702     29703     29704     29705     29704     29706     29705     29706
     29707     29708     29707     29709     29708     29709     29710     29711
     29710     29712     29711     29712     29713     29714     29713     29715
     29714     29715     29716     29717     29716     29718     29717     29718
     29719     29720     29719     29721     29720     29721     29722     29723
     29722     29724     29723     29724     29725     29726     29725     29727
     29726     29727     29728     29729     29728     29730     29729     29730
     29731     29732     29731     29733     29732     29733     29734     29735
     29734     29736     29735     29736     29737     29738     29737     29739
     29738     29739     29740     29741     29740     29742     29741     29742
     29743     29744     29743     29745     29744     29745     29746     29747
     29746     29748     29747     29748     29749     29750     29749     29751
     29750     29751     29752     29753     29752     29754     29753     29754
     29755     29756     29755     29757     29756     29757     29758     29759
     29758     29760     29759     29760     29761     29762     29761     29763
     29762     29763     29764     29765     29764     29766     29765     29766
     29767     29768     29767     29769     29768     29769     29770     29771
     29770     29772     29771     29772     29773     29774     29773     29775
     29774     29775     29776     29777     29776     29778     29777     29778
     29779     29780     29779     29781     29780     29781     29782     29783
     29782     29784     29783     29784     29785     29786     29785     29787
     29786     29787     29788     29789     29788     29790     29789     29790
     29791     29792     29791     29793     29792     29793     29794     29795
     29794     29796     29795     29796     29797     29798     29797     29799
     29798     29799     29800     29801     29800     29802     29801     29802
     29803     29804     29803     29805     29804     29805     29806     29807
     29806     29808     29807     29808     29809     29810     29809     29811
     29810     29811     29812     29813     29812     29814     29813     29814
     29815     29816     29815     29817     29816     29817     29818     29819
     29818     29820     29819     29820     29821     29822     29821     29823
     29822     29823     29824     29825     29824     29826     29825     29826
     29827     29828     29827     29829     29828     29829     29830     29831
     29830     29832     29831     29832     29833     29834     29833     29835
     29834     29835     29836     29837     29836     29838     29837     29838
     29839     29840     29839     29841     29840     29841     29842     29843
     29842     29844     29843     29844     29845     29846     29845     29847
     29846     29847     29848     29849     29848     29850     29849     29850
     29851     29852     29851     29853     29852     29853     29854     29855
     29854     29856     29855     29856     29857     29858     29857     29859
     29858     29859     29860     29861     29860     29862     29861     29862
     29863     29864     29863     29865     29864     29865     29866     29867
     29866     29868     29867     29868     29869     29870     29869     29871
     29870     29871     29872     29873     29872     29874     29873     29874
     29875     29876     29875     29877     29876     29877     29878     29879
     29878     29880     29879     29880     29881     29882     29881     29883
     29882     29883     29884     29885     29884     29886     29885     29886
     29887     29888     29887     29889     29888     29889     29890     29891
     29890     29892     29891     29892     29893     29894     29893     29895
     29894     29895     29896     29897     29896     29898     29897     29898
     29899     29900     29899     29901     29900     29901     29902     29903
     29902     29904     29903     29904     29905     29906     29905     29907
     29906     29907     29908     29909     29908     29910     29909     29910
     29911     29912     29911     29913     29912     29913     29914     29915
     29914     29916     29915     29916     29917     29918     29917     29919
     29918     29919     29920     29921     29920     29922     29921     29922
     29923     29924     29923     29925     29924     29925     29926     29927
     29926     29928     29927     29928     29929     29930     29929     29931
     29930     29931     29932     29933     29932     29934     29933     29934
     29935     29936     29935     29937     29936     29937     29938     29939
     29938     29940     29939     29940     29941     29942     29941     29943
     29942     29943     29944     29945     29944     29946     29945     29946
     29947     29948     29947     29949     29948     29949     29950     29951
     29950     29952     29951     29952     29953     29954     29953     29955
     29954     29955     29956     29957     29956     29958     29957     29958
     29959     29960     29959     29961     29960     29961     29962     29963
     29962     29964     29963     29964     29965     29966     29965     29967
     29966     29967     29968     29969     29968     29970     29969     29970
     29971     29972     29971     29973     29972     29973     29974     29975
     29974     29976     29975     29976     29977     29978     29977     29979
     29978     29979     29980     29981     29980     29982     29981     29982
     29983     29984     29983     29985     29984     29985     29986     29987
     29986     29988     29987     29988     29989     29990     29989     29991
     29990     29991     29992     29993     29992     29994     29993     29994
     29995     29996     29995     29997     29996     29997     29998     29999
     29998     30000     29999     30000     30001     30002     30001     30003
     30002     30003     30004     30005     30004     30006     30005     30006
     30007     30008     30007     30009     30008     30009     30010     30011
     30010     30012     30011     30012     30013     30014     30013     30015
     30014     30015     30016     30017     30016     30018     30017     30018
     30019     30020     30019     30021     30020     30021     30022     30023
     30022     30024     30023     30024     30025     30026     30025     30027
     30026     30027     30028     30029     30028     30030     30029     30030
     30031     30032     30031     30033     30032     30033     30034     30035
     30034     30036     30035     30036     30037     30038     30037     30039
     30038     30039     30040     30041     30040     30042     30041     30042
     30043     30044     30043     30045     30044     30045     30046     30047
     30046     30048     30047     30048     30049     30050     30049     30051
     30050     30051     30052     30053     30052     30054     30053     30054
     30055     30056     30055     30057     30056     30057     30058     30059
     30058     30060     30059     30060     30061     30062     30061     30063
     30062     30063     30064     30065     30064     30066     30065     30066
     30067     30068     30067     30069     30068     30069     30070     30071
     30070     30072     30071     30072     30073     30074     30073     30075
     30074     30075     30076     30077     30076     30078     30077     30078
     30079     30080     30079     30081     30080     30081     30082     30083
     30082     30084     30083     30084     30085     30086     30085     30087
     30086     30087     30088     30089     30088     30090     30089     30090
     30091     30092     30091     30093     30092     30093     30094     30095
     30094     30096     30095     30096     30097     30098     30097     30099
     30098     30099     30100     30101     30100     30102     30101     30102
     30103     30104     30103     30105     30104     30105     30106     30107
     30106     30108     30107     30108     30109     30110     30109     30111
     30110     30111     30112     30113     30112     30114     30113     30114
     30115     30116     30115     30117     30116     30117     30118     30119
     30118     30120     30119     30120     30121     30122     30121     30123
     30122     30123     30124     30125     30124     30126     30125     30126
     30127     30128     30127     30129     30128     30129     30130     30131
     30130     30132     30131     30132     30133     30134     30133     30135
     30134     30135     30136     30137     30136     30138     30137     30138
     30139     30140     30139     30141     30140     30141     30142     30143
     30142     30144     30143     30144     30145     30146     30145     30147
     30146     30147     30148     30149     30148     30150     30149     30150
     30151     30152     30151     30153     30152     30153     30154     30155
     30154     30156     30155     30156     30157     30158     30157     30159
     30158     30159     30160     30161     30160     30162     30161     30162
     30163     30164     30163     30165     30164     30165     30166     30167
     30166     30168     30167     30168     30169     30170     30169     30171
     30170     30171     30172     30173     30172     30174     30173     30174
     30175     30176     30175     30177     30176     30177     30178     30179
     30178     30180     30179     30180     30181     30182     30181     30183
     30182     30183     30184     30185     30184     30186     30185     30186
     30187     30188     30187     30189     30188     30189     30190     30191
     30190     30192     30191     30192     30193     30194     30193     30195
     30194     30195     30196     30197     30196     30198     30197     30198
     30199     30200     30199     30201     30200     30201     30202     30203
     30202     30204     30203     30204     30205     30206     30205     30207
     30206     30207     30208     30209     30208     30210     30209     30210
     30211     30212     30211     30213     30212     30213     30214     30215
     30214     30216     30215     30216     30217     30218     30217     30219
     30218     30219     30220     30221     30220     30222     30221     30222
     30223     30224     30223     30225     30224     30225     30226     30227
     30226     30228     30227     30228     30229     30230     30229     30231
     30230     30231     30232     30233     30232     30234     30233     30234
     30235     30236     30235     30237     30236     30237     30238     30239
     30238     30240     30239     30240     30241     30242     30241     30243
     30242     30243     30244     30245     30244     30246     30245     30246
     30247     30248     30247     30249     30248     30249     30250     30251
     30250     30252     30251     30252     30253     30254     30253     30255
     30254     30255     30256     30257     30256     30258     30257     30258
     30259     30260     30259     30261     30260     30261     30262     30263
     30262     30264     30263     30264     30265     30266     30265     30267
     30266     30267     30268     30269     30268     30270     30269     30270
     30271     30272     30271     30273     30272     30273     30274     30275
     30274     30276     30275     30276     30277     30278     30277     30279
     30278     30279     30280     30281     30280     30282     30281     30282
     30283     30284     30283     30285     30284     30285     30286     30287
     30286     30288     30287     30288     30289     30290     30289     30291
     30290     30291     30292     30293     30292     30294     30293     30294
     30295     30296     30295     30297     30296     30297     30298     30299
     30298     30300     30299     30300     30301     30302     30301     30303
     30302     30303     30304     30305     30304     30306     30305     30306
     30307     30308     30307     30309     30308     30309     30310     30311
     30310     30312     30311     30312     30313     30314     30313     30315
     30314     30315     30316     30317     30316     30318     30317     30318
     30319     30320     30319     30321     30320     30321     30322     30323
     30322     30324     30323     30324     30325     30326     30325     30327
     30326     30327     30328     30329     30328     30330     30329     30330
     30331     30332     30331     30333     30332     30333     30334     30335
     30334     30336     30335     30336     30337     30338     30337     30339
     30338     30339     30340     30341     30340     30342     30341     30342
     30343     30344     30343     30345     30344     30345     30346     30347
     30346     30348     30347     30348     30349     30350     30349     30351
     30350     30351     30352     30353     30352     30354     30353     30354
     30355     30356     30355     30357     30356     30357     30358     30359
     30358     30360     30359     30360     30361     30362     30361     30363
     30362     30363     30364     30365     30364     30366     30365     30366
     30367     30368     30367     30369     30368     30369     30370     30371
     30370     30372     30371     30372     30373     30374     30373     30375
     30374     30375     30376     30377     30376     30378     30377     30378
     30379     30380     30379     30381     30380     30381     30382     30383
     30382     30384     30383     30384     30385     30386     30385     30387
     30386     30387     30388     30389     30388     30390     30389     30390
     30391     30392     30391     30393     30392     30393     30394     30395
     30394     30396     30395     30396     30397     30398     30397     30399
     30398     30399     30400     30401     30400     30402     30401     30402
     30403     30404     30403     30405     30404     30405     30406     30407
     30406     30408     30407     30408     30409     30410     30409     30411
     30410     30411     30412     30413     30412     30414     30413     30414
     30415     30416     30415     30417     30416     30417     30418     30419
     30418     30420     30419     30420     30421     30422     30421     30423
     30422     30423     30424     30425     30424     30426     30425     30426
     30427     30428     30427     30429     30428     30429     30430     30431
     30430     30432     30431     30432     30433     30434     30433     30435
     30434     30435     30436     30437     30436     30438     30437     30438
     30439     30440     30439     30441     30440     30441     30442     30443
     30442     30444     30443     30444     30445     30446     30445     30447
     30446     30447     30448     30449     30448     30450     30449     30450
     30451     30452     30451     30453     30452     30453     30454     30455
     30454     30456     30455     30456     30457     30458     30457     30459
     30458     30459     30460     30461     30460     30462     30461     30462
     30463     30464     30463     30465     30464     30465     30466     30467
     30466     30468     30467     30468     30469     30470     30469     30471
     30470     30471     30472     30473     30472     30474     30473     30474
     30475     30476     30475     30477     30476     30477     30478     30479
     30478     30480     30479     30480     30481     30482     30481     30483
     30482     30483     30484     30485     30484     30486     30485     30486
     30487     30488     30487     30489     30488     30489     30490     30491
     30490     30492     30491     30492     30493     30494     30493     30495
     30494     30495     30496     30497     30496     30498     30497     30498
     30499     30500     30499     30501     30500     30501     30502     30503
     30502     30504     30503     30504     30505     30506     30505     30507
     30506     30507     30508     30509     30508     30510     30509     30510
     30511     30512     30511     30513     30512     30513     30514     30515
     30514     30516     30515     30516     30517     30518     30517     30519
     30518     30519     30520     30521     30520     30522     30521     30522
     30523     30524     30523     30525     30524     30525     30526     30527
     30526     30528     30527     30528     30529     30530     30529     30531
     30530     30531     30532     30533     30532     30534     30533     30534
     30535     30536     30535     30537     30536     30537     30538     30539
     30538     30540     30539     30540     30541     30542     30541     30543
     30542     30543     30544     30545     30544     30546     30545     30546
     30547     30548     30547     30549     30548     30549     30550     30551
     30550     30552     30551     30552     30553     30554     30553     30555
     30554     30555     30556     30557     30556     30558     30557     30558
     30559     30560     30559     30561     30560     30561     30562     30563
     30562     30564     30563     30564     30565     30566     30565     30567
     30566     30567     30568     30569     30568     30570     30569     30570
     30571     30572     30571     30573     30572     30573     30574     30575
     30574     30576     30575     30576     30577     30578     30577     30579
     30578     30579     30580     30581     30580     30582     30581     30582
     30583     30584     30583     30585     30584     30585     30586     30587
     30586     30588     30587     30588     30589     30590     30589     30591
     30590     30591     30592     30593     30592     30594     30593     30594
     30595     30596     30595     30597     30596     30597     30598     30599
     30598     30600     30599     30600     30601     30602     30601     30603
     30602     30603     30604     30605     30604     30606     30605     30606
     30607     30608     30607     30609     30608     30609     30610     30611
     30610     30612     30611     30612     30613     30614     30613     30615
     30614     30615     30616     30617     30616     30618     30617     30618
     30619     30620     30619     30621     30620     30621     30622     30623
     30622     30624     30623     30624     30625     30626     30625     30627
     30626     30627     30628     30629     30628     30630     30629     30630
     30631     30632     30631     30633     30632     30633     30634     30635
     30634     30636     30635     30636     30637     30638     30637     30639
     30638     30639     30640     30641     30640     30642     30641     30642
     30643     30644     30643     30645     30644     30645     30646     30647
     30646     30648     30647     30648     30649     30650     30649     30651
     30650     30651     30652     30653     30652     30654     30653     30654
     30655     30656     30655     30657     30656     30657     30658     30659
     30658     30660     30659     30660     30661     30662     30661     30663
     30662     30663     30664     30665     30664     30666     30665     30666
     30667     30668     30667     30669     30668     30669     30670     30671
     30670     30672     30671     30672     30673     30674     30673     30675
     30674     30675     30676     30677     30676     30678     30677     30678
     30679     30680     30679     30681     30680     30681     30682     30683
     30682     30684     30683     30684     30685     30686     30685     30687
     30686     30687     30688     30689     30688     30690     30689     30690
     30691     30692     30691     30693     30692     30693     30694     30695
     30694     30696     30695     30696     30697     30698     30697     30699
     30698     30699     30700     30701     30700     30702     30701     30702
     30703     30704     30703     30705     30704     30705     30706     30707
     30706     30708     30707     30708     30709     30710     30709     30711
     30710     30711     30712     30713     30712     30714     30713     30714
     30715     30716     30715     30717     30716     30717     30718     30719
     30718     30720     30719     30720     30721     30722     30721     30723
     30722     30723     30724     30725     30724     30726     30725     30726
     30727     30728     30727     30729     30728     30729     30730     30731
     30730     30732     30731     30732     30733     30734     30733     30735
     30734     30735     30736     30737     30736     30738     30737     30738
     30739     30740     30739     30741     30740     30741     30742     30743
     30742     30744     30743     30744     30745     30746     30745     30747
     30746     30747     30748     30749     30748     30750     30749     30750
     30751     30752     30751     30753     30752     30753     30754     30755
     30754     30756     30755     30756     30757     30758     30757     30759
     30758     30759     30760     30761     30760     30762     30761     30762
     30763     30764     30763     30765     30764     30765     30766     30767
     30766     30768     30767     30768     30769     30770     30769     30771
     30770     30771     30772     30773     30772     30774     30773     30774
     30775     30776     30775     30777     30776     30777     30778     30779
     30778     30780     30779     30780     30781     30782     30781     30783
     30782     30783     30784     30785     30784     30786     30785     30786
     30787     30788     30787     30789     30788     30789     30790     30791
     30790     30792     30791     30792     30793     30794     30793     30795
     30794     30795     30796     30797     30796     30798     30797     30798
     30799     30800     30799     30801     30800     30801     30802     30803
     30802     30804     30803     30804     30805     30806     30805     30807
     30806     30807     30808     30809     30808     30810     30809     30810
     30811     30812     30811     30813     30812     30813     30814     30815
     30814     30816     30815     30816     30817     30818     30817     30819
     30818     30819     30820     30821     30820     30822     30821     30822
     30823     30824     30823     30825     30824     30825     30826     30827
     30826     30828     30827     30828     30829     30830     30829     30831
     30830     30831     30832     30833     30832     30834     30833     30834
     30835     30836     30835     30837     30836     30837     30838     30839
     30838     30840     30839     30840     30841     30842     30841     30843
     30842     30843     30844     30845     30844     30846     30845     30846
     30847     30848     30847     30849     30848     30849     30850     30851
     30850     30852     30851     30852     30853     30854     30853     30855
     30854     30855     30856     30857     30856     30858     30857     30858
     30859     30860     30859     30861     30860     30861     30862     30863
     30862     30864     30863     30864     30865     30866     30865     30867
     30866     30867     30868     30869     30868     30870     30869     30870
     30871     30872     30871     30873     30872     30873     30874     30875
     30874     30876     30875     30876     30877     30878     30877     30879
     30878     30879     30880     30881     30880     30882     30881     30882
     30883     30884     30883     30885     30884     30885     30886     30887
     30886     30888     30887     30888     30889     30890     30889     30891
     30890     30891     30892     30893     30892     30894     30893     30894
     30895     30896     30895     30897     30896     30897     30898     30899
     30898     30900     30899     30900     30901     30902     30901     30903
     30902     30903     30904     30905     30904     30906     30905     30906
     30907     30908     30907     30909     30908     30909     30910     30911
     30910     30912     30911     30912     30913     30914     30913     30915
     30914     30915     30916     30917     30916     30918     30917     30918
     30919     30920     30919     30921     30920     30921     30922     30923
     30922     30924     30923     30924     30925     30926     30925     30927
     30926     30927     30928     30929     30928     30930     30929     30930
     30931     30932     30931     30933     30932     30933     30934     30935
     30934     30936     30935     30936     30937     30938     30937     30939
     30938     30939     30940     30941     30940     30942     30941     30942
     30943     30944     30943     30945     30944     30945     30946     30947
     30946     30948     30947     30948     30949     30950     30949     30951
     30950     30951     30952     30953     30952     30954     30953     30954
     30955     30956     30955     30957     30956     30957     30958     30959
     30958     30960     30959     30960     30961     30962     30961     30963
     30962     30963     30964     30965     30964     30966     30965     30966
     30967     30968     30967     30969     30968     30969     30970     30971
     30970     30972     30971     30972     30973     30974     30973     30975
     30974     30975     30976     30977     30976     30978     30977     30978
     30979     30980     30979     30981     30980     30981     30982     30983
     30982     30984     30983     30984     30985     30986     30985     30987
     30986     30987     30988     30989     30988     30990     30989     30990
     30991     30992     30991     30993     30992     30993     30994     30995
     30994     30996     30995     30996     30997     30998     30997     30999
     30998     30999     31000     31001     31000     31002     31001     31002
     31003     31004     31003     31005     31004     31005     31006     31007
     31006     31008     31007     31008     31009     31010     31009     31011
     31010     31011     31012     31013     31012     31014     31013     31014
     31015     31016     31015     31017     31016     31017     31018     31019
     31018     31020     31019     31020     31021     31022     31021     31023
     31022     31023     31024     31025     31024     31026     31025     31026
     31027     31028     31027     31029     31028     31029     31030     31031
     31030     31032     31031     31032     31033     31034     31033     31035
     31034     31035     31036     31037     31036     31038     31037     31038
     31039     31040     31039     31041     31040     31041     31042     31043
     31042     31044     31043     31044     31045     31046     31045     31047
     31046     31047     31048     31049     31048     31050     31049     31050
     31051     31052     31051     31053     31052     31053     31054     31055
     31054     31056     31055     31056     31057     31058     31057     31059
     31058     31059     31060     31061     31060     31062     31061     31062
     31063     31064     31063     31065     31064     31065     31066     31067
     31066     31068     31067     31068     31069     31070     31069     31071
     31070     31071     31072     31073     31072     31074     31073     31074
     31075     31076     31075     31077     31076     31077     31078     31079
     31078     31080     31079     31080     31081     31082     31081     31083
     31082     31083     31084     31085     31084     31086     31085     31086
     31087     31088     31087     31089     31088     31089     31090     31091
     31090     31092     31091     31092     31093     31094     31093     31095
     31094     31095     31096     31097     31096     31098     31097     31098
     31099     31100     31099     31101     31100     31101     31102     31103
     31102     31104     31103     31104     31105     31106     31105     31107
     31106     31107     31108     31109     31108     31110     31109     31110
     31111     31112     31111     31113     31112     31113     31114     31115
     31114     31116     31115     31116     31117     31118     31117     31119
     31118     31119     31120     31121     31120     31122     31121     31122
     31123     31124     31123     31125     31124     31125     31126     31127
     31126     31128     31127     31128     31129     31130     31129     31131
     31130     31131     31132     31133     31132     31134     31133     31134
     31135     31136     31135     31137     31136     31137     31138     31139
     31138     31140     31139     31140     31141     31142     31141     31143
     31142     31143     31144     31145     31144     31146     31145     31146
     31147     31148     31147     31149     31148     31149     31150     31151
     31150     31152     31151     31152     31153     31154     31153     31155
     31154     31155     31156     31157     31156     31158     31157     31158
     31159     31160     31159     31161     31160     31161     31162     31163
     31162     31164     31163     31164     31165     31166     31165     31167
     31166     31167     31168     31169     31168     31170     31169     31170
     31171     31172     31171     31173     31172     31173     31174     31175
     31174     31176     31175     31176     31177     31178     31177     31179
     31178     31179     31180     31181     31180     31182     31181     31182
     31183     31184     31183     31185     31184     31185     31186     31187
     31186     31188     31187     31188     31189     31190     31189     31191
     31190     31191     31192     31193     31192     31194     31193     31194
     31195     31196     31195     31197     31196     31197     31198     31199
     31198     31200     31199     31200     31201     31202     31201     31203
     31202     31203     31204     31205     31204     31206     31205     31206
     31207     31208     31207     31209     31208     31209     31210     31211
     31210     31212     31211     31212     31213     31214     31213     31215
     31214     31215     31216     31217     31216     31218     31217     31218
     31219     31220     31219     31221     31220     31221     31222     31223
     31222     31224     31223     31224     31225     31226     31225     31227
     31226     31227     31228     31229     31228     31230     31229     31230
     31231     31232     31231     31233     31232     31233     31234     31235
     31234     31236     31235     31236     31237     31238     31237     31239
     31238     31239     31240     31241     31240     31242     31241     31242
     31243     31244     31243     31245     31244     31245     31246     31247
     31246     31248     31247     31248     31249     31250     31249     31251
     31250     31251     31252     31253     31252     31254     31253     31254
     31255     31256     31255     31257     31256     31257     31258     31259
     31258     31260     31259     31260     31261     31262     31261     31263
     31262     31263     31264     31265     31264     31266     31265     31266
     31267     31268     31267     31269     31268     31269     31270     31271
     31270     31272     31271     31272     31273     31274     31273     31275
     31274     31275     31276     31277     31276     31278     31277     31278
     31279     31280     31279     31281     31280     31281     31282     31283
     31282     31284     31283     31284     31285     31286     31285     31287
     31286     31287     31288     31289     31288     31290     31289     31290
     31291     31292     31291     31293     31292     31293     31294     31295
     31294     31296     31295     31296     31297     31298     31297     31299
     31298     31299     31300     31301     31300     31302     31301     31302
     31303     31304     31303     31305     31304     31305     31306     31307
     31306     31308     31307     31308     31309     31310     31309     31311
     31310     31311     31312     31313     31312     31314     31313     31314
     31315     31316     31315     31317     31316     31317     31318     31319
     31318     31320     31319     31320     31321     31322     31321     31323
     31322     31323     31324     31325     31324     31326     31325     31326
     31327     31328     31327     31329     31328     31329     31330     31331
     31330     31332     31331     31332     31333     31334     31333     31335
     31334     31335     31336     31337     31336     31338     31337     31338
     31339     31340     31339     31341     31340     31341     31342     31343
     31342     31344     31343     31344     31345     31346     31345     31347
     31346     31347     31348     31349     31348     31350     31349     31350
     31351     31352     31351     31353     31352     31353     31354     31355
     31354     31356     31355     31356     31357     31358     31357     31359
     31358     31359     31360     31361     31360     31362     31361     31362
     31363     31364     31363     31365     31364     31365     31366     31367
     31366     31368     31367     31368     31369     31370     31369     31371
     31370     31371     31372     31373     31372     31374     31373     31374
     31375     31376     31375     31377     31376     31377     31378     31379
     31378     31380     31379     31380     31381     31382     31381     31383
     31382     31383     31384     31385     31384     31386     31385     31386
     31387     31388     31387     31389     31388     31389     31390     31391
     31390     31392     31391     31392     31393     31394     31393     31395
     31394     31395     31396     31397     31396     31398     31397     31398
     31399     31400     31399     31401     31400     31401     31402     31403
     31402     31404     31403     31404     31405     31406     31405     31407
     31406     31407     31408     31409     31408     31410     31409     31410
     31411     31412     31411     31413     31412     31413     31414     31415
     31414     31416     31415     31416     31417     31418     31417     31419
     31418     31419     31420     31421     31420     31422     31421     31422
     31423     31424     31423     31425     31424     31425     31426     31427
     31426     31428     31427     31428     31429     31430     31429     31431
     31430     31431     31432     31433     31432     31434     31433     31434
     31435     31436     31435     31437     31436     31437     31438     31439
     31438     31440     31439     31440     31441     31442     31441     31443
     31442     31443     31444     31445     31444     31446     31445     31446
     31447     31448     31447     31449     31448     31449     31450     31451
     31450     31452     31451     31452     31453     31454     31453     31455
     31454     31455     31456     31457     31456     31458     31457     31458
     31459     31460     31459     31461     31460     31461     31462     31463
     31462     31464     31463     31464     31465     31466     31465     31467
     31466     31467     31468     31469     31468     31470     31469     31470
     31471     31472     31471     31473     31472     31473     31474     31475
     31474     31476     31475     31476     31477     31478     31477     31479
     31478     31479     31480     31481     31480     31482     31481     31482
     31483     31484     31483     31485     31484     31485     31486     31487
     31486     31488     31487     31488     31489     31490     31489     31491
     31490     31491     31492     31493     31492     31494     31493     31494
     31495     31496     31495     31497     31496     31497     31498     31499
     31498     31500     31499     31500     31501     31502     31501     31503
     31502     31503     31504     31505     31504     31506     31505     31506
     31507     31508     31507     31509     31508     31509     31510     31511
     31510     31512     31511     31512     31513     31514     31513     31515
     31514     31515     31516     31517     31516     31518     31517     31518
     31519     31520     31519     31521     31520     31521     31522     31523
     31522     31524     31523     31524     31525     31526     31525     31527
     31526     31527     31528     31529     31528     31530     31529     31530
     31531     31532     31531     31533     31532     31533     31534     31535
     31534     31536     31535     31536     31537     31538     31537     31539
     31538     31539     31540     31541     31540     31542     31541     31542
     31543     31544     31543     31545     31544     31545     31546     31547
     31546     31548     31547     31548     31549     31550     31549     31551
     31550     31551     31552     31553     31552     31554     31553     31554
     31555     31556     31555     31557     31556     31557     31558     31559
     31558     31560     31559     31560     31561     31562     31561     31563
     31562     31563     31564     31565     31564     31566     31565     31566
     31567     31568     31567     31569     31568     31569     31570     31571
     31570     31572     31571     31572     31573     31574     31573     31575
     31574     31575     31576     31577     31576     31578     31577     31578
     31579     31580     31579     31581     31580     31581     31582     31583
     31582     31584     31583     31584     31585     31586     31585     31587
     31586     31587     31588     31589     31588     31590     31589     31590
     31591     31592     31591     31593     31592     31593     31594     31595
     31594     31596     31595     31596     31597     31598     31597     31599
     31598     31599     31600     31601     31600     31602     31601     31602
     31603     31604     31603     31605     31604     31605     31606     31607
     31606     31608     31607     31608     31609     31610     31609     31611
     31610     31611     31612     31613     31612     31614     31613     31614
     31615     31616     31615     31617     31616     31617     31618     31619
     31618     31620     31619     31620     31621     31622     31621     31623
     31622     31623     31624     31625     31624     31626     31625     31626
     31627     31628     31627     31629     31628     31629     31630     31631
     31630     31632     31631     31632     31633     31634     31633     31635
     31634     31635     31636     31637     31636     31638     31637     31638
     31639     31640     31639     31641     31640     31641     31642     31643
     31642     31644     31643     31644     31645     31646     31645     31647
     31646     31647     31648     31649     31648     31650     31649     31650
     31651     31652     31651     31653     31652     31653     31654     31655
     31654     31656     31655     31656     31657     31658     31657     31659
     31658     31659     31660     31661     31660     31662     31661     31662
     31663     31664     31663     31665     31664     31665     31666     31667
     31666     31668     31667     31668     31669     31670     31669     31671
     31670     31671     31672     31673     31672     31674     31673     31674
     31675     31676     31675     31677     31676     31677     31678     31679
     31678     31680     31679     31680     31681     31682     31681     31683
     31682     31683     31684     31685     31684     31686     31685     31686
     31687     31688     31687     31689     31688     31689     31690     31691
     31690     31692     31691     31692     31693     31694     31693     31695
     31694     31695     31696     31697     31696     31698     31697     31698
     31699     31700     31699     31701     31700     31701     31702     31703
     31702     31704     31703     31704     31705     31706     31705     31707
     31706     31707     31708     31709     31708     31710     31709     31710
     31711     31712     31711     31713     31712     31713     31714     31715
     31714     31716     31715     31716     31717     31718     31717     31719
     31718     31719     31720     31721     31720     31722     31721     31722
     31723     31724     31723     31725     31724     31725     31726     31727
     31726     31728     31727     31728     31729     31730     31729     31731
     31730     31731     31732     31733     31732     31734     31733     31734
     31735     31736     31735     31737     31736     31737     31738     31739
     31738     31740     31739     31740     31741     31742     31741     31743
     31742     31743     31744     31745     31744     31746     31745     31746
     31747     31748     31747     31749     31748     31749     31750     31751
     31750     31752     31751     31752     31753     31754     31753     31755
     31754     31755     31756     31757     31756     31758     31757     31758
     31759     31760     31759     31761     31760     31761     31762     31763
     31762     31764     31763     31764     31765     31766     31765     31767
     31766     31767     31768     31769     31768     31770     31769     31770
     31771     31772     31771     31773     31772     31773     31774     31775
     31774     31776     31775     31776     31777     31778     31777     31779
     31778     31779     31780     31781     31780     31782     31781     31782
     31783     31784     31783     31785     31784     31785     31786     31787
     31786     31788     31787     31788     31789     31790     31789     31791
     31790     31791     31792     31793     31792     31794     31793     31794
     31795     31796     31795     31797     31796     31797     31798     31799
     31798     31800     31799     31800     31801     31802     31801     31803
     31802     31803     31804     31805     31804     31806     31805     31806
     31807     31808     31807     31809     31808     31809     31810     31811
     31810     31812     31811     31812     31813     31814     31813     31815
     31814     31815     31816     31817     31816     31818     31817     31818
     31819     31820     31819     31821     31820     31821     31822     31823
     31822     31824     31823     31824     31825     31826     31825     31827
     31826     31827     31828     31829     31828     31830     31829     31830
     31831     31832     31831     31833     31832     31833     31834     31835
     31834     31836     31835     31836     31837     31838     31837     31839
     31838     31839     31840     31841     31840     31842     31841     31842
     31843     31844     31843     31845     31844     31845     31846     31847
     31846     31848     31847     31848     31849     31850     31849     31851
     31850     31851     31852     31853     31852     31854     31853     31854
     31855     31856     31855     31857     31856     31857     31858     31859
     31858     31860     31859     31860     31861     31862     31861     31863
     31862     31863     31864     31865     31864     31866     31865     31866
     31867     31868     31867     31869     31868     31869     31870     31871
     31870     31872     31871     31872     31873     31874     31873     31875
     31874     31875     31876     31877     31876     31878     31877     31878
     31879     31880     31879     31881     31880     31881     31882     31883
     31882     31884     31883     31884     31885     31886     31885     31887
     31886     31887     31888     31889     31888     31890     31889     31890
     31891     31892     31891     31893     31892     31893     31894     31895
     31894     31896     31895     31896     31897     31898     31897     31899
     31898     31899     31900     31901     31900     31902     31901     31902
     31903     31904     31903     31905     31904     31905     31906     31907
     31906     31908     31907     31908     31909     31910     31909     31911
     31910     31911     31912     31913     31912     31914     31913     31914
     31915     31916     31915     31917     31916     31917     31918     31919
     31918     31920     31919     31920     31921     31922     31921     31923
     31922     31923     31924     31925     31924     31926     31925     31926
     31927     31928     31927     31929     31928     31929     31930     31931
     31930     31932     31931     31932     31933     31934     31933     31935
     31934     31935     31936     31937     31936     31938     31937     31938
     31939     31940     31939     31941     31940     31941     31942     31943
     31942     31944     31943     31944     31945     31946     31945     31947
     31946     31947     31948     31949     31948     31950     31949     31950
     31951     31952     31951     31953     31952     31953     31954     31955
     31954     31956     31955     31956     31957     31958     31957     31959
     31958     31959     31960     31961     31960     31962     31961     31962
     31963     31964     31963     31965     31964     31965     31966     31967
     31966     31968     31967     31968     31969     31970     31969     31971
     31970     31971     31972     31973     31972     31974     31973     31974
     31975     31976     31975     31977     31976     31977     31978     31979
     31978     31980     31979     31980     31981     31982     31981     31983
     31982     31983     31984     31985     31984     31986     31985     31986
     31987     31988     31987     31989     31988     31989     31990     31991
     31990     31992     31991     31992     31993     31994     31993     31995
     31994     31995     31996     31997     31996     31998     31997     31998
     31999     32000     31999     32001     32000     32001     32002     32003
     32002     32004     32003     32004     32005     32006     32005     32007
     32006     32007     32008     32009     32008     32010     32009     32010
     32011     32012     32011     32013     32012     32013     32014     32015
     32014     32016     32015     32016     32017     32018     32017     32019
     32018     32019     32020     32021     32020     32022     32021     32022
     32023     32024     32023     32025     32024     32025     32026     32027
     32026     32028     32027     32028     32029     32030     32029     32031
     32030     32031     32032     32033     32032     32034     32033     32034
     32035     32036     32035     32037     32036     32037     32038     32039
     32038     32040     32039     32040     32041     32042     32041     32043
     32042     32043     32044     32045     32044     32046     32045     32046
     32047     32048     32047     32049     32048     32049     32050     32051
     32050     32052     32051     32052     32053     32054     32053     32055
     32054     32055     32056     32057     32056     32058     32057     32058
     32059     32060     32059     32061     32060     32061     32062     32063
     32062     32064     32063     32064     32065     32066     32065     32067
     32066     32067     32068     32069     32068     32070     32069     32070
     32071     32072     32071     32073     32072     32073     32074     32075
     32074     32076     32075     32076     32077     32078     32077     32079
     32078     32079     32080     32081     32080     32082     32081     32082
     32083     32084     32083     32085     32084     32085     32086     32087
     32086     32088     32087     32088     32089     32090     32089     32091
     32090     32091     32092     32093     32092     32094     32093     32094
     32095     32096     32095     32097     32096     32097     32098     32099
     32098     32100     32099     32100     32101     32102     32101     32103
     32102     32103     32104     32105     32104     32106     32105     32106
     32107     32108     32107     32109     32108     32109     32110     32111
     32110     32112     32111     32112     32113     32114     32113     32115
     32114     32115     32116     32117     32116     32118     32117     32118
     32119     32120     32119     32121     32120     32121     32122     32123
     32122     32124     32123     32124     32125     32126     32125     32127
     32126     32127     32128     32129     32128     32130     32129     32130
     32131     32132     32131     32133     32132     32133     32134     32135
     32134     32136     32135     32136     32137     32138     32137     32139
     32138     32139     32140     32141     32140     32142     32141     32142
     32143     32144     32143     32145     32144     32145     32146     32147
     32146     32148     32147     32148     32149     32150     32149     32151
     32150     32151     32152     32153     32152     32154     32153     32154
     32155     32156     32155     32157     32156     32157     32158     32159
     32158     32160     32159     32160     32161     32162     32161     32163
     32162     32163     32164     32165     32164     32166     32165     32166
     32167     32168     32167     32169     32168     32169     32170     32171
     32170     32172     32171     32172     32173     32174     32173     32175
     32174     32175     32176     32177     32176     32178     32177     32178
     32179     32180     32179     32181     32180     32181     32182     32183
     32182     32184     32183     32184     32185     32186     32185     32187
     32186     32187     32188     32189     32188     32190     32189     32190
     32191     32192     32191     32193     32192     32193     32194     32195
     32194     32196     32195     32196     32197     32198     32197     32199
     32198     32199     32200     32201     32200     32202     32201     32202
     32203     32204     32203     32205     32204     32205     32206     32207
     32206     32208     32207     32208     32209     32210     32209     32211
     32210     32211     32212     32213     32212     32214     32213     32214
     32215     32216     32215     32217     32216     32217     32218     32219
     32218     32220     32219     32220     32221     32222     32221     32223
     32222     32223     32224     32225     32224     32226     32225     32226
     32227     32228     32227     32229     32228     32229     32230     32231
     32230     32232     32231     32232     32233     32234     32233     32235
     32234     32235     32236     32237     32236     32238     32237     32238
     32239     32240     32239     32241     32240     32241     32242     32243
     32242     32244     32243     32244     32245     32246     32245     32247
     32246     32247     32248     32249     32248     32250     32249     32250
     32251     32252     32251     32253     32252     32253     32254     32255
     32254     32256     32255     32256     32257     32258     32257     32259
     32258     32259     32260     32261     32260     32262     32261     32262
     32263     32264     32263     32265     32264     32265     32266     32267
     32266     32268     32267     32268     32269     32270     32269     32271
     32270     32271     32272     32273     32272     32274     32273     32274
     32275     32276     32275     32277     32276     32277     32278     32279
     32278     32280     32279     32280     32281     32282     32281     32283
     32282     32283     32284     32285     32284     32286     32285     32286
     32287     32288     32287     32289     32288     32289     32290     32291
     32290     32292     32291     32292     32293     32294     32293     32295
     32294     32295     32296     32297     32296     32298     32297     32298
     32299     32300     32299     32301     32300     32301     32302     32303
     32302     32304     32303     32304     32305     32306     32305     32307
     32306     32307     32308     32309     32308     32310     32309     32310
     32311     32312     32311     32313     32312     32313     32314     32315
     32314     32316     32315     32316     32317     32318     32317     32319
     32318     32319     32320     32321     32320     32322     32321     32322
     32323     32324     32323     32325     32324     32325     32326     32327
     32326     32328     32327     32328     32329     32330     32329     32331
     32330     32331     32332     32333     32332     32334     32333     32334
     32335     32336     32335     32337     32336     32337     32338     32339
     32338     32340     32339     32340     32341     32342     32341     32343
     32342     32343     32344     32345     32344     32346     32345     32346
     32347     32348     32347     32349     32348     32349     32350     32351
     32350     32352     32351     32352     32353     32354     32353     32355
     32354     32355     32356     32357     32356     32358     32357     32358
     32359     32360     32359     32361     32360     32361     32362     32363
     32362     32364     32363     32364     32365     32366     32365     32367
     32366     32367     32368     32369     32368     32370     32369     32370
     32371     32372     32371     32373     32372     32373     32374     32375
     32374     32376     32375     32376     32377     32378     32377     32379
     32378     32379     32380     32381     32380     32382     32381     32382
     32383     32384     32383     32385     32384     32385     32386     32387
     32386     32388     32387     32388     32389     32390     32389     32391
     32390     32391     32392     32393     32392     32394     32393     32394
     32395     32396     32395     32397     32396     32397     32398     32399
     32398     32400     32399     32400     32401     32402     32401     32403
     32402     32403     32404     32405     32404     32406     32405     32406
     32407     32408     32407     32409     32408     32409     32410     32411
     32410     32412     32411     32412     32413     32414     32413     32415
     32414     32415     32416     32417     32416     32418     32417     32418
     32419     32420     32419     32421     32420     32421     32422     32423
     32422     32424     32423     32424     32425     32426     32425     32427
     32426     32427     32428     32429     32428     32430     32429     32430
     32431     32432     32431     32433     32432     32433     32434     32435
     32434     32436     32435     32436     32437     32438     32437     32439
     32438     32439     32440     32441     32440     32442     32441     32442
     32443     32444     32443     32445     32444     32445     32446     32447
     32446     32448     32447     32448     32449     32450     32449     32451
     32450     32451     32452     32453     32452     32454     32453     32454
     32455     32456     32455     32457     32456     32457     32458     32459
     32458     32460     32459     32460     32461     32462     32461     32463
     32462     32463     32464     32465     32464     32466     32465     32466
     32467     32468     32467     32469     32468     32469     32470     32471
     32470     32472     32471     32472     32473     32474     32473     32475
     32474     32475     32476     32477     32476     32478     32477     32478
     32479     32480     32479     32481     32480     32481     32482     32483
     32482     32484     32483     32484     32485     32486     32485     32487
     32486     32487     32488     32489     32488     32490     32489     32490
     32491     32492     32491     32493     32492     32493     32494     32495
     32494     32496     32495     32496     32497     32498     32497     32499
     32498     32499     32500     32501     32500     32502     32501     32502
     32503     32504     32503     32505     32504     32505     32506     32507
     32506     32508     32507     32508     32509     32510     32509     32511
     32510     32511     32512     32513     32512     32514     32513     32514
     32515     32516     32515     32517     32516     32517     32518     32519
     32518     32520     32519     32520     32521     32522     32521     32523
     32522     32523     32524     32525     32524     32526     32525     32526
     32527     32528     32527     32529     32528     32529     32530     32531
     32530     32532     32531     32532     32533     32534     32533     32535
     32534     32535     32536     32537     32536     32538     32537     32538
     32539     32540     32539     32541     32540     32541     32542     32543
     32542     32544     32543     32544     32545     32546     32545     32547
     32546     32547     32548     32549     32548     32550     32549     32550
     32551     32552     32551     32553     32552     32553     32554     32555
     32554     32556     32555     32556     32557     32558     32557     32559
     32558     32559     32560     32561     32560     32562     32561     32562
     32563     32564     32563     32565     32564     32565     32566     32567
     32566     32568     32567     32568     32569     32570     32569     32571
     32570     32571     32572     32573     32572     32574     32573     32574
     32575     32576     32575     32577     32576     32577     32578     32579
     32578     32580     32579     32580     32581     32582     32581     32583
     32582     32583     32584     32585     32584     32586     32585     32586
     32587     32588     32587     32589     32588     32589     32590     32591
     32590     32592     32591     32592     32593     32594     32593     32595
     32594     32595     32596     32597     32596     32598     32597     32598
     32599     32600     32599     32601     32600     32601     32602     32603
     32602     32604     32603     32604     32605     32606     32605     32607
     32606     32607     32608     32609     32608     32610     32609     32610
     32611     32612     32611     32613     32612     32613     32614     32615
     32614     32616     32615     32616     32617     32618     32617     32619
     32618     32619     32620     32621     32620     32622     32621     32622
     32623     32624     32623     32625     32624     32625     32626     32627
     32626     32628     32627     32628     32629     32630     32629     32631
     32630     32631     32632     32633     32632     32634     32633     32634
     32635     32636     32635     32637     32636     32637     32638     32639
     32638     32640     32639     32640     32641     32642     32641     32643
     32642     32643     32644     32645     32644     32646     32645     32646
     32647     32648     32647     32649     32648     32649     32650     32651
     32650     32652     32651     32652     32653     32654     32653     32655
     32654     32655     32656     32657     32656     32658     32657     32658
     32659     32660     32659     32661     32660     32661     32662     32663
     32662     32664     32663     32664     32665     32666     32665     32667
     32666     32667     32668     32669     32668     32670     32669     32670
     32671     32672     32671     32673     32672     32673     32674     32675
     32674     32676     32675     32676     32677     32678     32677     32679
     32678     32679     32680     32681     32680     32682     32681     32682
     32683     32684     32683     32685     32684     32685     32686     32687
     32686     32688     32687     32688     32689     32690     32689     32691
     32690     32691     32692     32693     32692     32694     32693     32694
     32695     32696     32695     32697     32696     32697     32698     32699
     32698     32700     32699     32700     32701     32702     32701     32703
     32702     32703     32704     32705     32704     32706     32705     32706
     32707     32708     32707     32709     32708     32709     32710     32711
     32710     32712     32711     32712     32713     32714     32713     32715
     32714     32715     32716     32717     32716     32718     32717     32718
     32719     32720     32719     32721     32720     32721     32722     32723
     32722     32724     32723     32724     32725     32726     32725     32727
     32726     32727     32728     32729     32728     32730     32729     32730
     32731     32732     32731     32733     32732     32733     32734     32735
     32734     32736     32735     32736     32737     32738     32737     32739
     32738     32739     32740     32741     32740     32742     32741     32742
     32743     32744     32743     32745     32744     32745     32746     32747
     32746     32748     32747     32748     32749     32750     32749     32751
     32750     32751     32752     32753     32752     32754     32753     32754
     32755     32756     32755     32757     32756     32757     32758     32759
     32758     32760     32759     32760     32761     32762     32761     32763
     32762     32763     32764     32765     32764     32766     32765     32766
     32767     32768     32767     32769     32768     32769     32770     32771
     32770     32772     32771     32772     32773     32774     32773     32775
     32774     32775     32776     32777     32776     32778     32777     32778
     32779     32780     32779     32781     32780     32781     32782     32783
     32782     32784     32783     32784     32785     32786     32785     32787
     32786     32787     32788     32789     32788     32790     32789     32790
     32791     32792     32791     32793     32792     32793     32794     32795
     32794     32796     32795     32796     32797     32798     32797     32799
     32798     32799     32800     32801     32800     32802     32801     32802
     32803     32804     32803     32805     32804     32805     32806     32807
     32806     32808     32807     32808     32809     32810     32809     32811
     32810     32811     32812     32813     32812     32814     32813     32814
     32815     32816     32815     32817     32816     32817     32818     32819
     32818     32820     32819     32820     32821     32822     32821     32823
     32822     32823     32824     32825     32824     32826     32825     32826
     32827     32828     32827     32829     32828     32829     32830     32831
     32830     32832     32831     32832     32833     32834     32833     32835
     32834     32835     32836     32837     32836     32838     32837     32838
     32839     32840     32839     32841     32840     32841     32842     32843
     32842     32844     32843     32844     32845     32846     32845     32847
     32846     32847     32848     32849     32848     32850     32849     32850
     32851     32852     32851     32853     32852     32853     32854     32855
     32854     32856     32855     32856     32857     32858     32857     32859
     32858     32859     32860     32861     32860     32862     32861     32862
     32863     32864     32863     32865     32864     32865     32866     32867
     32866     32868     32867     32868     32869     32870     32869     32871
     32870     32871     32872     32873     32872     32874     32873     32874
     32875     32876     32875     32877     32876     32877     32878     32879
     32878     32880     32879     32880     32881     32882     32881     32883
     32882     32883     32884     32885     32884     32886     32885     32886
     32887     32888     32887     32889     32888     32889     32890     32891
     32890     32892     32891     32892     32893     32894     32893     32895
     32894     32895     32896     32897     32896     32898     32897     32898
     32899     32900     32899     32901     32900     32901     32902     32903
     32902     32904     32903     32904     32905     32906     32905     32907
     32906     32907     32908     32909     32908     32910     32909     32910
     32911     32912     32911     32913     32912     32913     32914     32915
     32914     32916     32915     32916     32917     32918     32917     32919
     32918     32919     32920     32921     32920     32922     32921     32922
     32923     32924     32923     32925     32924     32925     32926     32927
     32926     32928     32927     32928     32929     32930     32929     32931
     32930     32931     32932     32933     32932     32934     32933     32934
     32935     32936     32935     32937     32936     32937     32938     32939
     32938     32940     32939     32940     32941     32942     32941     32943
     32942     32943     32944     32945     32944     32946     32945     32946
     32947     32948     32947     32949     32948     32949     32950     32951
     32950     32952     32951     32952     32953     32954     32953     32955
     32954     32955     32956     32957     32956     32958     32957     32958
     32959     32960     32959     32961     32960     32961     32962     32963
     32962     32964     32963     32964     32965     32966     32965     32967
     32966     32967     32968     32969     32968     32970     32969     32970
     32971     32972     32971     32973     32972     32973     32974     32975
     32974     32976     32975     32976     32977     32978     32977     32979
     32978     32979     32980     32981     32980     32982     32981     32982
     32983     32984     32983     32985     32984     32985     32986     32987
     32986     32988     32987     32988     32989     32990     32989     32991
     32990     32991     32992     32993     32992     32994     32993     32994
     32995     32996     32995     32997     32996     32997     32998     32999
     32998     33000     32999     33000     33001     33002     33001     33003
     33002     33003     33004     33005     33004     33006     33005     33006
     33007     33008     33007     33009     33008     33009     33010     33011
     33010     33012     33011     33012     33013     33014     33013     33015
     33014     33015     33016     33017     33016     33018     33017     33018
     33019     33020     33019     33021     33020     33021     33022     33023
     33022     33024     33023     33024     33025     33026     33025     33027
     33026     33027     33028     33029     33028     33030     33029     33030
     33031     33032     33031     33033     33032     33033     33034     33035
     33034     33036     33035     33036     33037     33038     33037     33039
     33038     33039     33040     33041     33040     33042     33041     33042
     33043     33044     33043     33045     33044     33045     33046     33047
     33046     33048     33047     33048     33049     33050     33049     33051
     33050     33051     33052     33053     33052     33054     33053     33054
     33055     33056     33055     33057     33056     33057     33058     33059
     33058     33060     33059     33060     33061     33062     33061     33063
     33062     33063     33064     33065     33064     33066     33065     33066
     33067     33068     33067     33069     33068     33069     33070     33071
     33070     33072     33071     33072     33073     33074     33073     33075
     33074     33075     33076     33077     33076     33078     33077     33078
     33079     33080     33079     33081     33080     33081     33082     33083
     33082     33084     33083     33084     33085     33086     33085     33087
     33086     33087     33088     33089     33088     33090     33089     33090
     33091     33092     33091     33093     33092     33093     33094     33095
     33094     33096     33095     33096     33097     33098     33097     33099
     33098     33099     33100     33101     33100     33102     33101     33102
     33103     33104     33103     33105     33104     33105     33106     33107
     33106     33108     33107     33108     33109     33110     33109     33111
     33110     33111     33112     33113     33112     33114     33113     33114
     33115     33116     33115     33117     33116     33117     33118     33119
     33118     33120     33119     33120     33121     33122     33121     33123
     33122     33123     33124     33125     33124     33126     33125     33126
     33127     33128     33127     33129     33128     33129     33130     33131
     33130     33132     33131     33132     33133     33134     33133     33135
     33134     33135     33136     33137     33136     33138     33137     33138
     33139     33140     33139     33141     33140     33141     33142     33143
     33142     33144     33143     33144     33145     33146     33145     33147
     33146     33147     33148     33149     33148     33150     33149     33150
     33151     33152     33151     33153     33152     33153     33154     33155
     33154     33156     33155     33156     33157     33158     33157     33159
     33158     33159     33160     33161     33160     33162     33161     33162
     33163     33164     33163     33165     33164     33165     33166     33167
     33166     33168     33167     33168     33169     33170     33169     33171
     33170     33171     33172     33173     33172     33174     33173     33174
     33175     33176     33175     33177     33176     33177     33178     33179
     33178     33180     33179     33180     33181     33182     33181     33183
     33182     33183     33184     33185     33184     33186     33185     33186
     33187     33188     33187     33189     33188     33189     33190     33191
     33190     33192     33191     33192     33193     33194     33193     33195
     33194     33195     33196     33197     33196     33198     33197     33198
     33199     33200     33199     33201     33200     33201     33202     33203
     33202     33204     33203     33204     33205     33206     33205     33207
     33206     33207     33208     33209     33208     33210     33209     33210
     33211     33212     33211     33213     33212     33213     33214     33215
     33214     33216     33215     33216     33217     33218     33217     33219
     33218     33219     33220     33221     33220     33222     33221     33222
     33223     33224     33223     33225     33224     33225     33226     33227
     33226     33228     33227     33228     33229     33230     33229     33231
     33230     33231     33232     33233     33232     33234     33233     33234
     33235     33236     33235     33237     33236     33237     33238     33239
     33238     33240     33239     33240     33241     33242     33241     33243
     33242     33243     33244     33245     33244     33246     33245     33246
     33247     33248     33247     33249     33248     33249     33250     33251
     33250     33252     33251     33252     33253     33254     33253     33255
     33254     33255     33256     33257     33256     33258     33257     33258
     33259     33260     33259     33261     33260     33261     33262     33263
     33262     33264     33263     33264     33265     33266     33265     33267
     33266     33267     33268     33269     33268     33270     33269     33270
     33271     33272     33271     33273     33272     33273     33274     33275
     33274     33276     33275     33276     33277     33278     33277     33279
     33278     33279     33280     33281     33280     33282     33281     33282
     33283     33284     33283     33285     33284     33285     33286     33287
     33286     33288     33287     33288     33289     33290     33289     33291
     33290     33291     33292     33293     33292     33294     33293     33294
     33295     33296     33295     33297     33296     33297     33298     33299
     33298     33300     33299     33300     33301     33302     33301     33303
     33302     33303     33304     33305     33304     33306     33305     33306
     33307     33308     33307     33309     33308     33309     33310     33311
     33310     33312     33311     33312     33313     33314     33313     33315
     33314     33315     33316     33317     33316     33318     33317     33318
     33319     33320     33319     33321     33320     33321     33322     33323
     33322     33324     33323     33324     33325     33326     33325     33327
     33326     33327     33328     33329     33328     33330     33329     33330
     33331     33332     33331     33333     33332     33333     33334     33335
     33334     33336     33335     33336     33337     33338     33337     33339
     33338     33339     33340     33341     33340     33342     33341     33342
     33343     33344     33343     33345     33344     33345     33346     33347
     33346     33348     33347     33348     33349     33350     33349     33351
     33350     33351     33352     33353     33352     33354     33353     33354
     33355     33356     33355     33357     33356     33357     33358     33359
     33358     33360     33359     33360     33361     33362     33361     33363
     33362     33363     33364     33365     33364     33366     33365     33366
     33367     33368     33367     33369     33368     33369     33370     33371
     33370     33372     33371     33372     33373     33374     33373     33375
     33374     33375     33376     33377     33376     33378     33377     33378
     33379     33380     33379     33381     33380     33381     33382     33383
     33382     33384     33383     33384     33385     33386     33385     33387
     33386     33387     33388     33389     33388     33390     33389     33390
     33391     33392     33391     33393     33392     33393     33394     33395
     33394     33396     33395     33396     33397     33398     33397     33399
     33398     33399     33400     33401     33400     33402     33401     33402
     33403     33404     33403     33405     33404     33405     33406     33407
     33406     33408     33407     33408     33409     33410     33409     33411
     33410     33411     33412     33413     33412     33414     33413     33414
     33415     33416     33415     33417     33416     33417     33418     33419
     33418     33420     33419     33420     33421     33422     33421     33423
     33422     33423     33424     33425     33424     33426     33425     33426
     33427     33428     33427     33429     33428     33429     33430     33431
     33430     33432     33431     33432     33433     33434     33433     33435
     33434     33435     33436     33437     33436     33438     33437     33438
     33439     33440     33439     33441     33440     33441     33442     33443
     33442     33444     33443     33444     33445     33446     33445     33447
     33446     33447     33448     33449     33448     33450     33449     33450
     33451     33452     33451     33453     33452     33453     33454     33455
     33454     33456     33455     33456     33457     33458     33457     33459
     33458     33459     33460     33461     33460     33462     33461     33462
     33463     33464     33463     33465     33464     33465     33466     33467
     33466     33468     33467     33468     33469     33470     33469     33471
     33470     33471     33472     33473     33472     33474     33473     33474
     33475     33476     33475     33477     33476     33477     33478     33479
     33478     33480     33479     33480     33481     33482     33481     33483
     33482     33483     33484     33485     33484     33486     33485     33486
     33487     33488     33487     33489     33488     33489     33490     33491
     33490     33492     33491     33492     33493     33494     33493     33495
     33494     33495     33496     33497     33496     33498     33497     33498
     33499     33500     33499     33501     33500     33501     33502     33503
     33502     33504     33503     33504     33505     33506     33505     33507
     33506     33507     33508     33509     33508     33510     33509     33510
     33511     33512     33511     33513     33512     33513     33514     33515
     33514     33516     33515     33516     33517     33518     33517     33519
     33518     33519     33520     33521     33520     33522     33521     33522
     33523     33524     33523     33525     33524     33525     33526     33527
     33526     33528     33527     33528     33529     33530     33529     33531
     33530     33531     33532     33533     33532     33534     33533     33534
     33535     33536     33535     33537     33536     33537     33538     33539
     33538     33540     33539     33540     33541     33542     33541     33543
     33542     33543     33544     33545     33544     33546     33545     33546
     33547     33548     33547     33549     33548     33549     33550     33551
     33550     33552     33551     33552     33553     33554     33553     33555
     33554     33555     33556     33557     33556     33558     33557     33558
     33559     33560     33559     33561     33560     33561     33562     33563
     33562     33564     33563     33564     33565     33566     33565     33567
     33566     33567     33568     33569     33568     33570     33569     33570
     33571     33572     33571     33573     33572     33573     33574     33575
     33574     33576     33575     33576     33577     33578     33577     33579
     33578     33579     33580     33581     33580     33582     33581     33582
     33583     33584     33583     33585     33584     33585     33586     33587
     33586     33588     33587     33588     33589     33590     33589     33591
     33590     33591     33592     33593     33592     33594     33593     33594
     33595     33596     33595     33597     33596     33597     33598     33599
     33598     33600     33599     33600     33601     33602     33601     33603
     33602     33603     33604     33605     33604     33606     33605     33606
     33607     33608     33607     33609     33608     33609     33610     33611
     33610     33612     33611     33612     33613     33614     33613     33615
     33614     33615     33616     33617     33616     33618     33617     33618
     33619     33620     33619     33621     33620     33621     33622     33623
     33622     33624     33623     33624     33625     33626     33625     33627
     33626     33627     33628     33629     33628     33630     33629     33630
     33631     33632     33631     33633     33632     33633     33634     33635
     33634     33636     33635     33636     33637     33638     33637     33639
     33638     33639     33640     33641     33640     33642     33641     33642
     33643     33644     33643     33645     33644     33645     33646     33647
     33646     33648     33647     33648     33649     33650     33649     33651
     33650     33651     33652     33653     33652     33654     33653     33654
     33655     33656     33655     33657     33656     33657     33658     33659
     33658     33660     33659     33660     33661     33662     33661     33663
     33662     33663     33664     33665     33664     33666     33665     33666
     33667     33668     33667     33669     33668     33669     33670     33671
     33670     33672     33671     33672     33673     33674     33673     33675
     33674     33675     33676     33677     33676     33678     33677     33678
     33679     33680     33679     33681     33680     33681     33682     33683
     33682     33684     33683     33684     33685     33686     33685     33687
     33686     33687     33688     33689     33688     33690     33689     33690
     33691     33692     33691     33693     33692     33693     33694     33695
     33694     33696     33695     33696     33697     33698     33697     33699
     33698     33699     33700     33701     33700     33702     33701     33702
     33703     33704     33703     33705     33704     33705     33706     33707
     33706     33708     33707     33708     33709     33710     33709     33711
     33710     33711     33712     33713     33712     33714     33713     33714
     33715     33716     33715     33717     33716     33717     33718     33719
     33718     33720     33719     33720     33721     33722     33721     33723
     33722     33723     33724     33725     33724     33726     33725     33726
     33727     33728     33727     33729     33728     33729     33730     33731
     33730     33732     33731     33732     33733     33734     33733     33735
     33734     33735     33736     33737     33736     33738     33737     33738
     33739     33740     33739     33741     33740     33741     33742     33743
     33742     33744     33743     33744     33745     33746     33745     33747
     33746     33747     33748     33749     33748     33750     33749     33750
     33751     33752     33751     33753     33752     33753     33754     33755
     33754     33756     33755     33756     33757     33758     33757     33759
     33758     33759     33760     33761     33760     33762     33761     33762
     33763     33764     33763     33765     33764     33765     33766     33767
     33766     33768     33767     33768     33769     33770     33769     33771
     33770     33771     33772     33773     33772     33774     33773     33774
     33775     33776     33775     33777     33776     33777     33778     33779
     33778     33780     33779     33780     33781     33782     33781     33783
     33782     33783     33784     33785     33784     33786     33785     33786
     33787     33788     33787     33789     33788     33789     33790     33791
     33790     33792     33791     33792     33793     33794     33793     33795
     33794     33795     33796     33797     33796     33798     33797     33798
     33799     33800     33799     33801     33800     33801     33802     33803
     33802     33804     33803     33804     33805     33806     33805     33807
     33806     33807     33808     33809     33808     33810     33809     33810
     33811     33812     33811     33813     33812     33813     33814     33815
     33814     33816     33815     33816     33817     33818     33817     33819
     33818     33819     33820     33821     33820     33822     33821     33822
     33823     33824     33823     33825     33824     33825     33826     33827
     33826     33828     33827     33828     33829     33830     33829     33831
     33830     33831     33832     33833     33832     33834     33833     33834
     33835     33836     33835     33837     33836     33837     33838     33839
     33838     33840     33839     33840     33841     33842     33841     33843
     33842     33843     33844     33845     33844     33846     33845     33846
     33847     33848     33847     33849     33848     33849     33850     33851
     33850     33852     33851     33852     33853     33854     33853     33855
     33854     33855     33856     33857     33856     33858     33857     33858
     33859     33860     33859     33861     33860     33861     33862     33863
     33862     33864     33863     33864     33865     33866     33865     33867
     33866     33867     33868     33869     33868     33870     33869     33870
     33871     33872     33871     33873     33872     33873     33874     33875
     33874     33876     33875     33876     33877     33878     33877     33879
     33878     33879     33880     33881     33880     33882     33881     33882
     33883     33884     33883     33885     33884     33885     33886     33887
     33886     33888     33887     33888     33889     33890     33889     33891
     33890     33891     33892     33893     33892     33894     33893     33894
     33895     33896     33895     33897     33896     33897     33898     33899
     33898     33900     33899     33900     33901     33902     33901     33903
     33902     33903     33904     33905     33904     33906     33905     33906
     33907     33908     33907     33909     33908     33909     33910     33911
     33910     33912     33911     33912     33913     33914     33913     33915
     33914     33915     33916     33917     33916     33918     33917     33918
     33919     33920     33919     33921     33920     33921     33922     33923
     33922     33924     33923     33924     33925     33926     33925     33927
     33926     33927     33928     33929     33928     33930     33929     33930
     33931     33932     33931     33933     33932     33933     33934     33935
     33934     33936     33935     33936     33937     33938     33937     33939
     33938     33939     33940     33941     33940     33942     33941     33942
     33943     33944     33943     33945     33944     33945     33946     33947
     33946     33948     33947     33948     33949     33950     33949     33951
     33950     33951     33952     33953     33952     33954     33953     33954
     33955     33956     33955     33957     33956     33957     33958     33959
     33958     33960     33959     33960     33961     33962     33961     33963
     33962     33963     33964     33965     33964     33966     33965     33966
     33967     33968     33967     33969     33968     33969     33970     33971
     33970     33972     33971     33972     33973     33974     33973     33975
     33974     33975     33976     33977     33976     33978     33977     33978
     33979     33980     33979     33981     33980     33981     33982     33983
     33982     33984     33983     33984     33985     33986     33985     33987
     33986     33987     33988     33989     33988     33990     33989     33990
     33991     33992     33991     33993     33992     33993     33994     33995
     33994     33996     33995     33996     33997     33998     33997     33999
     33998     33999     34000     34001     34000     34002     34001     34002
     34003     34004     34003     34005     34004     34005     34006     34007
     34006     34008     34007     34008     34009     34010     34009     34011
     34010     34011     34012     34013     34012     34014     34013     34014
     34015     34016     34015     34017     34016     34017     34018     34019
     34018     34020     34019     34020     34021     34022     34021     34023
     34022     34023     34024     34025     34024     34026     34025     34026
     34027     34028     34027     34029     34028     34029     34030     34031
     34030     34032     34031     34032     34033     34034     34033     34035
     34034     34035     34036     34037     34036     34038     34037     34038
     34039     34040     34039     34041     34040     34041     34042     34043
     34042     34044     34043     34044     34045     34046     34045     34047
     34046     34047     34048     34049     34048     34050     34049     34050
     34051     34052     34051     34053     34052     34053     34054     34055
     34054     34056     34055     34056     34057     34058     34057     34059
     34058     34059     34060     34061     34060     34062     34061     34062
     34063     34064     34063     34065     34064     34065     34066     34067
     34066     34068     34067     34068     34069     34070     34069     34071
     34070     34071     34072     34073     34072     34074     34073     34074
     34075     34076     34075     34077     34076     34077     34078     34079
     34078     34080     34079     34080     34081     34082     34081     34083
     34082     34083     34084     34085     34084     34086     34085     34086
     34087     34088     34087     34089     34088     34089     34090     34091
     34090     34092     34091     34092     34093     34094     34093     34095
     34094     34095     34096     34097     34096     34098     34097     34098
     34099     34100     34099     34101     34100     34101     34102     34103
     34102     34104     34103     34104     34105     34106     34105     34107
     34106     34107     34108     34109     34108     34110     34109     34110
     34111     34112     34111     34113     34112     34113     34114     34115
     34114     34116     34115     34116     34117     34118     34117     34119
     34118     34119     34120     34121     34120     34122     34121     34122
     34123     34124     34123     34125     34124     34125     34126     34127
     34126     34128     34127     34128     34129     34130     34129     34131
     34130     34131     34132     34133     34132     34134     34133     34134
     34135     34136     34135     34137     34136     34137     34138     34139
     34138     34140     34139     34140     34141     34142     34141     34143
     34142     34143     34144     34145     34144     34146     34145     34146
     34147     34148     34147     34149     34148     34149     34150     34151
     34150     34152     34151     34152     34153     34154     34153     34155
     34154     34155     34156     34157     34156     34158     34157     34158
     34159     34160     34159     34161     34160     34161     34162     34163
     34162     34164     34163     34164     34165     34166     34165     34167
     34166     34167     34168     34169     34168     34170     34169     34170
     34171     34172     34171     34173     34172     34173     34174     34175
     34174     34176     34175     34176     34177     34178     34177     34179
     34178     34179     34180     34181     34180     34182     34181     34182
     34183     34184     34183     34185     34184     34185     34186     34187
     34186     34188     34187     34188     34189     34190     34189     34191
     34190     34191     34192     34193     34192     34194     34193     34194
     34195     34196     34195     34197     34196     34197     34198     34199
     34198     34200     34199     34200     34201     34202     34201     34203
     34202     34203     34204     34205     34204     34206     34205     34206
     34207     34208     34207     34209     34208     34209     34210     34211
     34210     34212     34211     34212     34213     34214     34213     34215
     34214     34215     34216     34217     34216     34218     34217     34218
     34219     34220     34219     34221     34220     34221     34222     34223
     34222     34224     34223     34224     34225     34226     34225     34227
     34226     34227     34228     34229     34228     34230     34229     34230
     34231     34232     34231     34233     34232     34233     34234     34235
     34234     34236     34235     34236     34237     34238     34237     34239
     34238     34239     34240     34241     34240     34242     34241     34242
     34243     34244     34243     34245     34244     34245     34246     34247
     34246     34248     34247     34248     34249     34250     34249     34251
     34250     34251     34252     34253     34252     34254     34253     34254
     34255     34256     34255     34257     34256     34257     34258     34259
     34258     34260     34259     34260     34261     34262     34261     34263
     34262     34263     34264     34265     34264     34266     34265     34266
     34267     34268     34267     34269     34268     34269     34270     34271
     34270     34272     34271     34272     34273     34274     34273     34275
     34274     34275     34276     34277     34276     34278     34277     34278
     34279     34280     34279     34281     34280     34281     34282     34283
     34282     34284     34283     34284     34285     34286     34285     34287
     34286     34287     34288     34289     34288     34290     34289     34290
     34291     34292     34291     34293     34292     34293     34294     34295
     34294     34296     34295     34296     34297     34298     34297     34299
     34298     34299     34300     34301     34300     34302     34301     34302
     34303     34304     34303     34305     34304     34305     34306     34307
     34306     34308     34307     34308     34309     34310     34309     34311
     34310     34311     34312     34313     34312     34314     34313     34314
     34315     34316     34315     34317     34316     34317     34318     34319
     34318     34320     34319     34320     34321     34322     34321     34323
     34322     34323     34324     34325     34324     34326     34325     34326
     34327     34328     34327     34329     34328     34329     34330     34331
     34330     34332     34331     34332     34333     34334     34333     34335
     34334     34335     34336     34337     34336     34338     34337     34338
     34339     34340     34339     34341     34340     34341     34342     34343
     34342     34344     34343     34344     34345     34346     34345     34347
     34346     34347     34348     34349     34348     34350     34349     34350
     34351     34352     34351     34353     34352     34353     34354     34355
     34354     34356     34355     34356     34357     34358     34357     34359
     34358     34359     34360     34361     34360     34362     34361     34362
     34363     34364     34363     34365     34364     34365     34366     34367
     34366     34368     34367     34368     34369     34370     34369     34371
     34370     34371     34372     34373     34372     34374     34373     34374
     34375     34376     34375     34377     34376     34377     34378     34379
     34378     34380     34379     34380     34381     34382     34381     34383
     34382     34383     34384     34385     34384     34386     34385     34386
     34387     34388     34387     34389     34388     34389     34390     34391
     34390     34392     34391     34392     34393     34394     34393     34395
     34394     34395     34396     34397     34396     34398     34397     34398
     34399     34400     34399     34401     34400     34401     34402     34403
     34402     34404     34403     34404     34405     34406     34405     34407
     34406     34407     34408     34409     34408     34410     34409     34410
     34411     34412     34411     34413     34412     34413     34414     34415
     34414     34416     34415     34416     34417     34418     34417     34419
     34418     34419     34420     34421     34420     34422     34421     34422
     34423     34424     34423     34425     34424     34425     34426     34427
     34426     34428     34427     34428     34429     34430     34429     34431
     34430     34431     34432     34433     34432     34434     34433     34434
     34435     34436     34435     34437     34436     34437     34438     34439
     34438     34440     34439     34440     34441     34442     34441     34443
     34442     34443     34444     34445     34444     34446     34445     34446
     34447     34448     34447     34449     34448     34449     34450     34451
     34450     34452     34451     34452     34453     34454     34453     34455
     34454     34455     34456     34457     34456     34458     34457     34458
     34459     34460     34459     34461     34460     34461     34462     34463
     34462     34464     34463     34464     34465     34466     34465     34467
     34466     34467     34468     34469     34468     34470     34469     34470
     34471     34472     34471     34473     34472     34473     34474     34475
     34474     34476     34475     34476     34477     34478     34477     34479
     34478     34479     34480     34481     34480     34482     34481     34482
     34483     34484     34483     34485     34484     34485     34486     34487
     34486     34488     34487     34488     34489     34490     34489     34491
     34490     34491     34492     34493     34492     34494     34493     34494
     34495     34496     34495     34497     34496     34497     34498     34499
     34498     34500     34499     34500     34501     34502     34501     34503
     34502     34503     34504     34505     34504     34506     34505     34506
     34507     34508     34507     34509     34508     34509     34510     34511
     34510     34512     34511     34512     34513     34514     34513     34515
     34514     34515     34516     34517     34516     34518     34517     34518
     34519     34520     34519     34521     34520     34521     34522     34523
     34522     34524     34523     34524     34525     34526     34525     34527
     34526     34527     34528     34529     34528     34530     34529     34530
     34531     34532     34531     34533     34532     34533     34534     34535
     34534     34536     34535     34536     34537     34538     34537     34539
     34538     34539     34540     34541     34540     34542     34541     34542
     34543     34544     34543     34545     34544     34545     34546     34547
     34546     34548     34547     34548     34549     34550     34549     34551
     34550     34551     34552     34553     34552     34554     34553     34554
     34555     34556     34555     34557     34556     34557     34558     34559
     34558     34560     34559     34560     34561     34562     34561     34563
     34562     34563     34564     34565     34564     34566     34565     34566
     34567     34568     34567     34569     34568     34569     34570     34571
     34570     34572     34571     34572     34573     34574     34573     34575
     34574     34575     34576     34577     34576     34578     34577     34578
     34579     34580     34579     34581     34580     34581     34582     34583
     34582     34584     34583     34584     34585     34586     34585     34587
     34586     34587     34588     34589     34588     34590     34589     34590
     34591     34592     34591     34593     34592     34593     34594     34595
     34594     34596     34595     34596     34597     34598     34597     34599
     34598     34599     34600     34601     34600     34602     34601     34602
     34603     34604     34603     34605     34604     34605     34606     34607
     34606     34608     34607     34608     34609     34610     34609     34611
     34610     34611     34612     34613     34612     34614     34613     34614
     34615     34616     34615     34617     34616     34617     34618     34619
     34618     34620     34619     34620     34621     34622     34621     34623
     34622     34623     34624     34625     34624     34626     34625     34626
     34627     34628     34627     34629     34628     34629     34630     34631
     34630     34632     34631     34632     34633     34634     34633     34635
     34634     34635     34636     34637     34636     34638     34637     34638
     34639     34640     34639     34641     34640     34641     34642     34643
     34642     34644     34643     34644     34645     34646     34645     34647
     34646     34647     34648     34649     34648     34650     34649     34650
     34651     34652     34651     34653     34652     34653     34654     34655
     34654     34656     34655     34656     34657     34658     34657     34659
     34658     34659     34660     34661     34660     34662     34661     34662
     34663     34664     34663     34665     34664     34665     34666     34667
     34666     34668     34667     34668     34669     34670     34669     34671
     34670     34671     34672     34673     34672     34674     34673     34674
     34675     34676     34675     34677     34676     34677     34678     34679
     34678     34680     34679     34680     34681     34682     34681     34683
     34682     34683     34684     34685     34684     34686     34685     34686
     34687     34688     34687     34689     34688     34689     34690     34691
     34690     34692     34691     34692     34693     34694     34693     34695
     34694     34695     34696     34697     34696     34698     34697     34698
     34699     34700     34699     34701     34700     34701     34702     34703
     34702     34704     34703     34704     34705     34706     34705     34707
     34706     34707     34708     34709     34708     34710     34709     34710
     34711     34712     34711     34713     34712     34713     34714     34715
     34714     34716     34715     34716     34717     34718     34717     34719
     34718     34719     34720     34721     34720     34722     34721     34722
     34723     34724     34723     34725     34724     34725     34726     34727
     34726     34728     34727     34728     34729     34730     34729     34731
     34730     34731     34732     34733     34732     34734     34733     34734
     34735     34736     34735     34737     34736     34737     34738     34739
     34738     34740     34739     34740     34741     34742     34741     34743
     34742     34743     34744     34745     34744     34746     34745     34746
     34747     34748     34747     34749     34748     34749     34750     34751
     34750     34752     34751     34752     34753     34754     34753     34755
     34754     34755     34756     34757     34756     34758     34757     34758
     34759     34760     34759     34761     34760     34761     34762     34763
     34762     34764     34763     34764     34765     34766     34765     34767
     34766     34767     34768     34769     34768     34770     34769     34770
     34771     34772     34771     34773     34772     34773     34774     34775
     34774     34776     34775     34776     34777     34778     34777     34779
     34778     34779     34780     34781     34780     34782     34781     34782
     34783     34784     34783     34785     34784     34785     34786     34787
     34786     34788     34787     34788     34789     34790     34789     34791
     34790     34791     34792     34793     34792     34794     34793     34794
     34795     34796     34795     34797     34796     34797     34798     34799
     34798     34800     34799     34800     34801     34802     34801     34803
     34802     34803     34804     34805     34804     34806     34805     34806
     34807     34808     34807     34809     34808     34809     34810     34811
     34810     34812     34811     34812     34813     34814     34813     34815
     34814     34815     34816     34817     34816     34818     34817     34818
     34819     34820     34819     34821     34820     34821     34822     34823
     34822     34824     34823     34824     34825     34826     34825     34827
     34826     34827     34828     34829     34828     34830     34829     34830
     34831     34832     34831     34833     34832     34833     34834     34835
     34834     34836     34835     34836     34837     34838     34837     34839
     34838     34839     34840     34841     34840     34842     34841     34842
     34843     34844     34843     34845     34844     34845     34846     34847
     34846     34848     34847     34848     34849     34850     34849     34851
     34850     34851     34852     34853     34852     34854     34853     34854
     34855     34856     34855     34857     34856     34857     34858     34859
     34858     34860     34859     34860     34861     34862     34861     34863
     34862     34863     34864     34865     34864     34866     34865     34866
     34867     34868     34867     34869     34868     34869     34870     34871
     34870     34872     34871     34872     34873     34874     34873     34875
     34874     34875     34876     34877     34876     34878     34877     34878
     34879     34880     34879     34881     34880     34881     34882     34883
     34882     34884     34883     34884     34885     34886     34885     34887
     34886     34887     34888     34889     34888     34890     34889     34890
     34891     34892     34891     34893     34892     34893     34894     34895
     34894     34896     34895     34896     34897     34898     34897     34899
     34898     34899     34900     34901     34900     34902     34901     34902
     34903     34904     34903     34905     34904     34905     34906     34907
     34906     34908     34907     34908     34909     34910     34909     34911
     34910     34911     34912     34913     34912     34914     34913     34914
     34915     34916     34915     34917     34916     34917     34918     34919
     34918     34920     34919     34920     34921     34922     34921     34923
     34922     34923     34924     34925     34924     34926     34925     34926
     34927     34928     34927     34929     34928     34929     34930     34931
     34930     34932     34931     34932     34933     34934     34933     34935
     34934     34935     34936     34937     34936     34938     34937     34938
     34939     34940     34939     34941     34940     34941     34942     34943
     34942     34944     34943     34944     34945     34946     34945     34947
     34946     34947     34948     34949     34948     34950     34949     34950
     34951     34952     34951     34953     34952     34953     34954     34955
     34954     34956     34955     34956     34957     34958     34957     34959
     34958     34959     34960     34961     34960     34962     34961     34962
     34963     34964     34963     34965     34964     34965     34966     34967
     34966     34968     34967     34968     34969     34970     34969     34971
     34970     34971     34972     34973     34972     34974     34973     34974
     34975     34976     34975     34977     34976     34977     34978     34979
     34978     34980     34979     34980     34981     34982     34981     34983
     34982     34983     34984     34985     34984     34986     34985     34986
     34987     34988     34987     34989     34988     34989     34990     34991
     34990     34992     34991     34992     34993     34994     34993     34995
     34994     34995     34996     34997     34996     34998     34997     34998
     34999     35000     34999     35001     35000     35001     35002     35003
     35002     35004     35003     35004     35005     35006     35005     35007
     35006     35007     35008     35009     35008     35010     35009     35010
     35011     35012     35011     35013     35012     35013     35014     35015
     35014     35016     35015     35016     35017     35018     35017     35019
     35018     35019     35020     35021     35020     35022     35021     35022
     35023     35024     35023     35025     35024     35025     35026     35027
     35026     35028     35027     35028     35029     35030     35029     35031
     35030     35031     35032     35033     35032     35034     35033     35034
     35035     35036     35035     35037     35036     35037     35038     35039
     35038     35040     35039     35040     35041     35042     35041     35043
     35042     35043     35044     35045     35044     35046     35045     35046
     35047     35048     35047     35049     35048     35049     35050     35051
     35050     35052     35051     35052     35053     35054     35053     35055
     35054     35055     35056     35057     35056     35058     35057     35058
     35059     35060     35059     35061     35060     35061     35062     35063
     35062     35064     35063     35064     35065     35066     35065     35067
     35066     35067     35068     35069     35068     35070     35069     35070
     35071     35072     35071     35073     35072     35073     35074     35075
     35074     35076     35075     35076     35077     35078     35077     35079
     35078     35079     35080     35081     35080     35082     35081     35082
     35083     35084     35083     35085     35084     35085     35086     35087
     35086     35088     35087     35088     35089     35090     35089     35091
     35090     35091     35092     35093     35092     35094     35093     35094
     35095     35096     35095     35097     35096     35097     35098     35099
     35098     35100     35099     35100     35101     35102     35101     35103
     35102     35103     35104     35105     35104     35106     35105     35106
     35107     35108     35107     35109     35108     35109     35110     35111
     35110     35112     35111     35112     35113     35114     35113     35115
     35114     35115     35116     35117     35116     35118     35117     35118
     35119     35120     35119     35121     35120     35121     35122     35123
     35122     35124     35123     35124     35125     35126     35125     35127
     35126     35127     35128     35129     35128     35130     35129     35130
     35131     35132     35131     35133     35132     35133     35134     35135
     35134     35136     35135     35136     35137     35138     35137     35139
     35138     35139     35140     35141     35140     35142     35141     35142
     35143     35144     35143     35145     35144     35145     35146     35147
     35146     35148     35147     35148     35149     35150     35149     35151
     35150     35151     35152     35153     35152     35154     35153     35154
     35155     35156     35155     35157     35156     35157     35158     35159
     35158     35160     35159     35160     35161     35162     35161     35163
     35162     35163     35164     35165     35164     35166     35165     35166
     35167     35168     35167     35169     35168     35169     35170     35171
     35170     35172     35171     35172     35173     35174     35173     35175
     35174     35175     35176     35177     35176     35178     35177     35178
     35179     35180     35179     35181     35180     35181     35182     35183
     35182     35184     35183     35184     35185     35186     35185     35187
     35186     35187     35188     35189     35188     35190     35189     35190
     35191     35192     35191     35193     35192     35193     35194     35195
     35194     35196     35195     35196     35197     35198     35197     35199
     35198     35199     35200     35201     35200     35202     35201     35202
     35203     35204     35203     35205     35204     35205     35206     35207
     35206     35208     35207     35208     35209     35210     35209     35211
     35210     35211     35212     35213     35212     35214     35213     35214
     35215     35216     35215     35217     35216     35217     35218     35219
     35218     35220     35219     35220     35221     35222     35221     35223
     35222     35223     35224     35225     35224     35226     35225     35226
     35227     35228     35227     35229     35228     35229     35230     35231
     35230     35232     35231     35232     35233     35234     35233     35235
     35234     35235     35236     35237     35236     35238     35237     35238
     35239     35240     35239     35241     35240     35241     35242     35243
     35242     35244     35243     35244     35245     35246     35245     35247
     35246     35247     35248     35249     35248     35250     35249     35250
     35251     35252     35251     35253     35252     35253     35254     35255
     35254     35256     35255     35256     35257     35258     35257     35259
     35258     35259     35260     35261     35260     35262     35261     35262
     35263     35264     35263     35265     35264     35265     35266     35267
     35266     35268     35267     35268     35269     35270     35269     35271
     35270     35271     35272     35273     35272     35274     35273     35274
     35275     35276     35275     35277     35276     35277     35278     35279
     35278     35280     35279     35280     35281     35282     35281     35283
     35282     35283     35284     35285     35284     35286     35285     35286
     35287     35288     35287     35289     35288     35289     35290     35291
     35290     35292     35291     35292     35293     35294     35293     35295
     35294     35295     35296     35297     35296     35298     35297     35298
     35299     35300     35299     35301     35300     35301     35302     35303
     35302     35304     35303     35304     35305     35306     35305     35307
     35306     35307     35308     35309     35308     35310     35309     35310
     35311     35312     35311     35313     35312     35313     35314     35315
     35314     35316     35315     35316     35317     35318     35317     35319
     35318     35319     35320     35321     35320     35322     35321     35322
     35323     35324     35323     35325     35324     35325     35326     35327
     35326     35328     35327     35328     35329     35330     35329     35331
     35330     35331     35332     35333     35332     35334     35333     35334
     35335     35336     35335     35337     35336     35337     35338     35339
     35338     35340     35339     35340     35341     35342     35341     35343
     35342     35343     35344     35345     35344     35346     35345     35346
     35347     35348     35347     35349     35348     35349     35350     35351
     35350     35352     35351     35352     35353     35354     35353     35355
     35354     35355     35356     35357     35356     35358     35357     35358
     35359     35360     35359     35361     35360     35361     35362     35363
     35362     35364     35363     35364     35365     35366     35365     35367
     35366     35367     35368     35369     35368     35370     35369     35370
     35371     35372     35371     35373     35372     35373     35374     35375
     35374     35376     35375     35376     35377     35378     35377     35379
     35378     35379     35380     35381     35380     35382     35381     35382
     35383     35384     35383     35385     35384     35385     35386     35387
     35386     35388     35387     35388     35389     35390     35389     35391
     35390     35391     35392     35393     35392     35394     35393     35394
     35395     35396     35395     35397     35396     35397     35398     35399
     35398     35400     35399     35400     35401     35402     35401     35403
     35402     35403     35404     35405     35404     35406     35405     35406
     35407     35408     35407     35409     35408     35409     35410     35411
     35410     35412     35411     35412     35413     35414     35413     35415
     35414     35415     35416     35417     35416     35418     35417     35418
     35419     35420     35419     35421     35420     35421     35422     35423
     35422     35424     35423     35424     35425     35426     35425     35427
     35426     35427     35428     35429     35428     35430     35429     35430
     35431     35432     35431     35433     35432     35433     35434     35435
     35434     35436     35435     35436     35437     35438     35437     35439
     35438     35439     35440     35441     35440     35442     35441     35442
     35443     35444     35443     35445     35444     35445     35446     35447
     35446     35448     35447     35448     35449     35450     35449     35451
     35450     35451     35452     35453     35452     35454     35453     35454
     35455     35456     35455     35457     35456     35457     35458     35459
     35458     35460     35459     35460     35461     35462     35461     35463
     35462     35463     35464     35465     35464     35466     35465     35466
     35467     35468     35467     35469     35468     35469     35470     35471
     35470     35472     35471     35472     35473     35474     35473     35475
     35474     35475     35476     35477     35476     35478     35477     35478
     35479     35480     35479     35481     35480     35481     35482     35483
     35482     35484     35483     35484     35485     35486     35485     35487
     35486     35487     35488     35489     35488     35490     35489     35490
     35491     35492     35491     35493     35492     35493     35494     35495
     35494     35496     35495     35496     35497     35498     35497     35499
     35498     35499     35500     35501     35500     35502     35501     35502
     35503     35504     35503     35505     35504     35505     35506     35507
     35506     35508     35507     35508     35509     35510     35509     35511
     35510     35511     35512     35513     35512     35514     35513     35514
     35515     35516     35515     35517     35516     35517     35518     35519
     35518     35520     35519     35520     35521     35522     35521     35523
     35522     35523     35524     35525     35524     35526     35525     35526
     35527     35528     35527     35529     35528     35529     35530     35531
     35530     35532     35531     35532     35533     35534     35533     35535
     35534     35535     35536     35537     35536     35538     35537     35538
     35539     35540     35539     35541     35540     35541     35542     35543
     35542     35544     35543     35544     35545     35546     35545     35547
     35546     35547     35548     35549     35548     35550     35549     35550
     35551     35552     35551     35553     35552     35553     35554     35555
     35554     35556     35555     35556     35557     35558     35557     35559
     35558     35559     35560     35561     35560     35562     35561     35562
     35563     35564     35563     35565     35564     35565     35566     35567
     35566     35568     35567     35568     35569     35570     35569     35571
     35570     35571     35572     35573     35572     35574     35573     35574
     35575     35576     35575     35577     35576     35577     35578     35579
     35578     35580     35579     35580     35581     35582     35581     35583
     35582     35583     35584     35585     35584     35586     35585     35586
     35587     35588     35587     35589     35588     35589     35590     35591
     35590     35592     35591     35592     35593     35594     35593     35595
     35594     35595     35596     35597     35596     35598     35597     35598
     35599     35600     35599     35601     35600     35601     35602     35603
     35602     35604     35603     35604     35605     35606     35605     35607
     35606     35607     35608     35609     35608     35610     35609     35610
     35611     35612     35611     35613     35612     35613     35614     35615
     35614     35616     35615     35616     35617     35618     35617     35619
     35618     35619     35620     35621     35620     35622     35621     35622
     35623     35624     35623     35625     35624     35625     35626     35627
     35626     35628     35627     35628     35629     35630     35629     35631
     35630     35631     35632     35633     35632     35634     35633     35634
     35635     35636     35635     35637     35636     35637     35638     35639
     35638     35640     35639     35640     35641     35642     35641     35643
     35642     35643     35644     35645     35644     35646     35645     35646
     35647     35648     35647     35649     35648     35649     35650     35651
     35650     35652     35651     35652     35653     35654     35653     35655
     35654     35655     35656     35657     35656     35658     35657     35658
     35659     35660     35659     35661     35660     35661     35662     35663
     35662     35664     35663     35664     35665     35666     35665     35667
     35666     35667     35668     35669     35668     35670     35669     35670
     35671     35672     35671     35673     35672     35673     35674     35675
     35674     35676     35675     35676     35677     35678     35677     35679
     35678     35679     35680     35681     35680     35682     35681     35682
     35683     35684     35683     35685     35684     35685     35686     35687
     35686     35688     35687     35688     35689     35690     35689     35691
     35690     35691     35692     35693     35692     35694     35693     35694
     35695     35696     35695     35697     35696     35697     35698     35699
     35698     35700     35699     35700     35701     35702     35701     35703
     35702     35703     35704     35705     35704     35706     35705     35706
     35707     35708     35707     35709     35708     35709     35710     35711
     35710     35712     35711     35712     35713     35714     35713     35715
     35714     35715     35716     35717     35716     35718     35717     35718
     35719     35720     35719     35721     35720     35721     35722     35723
     35722     35724     35723     35724     35725     35726     35725     35727
     35726     35727     35728     35729     35728     35730     35729     35730
     35731     35732     35731     35733     35732     35733     35734     35735
     35734     35736     35735     35736     35737     35738     35737     35739
     35738     35739     35740     35741     35740     35742     35741     35742
     35743     35744     35743     35745     35744     35745     35746     35747
     35746     35748     35747     35748     35749     35750     35749     35751
     35750     35751     35752     35753     35752     35754     35753     35754
     35755     35756     35755     35757     35756     35757     35758     35759
     35758     35760     35759     35760     35761     35762     35761     35763
     35762     35763     35764     35765     35764     35766     35765     35766
     35767     35768     35767     35769     35768     35769     35770     35771
     35770     35772     35771     35772     35773     35774     35773     35775
     35774     35775     35776     35777     35776     35778     35777     35778
     35779     35780     35779     35781     35780     35781     35782     35783
     35782     35784     35783     35784     35785     35786     35785     35787
     35786     35787     35788     35789     35788     35790     35789     35790
     35791     35792     35791     35793     35792     35793     35794     35795
     35794     35796     35795     35796     35797     35798     35797     35799
     35798     35799     35800     35801     35800     35802     35801     35802
     35803     35804     35803     35805     35804     35805     35806     35807
     35806     35808     35807     35808     35809     35810     35809     35811
     35810     35811     35812     35813     35812     35814     35813     35814
     35815     35816     35815     35817     35816     35817     35818     35819
     35818     35820     35819     35820     35821     35822     35821     35823
     35822     35823     35824     35825     35824     35826     35825     35826
     35827     35828     35827     35829     35828     35829     35830     35831
     35830     35832     35831     35832     35833     35834     35833     35835
     35834     35835     35836     35837     35836     35838     35837     35838
     35839     35840     35839     35841     35840     35841     35842     35843
     35842     35844     35843     35844     35845     35846     35845     35847
     35846     35847     35848     35849     35848     35850     35849     35850
     35851     35852     35851     35853     35852     35853     35854     35855
     35854     35856     35855     35856     35857     35858     35857     35859
     35858     35859     35860     35861     35860     35862     35861     35862
     35863     35864     35863     35865     35864     35865     35866     35867
     35866     35868     35867     35868     35869     35870     35869     35871
     35870     35871     35872     35873     35872     35874     35873     35874
     35875     35876     35875     35877     35876     35877     35878     35879
     35878     35880     35879     35880     35881     35882     35881     35883
     35882     35883     35884     35885     35884     35886     35885     35886
     35887     35888     35887     35889     35888     35889     35890     35891
     35890     35892     35891     35892     35893     35894     35893     35895
     35894     35895     35896     35897     35896     35898     35897     35898
     35899     35900     35899     35901     35900     35901     35902     35903
     35902     35904     35903     35904     35905     35906     35905     35907
     35906     35907     35908     35909     35908     35910     35909     35910
     35911     35912     35911     35913     35912     35913     35914     35915
     35914     35916     35915     35916     35917     35918     35917     35919
     35918     35919     35920     35921     35920     35922     35921     35922
     35923     35924     35923     35925     35924     35925     35926     35927
     35926     35928     35927     35928     35929     35930     35929     35931
     35930     35931     35932     35933     35932     35934     35933     35934
     35935     35936     35935     35937     35936     35937     35938     35939
     35938     35940     35939     35940     35941     35942     35941     35943
     35942     35943     35944     35945     35944     35946     35945     35946
     35947     35948     35947     35949     35948     35949     35950     35951
     35950     35952     35951     35952     35953     35954     35953     35955
     35954     35955     35956     35957     35956     35958     35957     35958
     35959     35960     35959     35961     35960     35961     35962     35963
     35962     35964     35963     35964     35965     35966     35965     35967
     35966     35967     35968     35969     35968     35970     35969     35970
     35971     35972     35971     35973     35972     35973     35974     35975
     35974     35976     35975     35976     35977     35978     35977     35979
     35978     35979     35980     35981     35980     35982     35981     35982
     35983     35984     35983     35985     35984     35985     35986     35987
     35986     35988     35987     35988     35989     35990     35989     35991
     35990     35991     35992     35993     35992     35994     35993     35994
     35995     35996     35995     35997     35996     35997     35998     35999
     35998     36000     35999     36000     36001     36002     36001     36003
     36002     36003     36004     36005     36004     36006     36005     36006
     36007     36008     36007     36009     36008     36009     36010     36011
     36010     36012     36011     36012     36013     36014     36013     36015
     36014     36015     36016     36017     36016     36018     36017     36018
     36019     36020     36019     36021     36020     36021     36022     36023
     36022     36024     36023     36024     36025     36026     36025     36027
     36026     36027     36028     36029     36028     36030     36029     36030
     36031     36032     36031     36033     36032     36033     36034     36035
     36034     36036     36035     36036     36037     36038     36037     36039
     36038     36039     36040     36041     36040     36042     36041     36042
     36043     36044     36043     36045     36044     36045     36046     36047
     36046     36048     36047     36048     36049     36050     36049     36051
     36050     36051     36052     36053     36052     36054     36053     36054
     36055     36056     36055     36057     36056     36057     36058     36059
     36058     36060     36059     36060     36061     36062     36061     36063
     36062     36063     36064     36065     36064     36066     36065     36066
     36067     36068     36067     36069     36068     36069     36070     36071
     36070     36072     36071     36072     36073     36074     36073     36075
     36074     36075     36076     36077     36076     36078     36077     36078
     36079     36080     36079     36081     36080     36081     36082     36083
     36082     36084     36083     36084     36085     36086     36085     36087
     36086     36087     36088     36089     36088     36090     36089     36090
     36091     36092     36091     36093     36092     36093     36094     36095
     36094     36096     36095     36096     36097     36098     36097     36099
     36098     36099     36100     36101     36100     36102     36101     36102
     36103     36104     36103     36105     36104     36105     36106     36107
     36106     36108     36107     36108     36109     36110     36109     36111
     36110     36111     36112     36113     36112     36114     36113     36114
     36115     36116     36115     36117     36116     36117     36118     36119
     36118     36120     36119     36120     36121     36122     36121     36123
     36122     36123     36124     36125     36124     36126     36125     36126
     36127     36128     36127     36129     36128     36129     36130     36131
     36130     36132     36131     36132     36133     36134     36133     36135
     36134     36135     36136     36137     36136     36138     36137     36138
     36139     36140     36139     36141     36140     36141     36142     36143
     36142     36144     36143     36144     36145     36146     36145     36147
     36146     36147     36148     36149     36148     36150     36149     36150
     36151     36152     36151     36153     36152     36153     36154     36155
     36154     36156     36155     36156     36157     36158     36157     36159
     36158     36159     36160     36161     36160     36162     36161     36162
     36163     36164     36163     36165     36164     36165     36166     36167
     36166     36168     36167     36168     36169     36170     36169     36171
     36170     36171     36172     36173     36172     36174     36173     36174
     36175     36176     36175     36177     36176     36177     36178     36179
     36178     36180     36179     36180     36181     36182     36181     36183
     36182     36183     36184     36185     36184     36186     36185     36186
     36187     36188     36187     36189     36188     36189     36190     36191
     36190     36192     36191     36192     36193     36194     36193     36195
     36194     36195     36196     36197     36196     36198     36197     36198
     36199     36200     36199     36201     36200     36201     36202     36203
     36202     36204     36203     36204     36205     36206     36205     36207
     36206     36207     36208     36209     36208     36210     36209     36210
     36211     36212     36211     36213     36212     36213     36214     36215
     36214     36216     36215     36216     36217     36218     36217     36219
     36218     36219     36220     36221     36220     36222     36221     36222
     36223     36224     36223     36225     36224     36225     36226     36227
     36226     36228     36227     36228     36229     36230     36229     36231
     36230     36231     36232     36233     36232     36234     36233     36234
     36235     36236     36235     36237     36236     36237     36238     36239
     36238     36240     36239     36240     36241     36242     36241     36243
     36242     36243     36244     36245     36244     36246     36245     36246
     36247     36248     36247     36249     36248     36249     36250     36251
     36250     36252     36251     36252     36253     36254     36253     36255
     36254     36255     36256     36257     36256     36258     36257     36258
     36259     36260     36259     36261     36260     36261     36262     36263
     36262     36264     36263     36264     36265     36266     36265     36267
     36266     36267     36268     36269     36268     36270     36269     36270
     36271     36272     36271     36273     36272     36273     36274     36275
     36274     36276     36275     36276     36277     36278     36277     36279
     36278     36279     36280     36281     36280     36282     36281     36282
     36283     36284     36283     36285     36284     36285     36286     36287
     36286     36288     36287     36288     36289     36290     36289     36291
     36290     36291     36292     36293     36292     36294     36293     36294
     36295     36296     36295     36297     36296     36297     36298     36299
     36298     36300     36299     36300     36301     36302     36301     36303
     36302     36303     36304     36305     36304     36306     36305     36306
     36307     36308     36307     36309     36308     36309     36310     36311
     36310     36312     36311     36312     36313     36314     36313     36315
     36314     36315     36316     36317     36316     36318     36317     36318
     36319     36320     36319     36321     36320     36321     36322     36323
     36322     36324     36323     36324     36325     36326     36325     36327
     36326     36327     36328     36329     36328     36330     36329     36330
     36331     36332     36331     36333     36332     36333     36334     36335
     36334     36336     36335     36336     36337     36338     36337     36339
     36338     36339     36340     36341     36340     36342     36341     36342
     36343     36344     36343     36345     36344     36345     36346     36347
     36346     36348     36347     36348     36349     36350     36349     36351
     36350     36351     36352     36353     36352     36354     36353     36354
     36355     36356     36355     36357     36356     36357     36358     36359
     36358     36360     36359     36360     36361     36362     36361     36363
     36362     36363     36364     36365     36364     36366     36365     36366
     36367     36368     36367     36369     36368     36369     36370     36371
     36370     36372     36371     36372     36373     36374     36373     36375
     36374     36375     36376     36377     36376     36378     36377     36378
     36379     36380     36379     36381     36380     36381     36382     36383
     36382     36384     36383     36384     36385     36386     36385     36387
     36386     36387     36388     36389     36388     36390     36389     36390
     36391     36392     36391     36393     36392     36393     36394     36395
     36394     36396     36395     36396     36397     36398     36397     36399
     36398     36399     36400     36401     36400     36402     36401     36402
     36403     36404     36403     36405     36404     36405     36406     36407
     36406     36408     36407     36408     36409     36410     36409     36411
     36410     36411     36412     36413     36412     36414     36413     36414
     36415     36416     36415     36417     36416     36417     36418     36419
     36418     36420     36419     36420     36421     36422     36421     36423
     36422     36423     36424     36425     36424     36426     36425     36426
     36427     36428     36427     36429     36428     36429     36430     36431
     36430     36432     36431     36432     36433     36434     36433     36435
     36434     36435     36436     36437     36436     36438     36437     36438
     36439     36440     36439     36441     36440     36441     36442     36443
     36442     36444     36443     36444     36445     36446     36445     36447
     36446     36447     36448     36449     36448     36450     36449     36450
     36451     36452     36451     36453     36452     36453     36454     36455
     36454     36456     36455     36456     36457     36458     36457     36459
     36458     36459     36460     36461     36460     36462     36461     36462
     36463     36464     36463     36465     36464     36465     36466     36467
     36466     36468     36467     36468     36469     36470     36469     36471
     36470     36471     36472     36473     36472     36474     36473     36474
     36475     36476     36475     36477     36476     36477     36478     36479
     36478     36480     36479     36480     36481     36482     36481     36483
     36482     36483     36484     36485     36484     36486     36485     36486
     36487     36488     36487     36489     36488     36489     36490     36491
     36490     36492     36491     36492     36493     36494     36493     36495
     36494     36495     36496     36497     36496     36498     36497     36498
     36499     36500     36499     36501     36500     36501     36502     36503
     36502     36504     36503     36504     36505     36506     36505     36507
     36506     36507     36508     36509     36508     36510     36509     36510
     36511     36512     36511     36513     36512     36513     36514     36515
     36514     36516     36515     36516     36517     36518     36517     36519
     36518     36519     36520     36521     36520     36522     36521     36522
     36523     36524     36523     36525     36524     36525     36526     36527
     36526     36528     36527     36528     36529     36530     36529     36531
     36530     36531     36532     36533     36532     36534     36533     36534
     36535     36536     36535     36537     36536     36537     36538     36539
     36538     36540     36539     36540     36541     36542     36541     36543
     36542     36543     36544     36545     36544     36546     36545     36546
     36547     36548     36547     36549     36548     36549     36550     36551
     36550     36552     36551     36552     36553     36554     36553     36555
     36554     36555     36556     36557     36556     36558     36557     36558
     36559     36560     36559     36561     36560     36561     36562     36563
     36562     36564     36563     36564     36565     36566     36565     36567
     36566     36567     36568     36569     36568     36570     36569     36570
     36571     36572     36571     36573     36572     36573     36574     36575
     36574     36576     36575     36576     36577     36578     36577     36579
     36578     36579     36580     36581     36580     36582     36581     36582
     36583     36584     36583     36585     36584     36585     36586     36587
     36586     36588     36587     36588     36589     36590     36589     36591
     36590     36591     36592     36593     36592     36594     36593     36594
     36595     36596     36595     36597     36596     36597     36598     36599
     36598     36600     36599     36600     36601     36602     36601     36603
     36602     36603     36604     36605     36604     36606     36605     36606
     36607     36608     36607     36609     36608     36609     36610     36611
     36610     36612     36611     36612     36613     36614     36613     36615
     36614     36615     36616     36617     36616     36618     36617     36618
     36619     36620     36619     36621     36620     36621     36622     36623
     36622     36624     36623     36624     36625     36626     36625     36627
     36626     36627     36628     36629     36628     36630     36629     36630
     36631     36632     36631     36633     36632     36633     36634     36635
     36634     36636     36635     36636     36637     36638     36637     36639
     36638     36639     36640     36641     36640     36642     36641     36642
     36643     36644     36643     36645     36644     36645     36646     36647
     36646     36648     36647     36648     36649     36650     36649     36651
     36650     36651     36652     36653     36652     36654     36653     36654
     36655     36656     36655     36657     36656     36657     36658     36659
     36658     36660     36659     36660     36661     36662     36661     36663
     36662     36663     36664     36665     36664     36666     36665     36666
     36667     36668     36667     36669     36668     36669     36670     36671
     36670     36672     36671     36672     36673     36674     36673     36675
     36674     36675     36676     36677     36676     36678     36677     36678
     36679     36680     36679     36681     36680     36681     36682     36683
     36682     36684     36683     36684     36685     36686     36685     36687
     36686     36687     36688     36689     36688     36690     36689     36690
     36691     36692     36691     36693     36692     36693     36694     36695
     36694     36696     36695     36696     36697     36698     36697     36699
     36698     36699     36700     36701     36700     36702     36701     36702
     36703     36704     36703     36705     36704     36705     36706     36707
     36706     36708     36707     36708     36709     36710     36709     36711
     36710     36711     36712     36713     36712     36714     36713     36714
     36715     36716     36715     36717     36716     36717     36718     36719
     36718     36720     36719     36720     36721     36722     36721     36723
     36722     36723     36724     36725     36724     36726     36725     36726
     36727     36728     36727     36729     36728     36729     36730     36731
     36730     36732     36731     36732     36733     36734     36733     36735
     36734     36735     36736     36737     36736     36738     36737     36738
     36739     36740     36739     36741     36740     36741     36742     36743
     36742     36744     36743     36744     36745     36746     36745     36747
     36746     36747     36748     36749     36748     36750     36749     36750
     36751     36752     36751     36753     36752     36753     36754     36755
     36754     36756     36755     36756     36757     36758     36757     36759
     36758     36759     36760     36761     36760     36762     36761     36762
     36763     36764     36763     36765     36764     36765     36766     36767
     36766     36768     36767     36768     36769     36770     36769     36771
     36770     36771     36772     36773     36772     36774     36773     36774
     36775     36776     36775     36777     36776     36777     36778     36779
     36778     36780     36779     36780     36781     36782     36781     36783
     36782     36783     36784     36785     36784     36786     36785     36786
     36787     36788     36787     36789     36788     36789     36790     36791
     36790     36792     36791     36792     36793     36794     36793     36795
     36794     36795     36796     36797     36796     36798     36797     36798
     36799     36800     36799     36801     36800     36801     36802     36803
     36802     36804     36803     36804     36805     36806     36805     36807
     36806     36807     36808     36809     36808     36810     36809     36810
     36811     36812     36811     36813     36812     36813     36814     36815
     36814     36816     36815     36816     36817     36818     36817     36819
     36818     36819     36820     36821     36820     36822     36821     36822
     36823     36824     36823     36825     36824     36825     36826     36827
     36826     36828     36827     36828     36829     36830     36829     36831
     36830     36831     36832     36833     36832     36834     36833     36834
     36835     36836     36835     36837     36836     36837     36838     36839
     36838     36840     36839     36840     36841     36842     36841     36843
     36842     36843     36844     36845     36844     36846     36845     36846
     36847     36848     36847     36849     36848     36849     36850     36851
     36850     36852     36851     36852     36853     36854     36853     36855
     36854     36855     36856     36857     36856     36858     36857     36858
     36859     36860     36859     36861     36860     36861     36862     36863
     36862     36864     36863     36864     36865     36866     36865     36867
     36866     36867     36868     36869     36868     36870     36869     36870
     36871     36872     36871     36873     36872     36873     36874     36875
     36874     36876     36875     36876     36877     36878     36877     36879
     36878     36879     36880     36881     36880     36882     36881     36882
     36883     36884     36883     36885     36884     36885     36886     36887
     36886     36888     36887     36888     36889     36890     36889     36891
     36890     36891     36892     36893     36892     36894     36893     36894
     36895     36896     36895     36897     36896     36897     36898     36899
     36898     36900     36899     36900     36901     36902     36901     36903
     36902     36903     36904     36905     36904     36906     36905     36906
     36907     36908     36907     36909     36908     36909     36910     36911
     36910     36912     36911     36912     36913     36914     36913     36915
     36914     36915     36916     36917     36916     36918     36917     36918
     36919     36920     36919     36921     36920     36921     36922     36923
     36922     36924     36923     36924     36925     36926     36925     36927
     36926     36927     36928     36929     36928     36930     36929     36930
     36931     36932     36931     36933     36932     36933     36934     36935
     36934     36936     36935     36936     36937     36938     36937     36939
     36938     36939     36940     36941     36940     36942     36941     36942
     36943     36944     36943     36945     36944     36945     36946     36947
     36946     36948     36947     36948     36949     36950     36949     36951
     36950     36951     36952     36953     36952     36954     36953     36954
     36955     36956     36955     36957     36956     36957     36958     36959
     36958     36960     36959     36960     36961     36962     36961     36963
     36962     36963     36964     36965     36964     36966     36965     36966
     36967     36968     36967     36969     36968     36969     36970     36971
     36970     36972     36971     36972     36973     36974     36973     36975
     36974     36975     36976     36977     36976     36978     36977     36978
     36979     36980     36979     36981     36980     36981     36982     36983
     36982     36984     36983     36984     36985     36986     36985     36987
     36986     36987     36988     36989     36988     36990     36989     36990
     36991     36992     36991     36993     36992     36993     36994     36995
     36994     36996     36995     36996     36997     36998     36997     36999
     36998     36999     37000     37001     37000     37002     37001     37002
     37003     37004     37003     37005     37004     37005     37006     37007
     37006     37008     37007     37008     37009     37010     37009     37011
     37010     37011     37012     37013     37012     37014     37013     37014
     37015     37016     37015     37017     37016     37017     37018     37019
     37018     37020     37019     37020     37021     37022     37021     37023
     37022     37023     37024     37025     37024     37026     37025     37026
     37027     37028     37027     37029     37028     37029     37030     37031
     37030     37032     37031     37032     37033     37034     37033     37035
     37034     37035     37036     37037     37036     37038     37037     37038
     37039     37040     37039     37041     37040     37041     37042     37043
     37042     37044     37043     37044     37045     37046     37045     37047
     37046     37047     37048     37049     37048     37050     37049     37050
     37051     37052     37051     37053     37052     37053     37054     37055
     37054     37056     37055     37056     37057     37058     37057     37059
     37058     37059     37060     37061     37060     37062     37061     37062
     37063     37064     37063     37065     37064     37065     37066     37067
     37066     37068     37067     37068     37069     37070     37069     37071
     37070     37071     37072     37073     37072     37074     37073     37074
     37075     37076     37075     37077     37076     37077     37078     37079
     37078     37080     37079     37080     37081     37082     37081     37083
     37082     37083     37084     37085     37084     37086     37085     37086
     37087     37088     37087     37089     37088     37089     37090     37091
     37090     37092     37091     37092     37093     37094     37093     37095
     37094     37095     37096     37097     37096     37098     37097     37098
     37099     37100     37099     37101     37100     37101     37102     37103
     37102     37104     37103     37104     37105     37106     37105     37107
     37106     37107     37108     37109     37108     37110     37109     37110
     37111     37112     37111     37113     37112     37113     37114     37115
     37114     37116     37115     37116     37117     37118     37117     37119
     37118     37119     37120     37121     37120     37122     37121     37122
     37123     37124     37123     37125     37124     37125     37126     37127
     37126     37128     37127     37128     37129     37130     37129     37131
     37130     37131     37132     37133     37132     37134     37133     37134
     37135     37136     37135     37137     37136     37137     37138     37139
     37138     37140     37139     37140     37141     37142     37141     37143
     37142     37143     37144     37145     37144     37146     37145     37146
     37147     37148     37147     37149     37148     37149     37150     37151
     37150     37152     37151     37152     37153     37154     37153     37155
     37154     37155     37156     37157     37156     37158     37157     37158
     37159     37160     37159     37161     37160     37161     37162     37163
     37162     37164     37163     37164     37165     37166     37165     37167
     37166     37167     37168     37169     37168     37170     37169     37170
     37171     37172     37171     37173     37172     37173     37174     37175
     37174     37176     37175     37176     37177     37178     37177     37179
     37178     37179     37180     37181     37180     37182     37181     37182
     37183     37184     37183     37185     37184     37185     37186     37187
     37186     37188     37187     37188     37189     37190     37189     37191
     37190     37191     37192     37193     37192     37194     37193     37194
     37195     37196     37195     37197     37196     37197     37198     37199
     37198     37200     37199     37200     37201     37202     37201     37203
     37202     37203     37204     37205     37204     37206     37205     37206
     37207     37208     37207     37209     37208     37209     37210     37211
     37210     37212     37211     37212     37213     37214     37213     37215
     37214     37215     37216     37217     37216     37218     37217     37218
     37219     37220     37219     37221     37220     37221     37222     37223
     37222     37224     37223     37224     37225     37226     37225     37227
     37226     37227     37228     37229     37228     37230     37229     37230
     37231     37232     37231     37233     37232     37233     37234     37235
     37234     37236     37235     37236     37237     37238     37237     37239
     37238     37239     37240     37241     37240     37242     37241     37242
     37243     37244     37243     37245     37244     37245     37246     37247
     37246     37248     37247     37248     37249     37250     37249     37251
     37250     37251     37252     37253     37252     37254     37253     37254
     37255     37256     37255     37257     37256     37257     37258     37259
     37258     37260     37259     37260     37261     37262     37261     37263
     37262     37263     37264     37265     37264     37266     37265     37266
     37267     37268     37267     37269     37268     37269     37270     37271
     37270     37272     37271     37272     37273     37274     37273     37275
     37274     37275     37276     37277     37276     37278     37277     37278
     37279     37280     37279     37281     37280     37281     37282     37283
     37282     37284     37283     37284     37285     37286     37285     37287
     37286     37287     37288     37289     37288     37290     37289     37290
     37291     37292     37291     37293     37292     37293     37294     37295
     37294     37296     37295     37296     37297     37298     37297     37299
     37298     37299     37300     37301     37300     37302     37301     37302
     37303     37304     37303     37305     37304     37305     37306     37307
     37306     37308     37307     37308     37309     37310     37309     37311
     37310     37311     37312     37313     37312     37314     37313     37314
     37315     37316     37315     37317     37316     37317     37318     37319
     37318     37320     37319     37320     37321     37322     37321     37323
     37322     37323     37324     37325     37324     37326     37325     37326
     37327     37328     37327     37329     37328     37329     37330     37331
     37330     37332     37331     37332     37333     37334     37333     37335
     37334     37335     37336     37337     37336     37338     37337     37338
     37339     37340     37339     37341     37340     37341     37342     37343
     37342     37344     37343     37344     37345     37346     37345     37347
     37346     37347     37348     37349     37348     37350     37349     37350
     37351     37352     37351     37353     37352     37353     37354     37355
     37354     37356     37355     37356     37357     37358     37357     37359
     37358     37359     37360     37361     37360     37362     37361     37362
     37363     37364     37363     37365     37364     37365     37366     37367
     37366     37368     37367     37368     37369     37370     37369     37371
     37370     37371     37372     37373     37372     37374     37373     37374
     37375     37376     37375     37377     37376     37377     37378     37379
     37378     37380     37379     37380     37381     37382     37381     37383
     37382     37383     37384     37385     37384     37386     37385     37386
     37387     37388     37387     37389     37388     37389     37390     37391
     37390     37392     37391     37392     37393     37394     37393     37395
     37394     37395     37396     37397     37396     37398     37397     37398
     37399     37400     37399     37401     37400     37401     37402     37403
     37402     37404     37403     37404     37405     37406     37405     37407
     37406     37407     37408     37409     37408     37410     37409     37410
     37411     37412     37411     37413     37412     37413     37414     37415
     37414     37416     37415     37416     37417     37418     37417     37419
     37418     37419     37420     37421     37420     37422     37421     37422
     37423     37424     37423     37425     37424     37425     37426     37427
     37426     37428     37427     37428     37429     37430     37429     37431
     37430     37431     37432     37433     37432     37434     37433     37434
     37435     37436     37435     37437     37436     37437     37438     37439
     37438     37440     37439     37440     37441     37442     37441     37443
     37442     37443     37444     37445     37444     37446     37445     37446
     37447     37448     37447     37449     37448     37449     37450     37451
     37450     37452     37451     37452     37453     37454     37453     37455
     37454     37455     37456     37457     37456     37458     37457     37458
     37459     37460     37459     37461     37460     37461     37462     37463
     37462     37464     37463     37464     37465     37466     37465     37467
     37466     37467     37468     37469     37468     37470     37469     37470
     37471     37472     37471     37473     37472     37473     37474     37475
     37474     37476     37475     37476     37477     37478     37477     37479
     37478     37479     37480     37481     37480     37482     37481     37482
     37483     37484     37483     37485     37484     37485     37486     37487
     37486     37488     37487     37488     37489     37490     37489     37491
     37490     37491     37492     37493     37492     37494     37493     37494
     37495     37496     37495     37497     37496     37497     37498     37499
     37498     37500     37499     37500     37501     37502     37501     37503
     37502     37503     37504     37505     37504     37506     37505     37506
     37507     37508     37507     37509     37508     37509     37510     37511
     37510     37512     37511     37512     37513     37514     37513     37515
     37514     37515     37516     37517     37516     37518     37517     37518
     37519     37520     37519     37521     37520     37521     37522     37523
     37522     37524     37523     37524     37525     37526     37525     37527
     37526     37527     37528     37529     37528     37530     37529     37530
     37531     37532     37531     37533     37532     37533     37534     37535
     37534     37536     37535     37536     37537     37538     37537     37539
     37538     37539     37540     37541     37540     37542     37541     37542
     37543     37544     37543     37545     37544     37545     37546     37547
     37546     37548     37547     37548     37549     37550     37549     37551
     37550     37551     37552     37553     37552     37554     37553     37554
     37555     37556     37555     37557     37556     37557     37558     37559
     37558     37560     37559     37560     37561     37562     37561     37563
     37562     37563     37564     37565     37564     37566     37565     37566
     37567     37568     37567     37569     37568     37569     37570     37571
     37570     37572     37571     37572     37573     37574     37573     37575
     37574     37575     37576     37577     37576     37578     37577     37578
     37579     37580     37579     37581     37580     37581     37582     37583
     37582     37584     37583     37584     37585     37586     37585     37587
     37586     37587     37588     37589     37588     37590     37589     37590
     37591     37592     37591     37593     37592     37593     37594     37595
     37594     37596     37595     37596     37597     37598     37597     37599
     37598     37599     37600     37601     37600     37602     37601     37602
     37603     37604     37603     37605     37604     37605     37606     37607
     37606     37608     37607     37608     37609     37610     37609     37611
     37610     37611     37612     37613     37612     37614     37613     37614
     37615     37616     37615     37617     37616     37617     37618     37619
     37618     37620     37619     37620     37621     37622     37621     37623
     37622     37623     37624     37625     37624     37626     37625     37626
     37627     37628     37627     37629     37628     37629     37630     37631
     37630     37632     37631     37632     37633     37634     37633     37635
     37634     37635     37636     37637     37636     37638     37637     37638
     37639     37640     37639     37641     37640     37641     37642     37643
     37642     37644     37643     37644     37645     37646     37645     37647
     37646     37647     37648     37649     37648     37650     37649     37650
     37651     37652     37651     37653     37652     37653     37654     37655
     37654     37656     37655     37656     37657     37658     37657     37659
     37658     37659     37660     37661     37660     37662     37661     37662
     37663     37664     37663     37665     37664     37665     37666     37667
     37666     37668     37667     37668     37669     37670     37669     37671
     37670     37671     37672     37673     37672     37674     37673     37674
     37675     37676     37675     37677     37676     37677     37678     37679
     37678     37680     37679     37680     37681     37682     37681     37683
     37682     37683     37684     37685     37684     37686     37685     37686
     37687     37688     37687     37689     37688     37689     37690     37691
     37690     37692     37691     37692     37693     37694     37693     37695
     37694     37695     37696     37697     37696     37698     37697     37698
     37699     37700     37699     37701     37700     37701     37702     37703
     37702     37704     37703     37704     37705     37706     37705     37707
     37706     37707     37708     37709     37708     37710     37709     37710
     37711     37712     37711     37713     37712     37713     37714     37715
     37714     37716     37715     37716     37717     37718     37717     37719
     37718     37719     37720     37721     37720     37722     37721     37722
     37723     37724     37723     37725     37724     37725     37726     37727
     37726     37728     37727     37728     37729     37730     37729     37731
     37730     37731     37732     37733     37732     37734     37733     37734
     37735     37736     37735     37737     37736     37737     37738     37739
     37738     37740     37739     37740     37741     37742     37741     37743
     37742     37743     37744     37745     37744     37746     37745     37746
     37747     37748     37747     37749     37748     37749     37750     37751
     37750     37752     37751     37752     37753     37754     37753     37755
     37754     37755     37756     37757     37756     37758     37757     37758
     37759     37760     37759     37761     37760     37761     37762     37763
     37762     37764     37763     37764     37765     37766     37765     37767
     37766     37767     37768     37769     37768     37770     37769     37770
     37771     37772     37771     37773     37772     37773     37774     37775
     37774     37776     37775     37776     37777     37778     37777     37779
     37778     37779     37780     37781     37780     37782     37781     37782
     37783     37784     37783     37785     37784     37785     37786     37787
     37786     37788     37787     37788     37789     37790     37789     37791
     37790     37791     37792     37793     37792     37794     37793     37794
     37795     37796     37795     37797     37796     37797     37798     37799
     37798     37800     37799     37800     37801     37802     37801     37803
     37802     37803     37804     37805     37804     37806     37805     37806
     37807     37808     37807     37809     37808     37809     37810     37811
     37810     37812     37811     37812     37813     37814     37813     37815
     37814     37815     37816     37817     37816     37818     37817     37818
     37819     37820     37819     37821     37820     37821     37822     37823
     37822     37824     37823     37824     37825     37826     37825     37827
     37826     37827     37828     37829     37828     37830     37829     37830
     37831     37832     37831     37833     37832     37833     37834     37835
     37834     37836     37835     37836     37837     37838     37837     37839
     37838     37839     37840     37841     37840     37842     37841     37842
     37843     37844     37843     37845     37844     37845     37846     37847
     37846     37848     37847     37848     37849     37850     37849     37851
     37850     37851     37852     37853     37852     37854     37853     37854
     37855     37856     37855     37857     37856     37857     37858     37859
     37858     37860     37859     37860     37861     37862     37861     37863
     37862     37863     37864     37865     37864     37866     37865     37866
     37867     37868     37867     37869     37868     37869     37870     37871
     37870     37872     37871     37872     37873     37874     37873     37875
     37874     37875     37876     37877     37876     37878     37877     37878
     37879     37880     37879     37881     37880     37881     37882     37883
     37882     37884     37883     37884     37885     37886     37885     37887
     37886     37887     37888     37889     37888     37890     37889     37890
     37891     37892     37891     37893     37892     37893     37894     37895
     37894     37896     37895     37896     37897     37898     37897     37899
     37898     37899     37900     37901     37900     37902     37901     37902
     37903     37904     37903     37905     37904     37905     37906     37907
     37906     37908     37907     37908     37909     37910     37909     37911
     37910     37911     37912     37913     37912     37914     37913     37914
     37915     37916     37915     37917     37916     37917     37918     37919
     37918     37920     37919     37920     37921     37922     37921     37923
     37922     37923     37924     37925     37924     37926     37925     37926
     37927     37928     37927     37929     37928     37929     37930     37931
     37930     37932     37931     37932     37933     37934     37933     37935
     37934     37935     37936     37937     37936     37938     37937     37938
     37939     37940     37939     37941     37940     37941     37942     37943
     37942     37944     37943     37944     37945     37946     37945     37947
     37946     37947     37948     37949     37948     37950     37949     37950
     37951     37952     37951     37953     37952     37953     37954     37955
     37954     37956     37955     37956     37957     37958     37957     37959
     37958     37959     37960     37961     37960     37962     37961     37962
     37963     37964     37963     37965     37964     37965     37966     37967
     37966     37968     37967     37968     37969     37970     37969     37971
     37970     37971     37972     37973     37972     37974     37973     37974
     37975     37976     37975     37977     37976     37977     37978     37979
     37978     37980     37979     37980     37981     37982     37981     37983
     37982     37983     37984     37985     37984     37986     37985     37986
     37987     37988     37987     37989     37988     37989     37990     37991
     37990     37992     37991     37992     37993     37994     37993     37995
     37994     37995     37996     37997     37996     37998     37997     37998
     37999     38000     37999     38001     38000     38001     38002     38003
     38002     38004     38003     38004     38005     38006     38005     38007
     38006     38007     38008     38009     38008     38010     38009     38010
     38011     38012     38011     38013     38012     38013     38014     38015
     38014     38016     38015     38016     38017     38018     38017     38019
     38018     38019     38020     38021     38020     38022     38021     38022
     38023     38024     38023     38025     38024     38025     38026     38027
     38026     38028     38027     38028     38029     38030     38029     38031
     38030     38031     38032     38033     38032     38034     38033     38034
     38035     38036     38035     38037     38036     38037     38038     38039
     38038     38040     38039     38040     38041     38042     38041     38043
     38042     38043     38044     38045     38044     38046     38045     38046
     38047     38048     38047     38049     38048     38049     38050     38051
     38050     38052     38051     38052     38053     38054     38053     38055
     38054     38055     38056     38057     38056     38058     38057     38058
     38059     38060     38059     38061     38060     38061     38062     38063
     38062     38064     38063     38064     38065     38066     38065     38067
     38066     38067     38068     38069     38068     38070     38069     38070
     38071     38072     38071     38073     38072     38073     38074     38075
     38074     38076     38075     38076     38077     38078     38077     38079
     38078     38079     38080     38081     38080     38082     38081     38082
     38083     38084     38083     38085     38084     38085     38086     38087
     38086     38088     38087     38088     38089     38090     38089     38091
     38090     38091     38092     38093     38092     38094     38093     38094
     38095     38096     38095     38097     38096     38097     38098     38099
     38098     38100     38099     38100     38101     38102     38101     38103
     38102     38103     38104     38105     38104     38106     38105     38106
     38107     38108     38107     38109     38108     38109     38110     38111
     38110     38112     38111     38112     38113     38114     38113     38115
     38114     38115     38116     38117     38116     38118     38117     38118
     38119     38120     38119     38121     38120     38121     38122     38123
     38122     38124     38123     38124     38125     38126     38125     38127
     38126     38127     38128     38129     38128     38130     38129     38130
     38131     38132     38131     38133     38132     38133     38134     38135
     38134     38136     38135     38136     38137     38138     38137     38139
     38138     38139     38140     38141     38140     38142     38141     38142
     38143     38144     38143     38145     38144     38145     38146     38147
     38146     38148     38147     38148     38149     38150     38149     38151
     38150     38151     38152     38153     38152     38154     38153     38154
     38155     38156     38155     38157     38156     38157     38158     38159
     38158     38160     38159     38160     38161     38162     38161     38163
     38162     38163     38164     38165     38164     38166     38165     38166
     38167     38168     38167     38169     38168     38169     38170     38171
     38170     38172     38171     38172     38173     38174     38173     38175
     38174     38175     38176     38177     38176     38178     38177     38178
     38179     38180     38179     38181     38180     38181     38182     38183
     38182     38184     38183     38184     38185     38186     38185     38187
     38186     38187     38188     38189     38188     38190     38189     38190
     38191     38192     38191     38193     38192     38193     38194     38195
     38194     38196     38195     38196     38197     38198     38197     38199
     38198     38199     38200     38201     38200     38202     38201     38202
     38203     38204     38203     38205     38204     38205     38206     38207
     38206     38208     38207     38208     38209     38210     38209     38211
     38210     38211     38212     38213     38212     38214     38213     38214
     38215     38216     38215     38217     38216     38217     38218     38219
     38218     38220     38219     38220     38221     38222     38221     38223
     38222     38223     38224     38225     38224     38226     38225     38226
     38227     38228     38227     38229     38228     38229     38230     38231
     38230     38232     38231     38232     38233     38234     38233     38235
     38234     38235     38236     38237     38236     38238     38237     38238
     38239     38240     38239     38241     38240     38241     38242     38243
     38242     38244     38243     38244     38245     38246     38245     38247
     38246     38247     38248     38249     38248     38250     38249     38250
     38251     38252     38251     38253     38252     38253     38254     38255
     38254     38256     38255     38256     38257     38258     38257     38259
     38258     38259     38260     38261     38260     38262     38261     38262
     38263     38264     38263     38265     38264     38265     38266     38267
     38266     38268     38267     38268     38269     38270     38269     38271
     38270     38271     38272     38273     38272     38274     38273     38274
     38275     38276     38275     38277     38276     38277     38278     38279
     38278     38280     38279     38280     38281     38282     38281     38283
     38282     38283     38284     38285     38284     38286     38285     38286
     38287     38288     38287     38289     38288     38289     38290     38291
     38290     38292     38291     38292     38293     38294     38293     38295
     38294     38295     38296     38297     38296     38298     38297     38298
     38299     38300     38299     38301     38300     38301     38302     38303
     38302     38304     38303     38304     38305     38306     38305     38307
     38306     38307     38308     38309     38308     38310     38309     38310
     38311     38312     38311     38313     38312     38313     38314     38315
     38314     38316     38315     38316     38317     38318     38317     38319
     38318     38319     38320     38321     38320     38322     38321     38322
     38323     38324     38323     38325     38324     38325     38326     38327
     38326     38328     38327     38328     38329     38330     38329     38331
     38330     38331     38332     38333     38332     38334     38333     38334
     38335     38336     38335     38337     38336     38337     38338     38339
     38338     38340     38339     38340     38341     38342     38341     38343
     38342     38343     38344     38345     38344     38346     38345     38346
     38347     38348     38347     38349     38348     38349     38350     38351
     38350     38352     38351     38352     38353     38354     38353     38355
     38354     38355     38356     38357     38356     38358     38357     38358
     38359     38360     38359     38361     38360     38361     38362     38363
     38362     38364     38363     38364     38365     38366     38365     38367
     38366     38367     38368     38369     38368     38370     38369     38370
     38371     38372     38371     38373     38372     38373     38374     38375
     38374     38376     38375     38376     38377     38378     38377     38379
     38378     38379     38380     38381     38380     38382     38381     38382
     38383     38384     38383     38385     38384     38385     38386     38387
     38386     38388     38387     38388     38389     38390     38389     38391
     38390     38391     38392     38393     38392     38394     38393     38394
     38395     38396     38395     38397     38396     38397     38398     38399
     38398     38400     38399     38400     38401     38402     38401     38403
     38402     38403     38404     38405     38404     38406     38405     38406
     38407     38408     38407     38409     38408     38409     38410     38411
     38410     38412     38411     38412     38413     38414     38413     38415
     38414     38415     38416     38417     38416     38418     38417     38418
     38419     38420     38419     38421     38420     38421     38422     38423
     38422     38424     38423     38424     38425     38426     38425     38427
     38426     38427     38428     38429     38428     38430     38429     38430
     38431     38432     38431     38433     38432     38433     38434     38435
     38434     38436     38435     38436     38437     38438     38437     38439
     38438     38439     38440     38441     38440     38442     38441     38442
     38443     38444     38443     38445     38444     38445     38446     38447
     38446     38448     38447     38448     38449     38450     38449     38451
     38450     38451     38452     38453     38452     38454     38453     38454
     38455     38456     38455     38457     38456     38457     38458     38459
     38458     38460     38459     38460     38461     38462     38461     38463
     38462     38463     38464     38465     38464     38466     38465     38466
     38467     38468     38467     38469     38468     38469     38470     38471
     38470     38472     38471     38472     38473     38474     38473     38475
     38474     38475     38476     38477     38476     38478     38477     38478
     38479     38480     38479     38481     38480     38481     38482     38483
     38482     38484     38483     38484     38485     38486     38485     38487
     38486     38487     38488     38489     38488     38490     38489     38490
     38491     38492     38491     38493     38492     38493     38494     38495
     38494     38496     38495     38496     38497     38498     38497     38499
     38498     38499     38500     38501     38500     38502     38501     38502
     38503     38504     38503     38505     38504     38505     38506     38507
     38506     38508     38507     38508     38509     38510     38509     38511
     38510     38511     38512     38513     38512     38514     38513     38514
     38515     38516     38515     38517     38516     38517     38518     38519
     38518     38520     38519     38520     38521     38522     38521     38523
     38522     38523     38524     38525     38524     38526     38525     38526
     38527     38528     38527     38529     38528     38529     38530     38531
     38530     38532     38531     38532     38533     38534     38533     38535
     38534     38535     38536     38537     38536     38538     38537     38538
     38539     38540     38539     38541     38540     38541     38542     38543
     38542     38544     38543     38544     38545     38546     38545     38547
     38546     38547     38548     38549     38548     38550     38549     38550
     38551     38552     38551     38553     38552     38553     38554     38555
     38554     38556     38555     38556     38557     38558     38557     38559
     38558     38559     38560     38561     38560     38562     38561     38562
     38563     38564     38563     38565     38564     38565     38566     38567
     38566     38568     38567     38568     38569     38570     38569     38571
     38570     38571     38572     38573     38572     38574     38573     38574
     38575     38576     38575     38577     38576     38577     38578     38579
     38578     38580     38579     38580     38581     38582     38581     38583
     38582     38583     38584     38585     38584     38586     38585     38586
     38587     38588     38587     38589     38588     38589     38590     38591
     38590     38592     38591     38592     38593     38594     38593     38595
     38594     38595     38596     38597     38596     38598     38597     38598
     38599     38600     38599     38601     38600     38601     38602     38603
     38602     38604     38603     38604     38605     38606     38605     38607
     38606     38607     38608     38609     38608     38610     38609     38610
     38611     38612     38611     38613     38612     38613     38614     38615
     38614     38616     38615     38616     38617     38618     38617     38619
     38618     38619     38620     38621     38620     38622     38621     38622
     38623     38624     38623     38625     38624     38625     38626     38627
     38626     38628     38627     38628     38629     38630     38629     38631
     38630     38631     38632     38633     38632     38634     38633     38634
     38635     38636     38635     38637     38636     38637     38638     38639
     38638     38640     38639     38640     38641     38642     38641     38643
     38642     38643     38644     38645     38644     38646     38645     38646
     38647     38648     38647     38649     38648     38649     38650     38651
     38650     38652     38651     38652     38653     38654     38653     38655
     38654     38655     38656     38657     38656     38658     38657     38658
     38659     38660     38659     38661     38660     38661     38662     38663
     38662     38664     38663     38664     38665     38666     38665     38667
     38666     38667     38668     38669     38668     38670     38669     38670
     38671     38672     38671     38673     38672     38673     38674     38675
     38674     38676     38675     38676     38677     38678     38677     38679
     38678     38679     38680     38681     38680     38682     38681     38682
     38683     38684     38683     38685     38684     38685     38686     38687
     38686     38688     38687     38688     38689     38690     38689     38691
     38690     38691     38692     38693     38692     38694     38693     38694
     38695     38696     38695     38697     38696     38697     38698     38699
     38698     38700     38699     38700     38701     38702     38701     38703
     38702     38703     38704     38705     38704     38706     38705     38706
     38707     38708     38707     38709     38708     38709     38710     38711
     38710     38712     38711     38712     38713     38714     38713     38715
     38714     38715     38716     38717     38716     38718     38717     38718
     38719     38720     38719     38721     38720     38721     38722     38723
     38722     38724     38723     38724     38725     38726     38725     38727
     38726     38727     38728     38729     38728     38730     38729     38730
     38731     38732     38731     38733     38732     38733     38734     38735
     38734     38736     38735     38736     38737     38738     38737     38739
     38738     38739     38740     38741     38740     38742     38741     38742
     38743     38744     38743     38745     38744     38745     38746     38747
     38746     38748     38747     38748     38749     38750     38749     38751
     38750     38751     38752     38753     38752     38754     38753     38754
     38755     38756     38755     38757     38756     38757     38758     38759
     38758     38760     38759     38760     38761     38762     38761     38763
     38762     38763     38764     38765     38764     38766     38765     38766
     38767     38768     38767     38769     38768     38769     38770     38771
     38770     38772     38771     38772     38773     38774     38773     38775
     38774     38775     38776     38777     38776     38778     38777     38778
     38779     38780     38779     38781     38780     38781     38782     38783
     38782     38784     38783     38784     38785     38786     38785     38787
     38786     38787     38788     38789     38788     38790     38789     38790
     38791     38792     38791     38793     38792     38793     38794     38795
     38794     38796     38795     38796     38797     38798     38797     38799
     38798     38799     38800     38801     38800     38802     38801     38802
     38803     38804     38803     38805     38804     38805     38806     38807
     38806     38808     38807     38808     38809     38810     38809     38811
     38810     38811     38812     38813     38812     38814     38813     38814
     38815     38816     38815     38817     38816     38817     38818     38819
     38818     38820     38819     38820     38821     38822     38821     38823
     38822     38823     38824     38825     38824     38826     38825     38826
     38827     38828     38827     38829     38828     38829     38830     38831
     38830     38832     38831     38832     38833     38834     38833     38835
     38834     38835     38836     38837     38836     38838     38837     38838
     38839     38840     38839     38841     38840     38841     38842     38843
     38842     38844     38843     38844     38845     38846     38845     38847
     38846     38847     38848     38849     38848     38850     38849     38850
     38851     38852     38851     38853     38852     38853     38854     38855
     38854     38856     38855     38856     38857     38858     38857     38859
     38858     38859     38860     38861     38860     38862     38861     38862
     38863     38864     38863     38865     38864     38865     38866     38867
     38866     38868     38867     38868     38869     38870     38869     38871
     38870     38871     38872     38873     38872     38874     38873     38874
     38875     38876     38875     38877     38876     38877     38878     38879
     38878     38880     38879     38880     38881     38882     38881     38883
     38882     38883     38884     38885     38884     38886     38885     38886
     38887     38888     38887     38889     38888     38889     38890     38891
     38890     38892     38891     38892     38893     38894     38893     38895
     38894     38895     38896     38897     38896     38898     38897     38898
     38899     38900     38899     38901     38900     38901     38902     38903
     38902     38904     38903     38904     38905     38906     38905     38907
     38906     38907     38908     38909     38908     38910     38909     38910
     38911     38912     38911     38913     38912     38913     38914     38915
     38914     38916     38915     38916     38917     38918     38917     38919
     38918     38919     38920     38921     38920     38922     38921     38922
     38923     38924     38923     38925     38924     38925     38926     38927
     38926     38928     38927     38928     38929     38930     38929     38931
     38930     38931     38932     38933     38932     38934     38933     38934
     38935     38936     38935     38937     38936     38937     38938     38939
     38938     38940     38939     38940     38941     38942     38941     38943
     38942     38943     38944     38945     38944     38946     38945     38946
     38947     38948     38947     38949     38948     38949     38950     38951
     38950     38952     38951     38952     38953     38954     38953     38955
     38954     38955     38956     38957     38956     38958     38957     38958
     38959     38960     38959     38961     38960     38961     38962     38963
     38962     38964     38963     38964     38965     38966     38965     38967
     38966     38967     38968     38969     38968     38970     38969     38970
     38971     38972     38971     38973     38972     38973     38974     38975
     38974     38976     38975     38976     38977     38978     38977     38979
     38978     38979     38980     38981     38980     38982     38981     38982
     38983     38984     38983     38985     38984     38985     38986     38987
     38986     38988     38987     38988     38989     38990     38989     38991
     38990     38991     38992     38993     38992     38994     38993     38994
     38995     38996     38995     38997     38996     38997     38998     38999
     38998     39000     38999     39000     39001     39002     39001     39003
     39002     39003     39004     39005     39004     39006     39005     39006
     39007     39008     39007     39009     39008     39009     39010     39011
     39010     39012     39011     39012     39013     39014     39013     39015
     39014     39015     39016     39017     39016     39018     39017     39018
     39019     39020     39019     39021     39020     39021     39022     39023
     39022     39024     39023     39024     39025     39026     39025     39027
     39026     39027     39028     39029     39028     39030     39029     39030
     39031     39032     39031     39033     39032     39033     39034     39035
     39034     39036     39035     39036     39037     39038     39037     39039
     39038     39039     39040     39041     39040     39042     39041     39042
     39043     39044     39043     39045     39044     39045     39046     39047
     39046     39048     39047     39048     39049     39050     39049     39051
     39050     39051     39052     39053     39052     39054     39053     39054
     39055     39056     39055     39057     39056     39057     39058     39059
     39058     39060     39059     39060     39061     39062     39061     39063
     39062     39063     39064     39065     39064     39066     39065     39066
     39067     39068     39067     39069     39068     39069     39070     39071
     39070     39072     39071     39072     39073     39074     39073     39075
     39074     39075     39076     39077     39076     39078     39077     39078
     39079     39080     39079     39081     39080     39081     39082     39083
     39082     39084     39083     39084     39085     39086     39085     39087
     39086     39087     39088     39089     39088     39090     39089     39090
     39091     39092     39091     39093     39092     39093     39094     39095
     39094     39096     39095     39096     39097     39098     39097     39099
     39098     39099     39100     39101     39100     39102     39101     39102
     39103     39104     39103     39105     39104     39105     39106     39107
     39106     39108     39107     39108     39109     39110     39109     39111
     39110     39111     39112     39113     39112     39114     39113     39114
     39115     39116     39115     39117     39116     39117     39118     39119
     39118     39120     39119     39120     39121     39122     39121     39123
     39122     39123     39124     39125     39124     39126     39125     39126
     39127     39128     39127     39129     39128     39129     39130     39131
     39130     39132     39131     39132     39133     39134     39133     39135
     39134     39135     39136     39137     39136     39138     39137     39138
     39139     39140     39139     39141     39140     39141     39142     39143
     39142     39144     39143     39144     39145     39146     39145     39147
     39146     39147     39148     39149     39148     39150     39149     39150
     39151     39152     39151     39153     39152     39153     39154     39155
     39154     39156     39155     39156     39157     39158     39157     39159
     39158     39159     39160     39161     39160     39162     39161     39162
     39163     39164     39163     39165     39164     39165     39166     39167
     39166     39168     39167     39168     39169     39170     39169     39171
     39170     39171     39172     39173     39172     39174     39173     39174
     39175     39176     39175     39177     39176     39177     39178     39179
     39178     39180     39179     39180     39181     39182     39181     39183
     39182     39183     39184     39185     39184     39186     39185     39186
     39187     39188     39187     39189     39188     39189     39190     39191
     39190     39192     39191     39192     39193     39194     39193     39195
     39194     39195     39196     39197     39196     39198     39197     39198
     39199     39200     39199     39201     39200     39201     39202     39203
     39202     39204     39203     39204     39205     39206     39205     39207
     39206     39207     39208     39209     39208     39210     39209     39210
     39211     39212     39211     39213     39212     39213     39214     39215
     39214     39216     39215     39216     39217     39218     39217     39219
     39218     39219     39220     39221     39220     39222     39221     39222
     39223     39224     39223     39225     39224     39225     39226     39227
     39226     39228     39227     39228     39229     39230     39229     39231
     39230     39231     39232     39233     39232     39234     39233     39234
     39235     39236     39235     39237     39236     39237     39238     39239
     39238     39240     39239     39240     39241     39242     39241     39243
     39242     39243     39244     39245     39244     39246     39245     39246
     39247     39248     39247     39249     39248     39249     39250     39251
     39250     39252     39251     39252     39253     39254     39253     39255
     39254     39255     39256     39257     39256     39258     39257     39258
     39259     39260     39259     39261     39260     39261     39262     39263
     39262     39264     39263     39264     39265     39266     39265     39267
     39266     39267     39268     39269     39268     39270     39269     39270
     39271     39272     39271     39273     39272     39273     39274     39275
     39274     39276     39275     39276     39277     39278     39277     39279
     39278     39279     39280     39281     39280     39282     39281     39282
     39283     39284     39283     39285     39284     39285     39286     39287
     39286     39288     39287     39288     39289     39290     39289     39291
     39290     39291     39292     39293     39292     39294     39293     39294
     39295     39296     39295     39297     39296     39297     39298     39299
     39298     39300     39299     39300     39301     39302     39301     39303
     39302     39303     39304     39305     39304     39306     39305     39306
     39307     39308     39307     39309     39308     39309     39310     39311
     39310     39312     39311     39312     39313     39314     39313     39315
     39314     39315     39316     39317     39316     39318     39317     39318
     39319     39320     39319     39321     39320     39321     39322     39323
     39322     39324     39323     39324     39325     39326     39325     39327
     39326     39327     39328     39329     39328     39330     39329     39330
     39331     39332     39331     39333     39332     39333     39334     39335
     39334     39336     39335     39336     39337     39338     39337     39339
     39338     39339     39340     39341     39340     39342     39341     39342
     39343     39344     39343     39345     39344     39345     39346     39347
     39346     39348     39347     39348     39349     39350     39349     39351
     39350     39351     39352     39353     39352     39354     39353     39354
     39355     39356     39355     39357     39356     39357     39358     39359
     39358     39360     39359     39360     39361     39362     39361     39363
     39362     39363     39364     39365     39364     39366     39365     39366
     39367     39368     39367     39369     39368     39369     39370     39371
     39370     39372     39371     39372     39373     39374     39373     39375
     39374     39375     39376     39377     39376     39378     39377     39378
     39379     39380     39379     39381     39380     39381     39382     39383
     39382     39384     39383     39384     39385     39386     39385     39387
     39386     39387     39388     39389     39388     39390     39389     39390
     39391     39392     39391     39393     39392     39393     39394     39395
     39394     39396     39395     39396     39397     39398     39397     39399
     39398     39399     39400     39401     39400     39402     39401     39402
     39403     39404     39403     39405     39404     39405     39406     39407
     39406     39408     39407     39408     39409     39410     39409     39411
     39410     39411     39412     39413     39412     39414     39413     39414
     39415     39416     39415     39417     39416     39417     39418     39419
     39418     39420     39419     39420     39421     39422     39421     39423
     39422     39423     39424     39425     39424     39426     39425     39426
     39427     39428     39427     39429     39428     39429     39430     39431
     39430     39432     39431     39432     39433     39434     39433     39435
     39434     39435     39436     39437     39436     39438     39437     39438
     39439     39440     39439     39441     39440     39441     39442     39443
     39442     39444     39443     39444     39445     39446     39445     39447
     39446     39447     39448     39449     39448     39450     39449     39450
     39451     39452     39451     39453     39452     39453     39454     39455
     39454     39456     39455     39456     39457     39458     39457     39459
     39458     39459     39460     39461     39460     39462     39461     39462
     39463     39464     39463     39465     39464     39465     39466     39467
     39466     39468     39467     39468     39469     39470     39469     39471
     39470     39471     39472     39473     39472     39474     39473     39474
     39475     39476     39475     39477     39476     39477     39478     39479
     39478     39480     39479     39480     39481     39482     39481     39483
     39482     39483     39484     39485     39484     39486     39485     39486
     39487     39488     39487     39489     39488     39489     39490     39491
     39490     39492     39491     39492     39493     39494     39493     39495
     39494     39495     39496     39497     39496     39498     39497     39498
     39499     39500     39499     39501     39500     39501     39502     39503
     39502     39504     39503     39504     39505     39506     39505     39507
     39506     39507     39508     39509     39508     39510     39509     39510
     39511     39512     39511     39513     39512     39513     39514     39515
     39514     39516     39515     39516     39517     39518     39517     39519
     39518     39519     39520     39521     39520     39522     39521     39522
     39523     39524     39523     39525     39524     39525     39526     39527
     39526     39528     39527     39528     39529     39530     39529     39531
     39530     39531     39532     39533     39532     39534     39533     39534
     39535     39536     39535     39537     39536     39537     39538     39539
     39538     39540     39539     39540     39541     39542     39541     39543
     39542     39543     39544     39545     39544     39546     39545     39546
     39547     39548     39547     39549     39548     39549     39550     39551
     39550     39552     39551     39552     39553     39554     39553     39555
     39554     39555     39556     39557     39556     39558     39557     39558
     39559     39560     39559     39561     39560     39561     39562     39563
     39562     39564     39563     39564     39565     39566     39565     39567
     39566     39567     39568     39569     39568     39570     39569     39570
     39571     39572     39571     39573     39572     39573     39574     39575
     39574     39576     39575     39576     39577     39578     39577     39579
     39578     39579     39580     39581     39580     39582     39581     39582
     39583     39584     39583     39585     39584     39585     39586     39587
     39586     39588     39587     39588     39589     39590     39589     39591
     39590     39591     39592     39593     39592     39594     39593     39594
     39595     39596     39595     39597     39596     39597     39598     39599
     39598     39600     39599     39600     39601     39602     39601     39603
     39602     39603     39604     39605     39604     39606     39605     39606
     39607     39608     39607     39609     39608     39609     39610     39611
     39610     39612     39611     39612     39613     39614     39613     39615
     39614     39615     39616     39617     39616     39618     39617     39618
     39619     39620     39619     39621     39620     39621     39622     39623
     39622     39624     39623     39624     39625     39626     39625     39627
     39626     39627     39628     39629     39628     39630     39629     39630
     39631     39632     39631     39633     39632     39633     39634     39635
     39634     39636     39635     39636     39637     39638     39637     39639
     39638     39639     39640     39641     39640     39642     39641     39642
     39643     39644     39643     39645     39644     39645     39646     39647
     39646     39648     39647     39648     39649     39650     39649     39651
     39650     39651     39652     39653     39652     39654     39653     39654
     39655     39656     39655     39657     39656     39657     39658     39659
     39658     39660     39659     39660     39661     39662     39661     39663
     39662     39663     39664     39665     39664     39666     39665     39666
     39667     39668     39667     39669     39668     39669     39670     39671
     39670     39672     39671     39672     39673     39674     39673     39675
     39674     39675     39676     39677     39676     39678     39677     39678
     39679     39680     39679     39681     39680     39681     39682     39683
     39682     39684     39683     39684     39685     39686     39685     39687
     39686     39687     39688     39689     39688     39690     39689     39690
     39691     39692     39691     39693     39692     39693     39694     39695
     39694     39696     39695     39696     39697     39698     39697     39699
     39698     39699     39700     39701     39700     39702     39701     39702
     39703     39704     39703     39705     39704     39705     39706     39707
     39706     39708     39707     39708     39709     39710     39709     39711
     39710     39711     39712     39713     39712     39714     39713     39714
     39715     39716     39715     39717     39716     39717     39718     39719
     39718     39720     39719     39720     39721     39722     39721     39723
     39722     39723     39724     39725     39724     39726     39725     39726
     39727     39728     39727     39729     39728     39729     39730     39731
     39730     39732     39731     39732     39733     39734     39733     39735
     39734     39735     39736     39737     39736     39738     39737     39738
     39739     39740     39739     39741     39740     39741     39742     39743
     39742     39744     39743     39744     39745     39746     39745     39747
     39746     39747     39748     39749     39748     39750     39749     39750
     39751     39752     39751     39753     39752     39753     39754     39755
     39754     39756     39755     39756     39757     39758     39757     39759
     39758     39759     39760     39761     39760     39762     39761     39762
     39763     39764     39763     39765     39764     39765     39766     39767
     39766     39768     39767     39768     39769     39770     39769     39771
     39770     39771     39772     39773     39772     39774     39773     39774
     39775     39776     39775     39777     39776     39777     39778     39779
     39778     39780     39779     39780     39781     39782     39781     39783
     39782     39783     39784     39785     39784     39786     39785     39786
     39787     39788     39787     39789     39788     39789     39790     39791
     39790     39792     39791     39792     39793     39794     39793     39795
     39794     39795     39796     39797     39796     39798     39797     39798
     39799     39800     39799     39801     39800     39801     39802     39803
     39802     39804     39803     39804     39805     39806     39805     39807
     39806     39807     39808     39809     39808     39810     39809     39810
     39811     39812     39811     39813     39812     39813     39814     39815
     39814     39816     39815     39816     39817     39818     39817     39819
     39818     39819     39820     39821     39820     39822     39821     39822
     39823     39824     39823     39825     39824     39825     39826     39827
     39826     39828     39827     39828     39829     39830     39829     39831
     39830     39831     39832     39833     39832     39834     39833     39834
     39835     39836     39835     39837     39836     39837     39838     39839
     39838     39840     39839     39840     39841     39842     39841     39843
     39842     39843     39844     39845     39844     39846     39845     39846
     39847     39848     39847     39849     39848     39849     39850     39851
     39850     39852     39851     39852     39853     39854     39853     39855
     39854     39855     39856     39857     39856     39858     39857     39858
     39859     39860     39859     39861     39860     39861     39862     39863
     39862     39864     39863     39864     39865     39866     39865     39867
     39866     39867     39868     39869     39868     39870     39869     39870
     39871     39872     39871     39873     39872     39873     39874     39875
     39874     39876     39875     39876     39877     39878     39877     39879
     39878     39879     39880     39881     39880     39882     39881     39882
     39883     39884     39883     39885     39884     39885     39886     39887
     39886     39888     39887     39888     39889     39890     39889     39891
     39890     39891     39892     39893     39892     39894     39893     39894
     39895     39896     39895     39897     39896     39897     39898     39899
     39898     39900     39899     39900     39901     39902     39901     39903
     39902     39903     39904     39905     39904     39906     39905     39906
     39907     39908     39907     39909     39908     39909     39910     39911
     39910     39912     39911     39912     39913     39914     39913     39915
     39914     39915     39916     39917     39916     39918     39917     39918
     39919     39920     39919     39921     39920     39921     39922     39923
     39922     39924     39923     39924     39925     39926     39925     39927
     39926     39927     39928     39929     39928     39930     39929     39930
     39931     39932     39931     39933     39932     39933     39934     39935
     39934     39936     39935     39936     39937     39938     39937     39939
     39938     39939     39940     39941     39940     39942     39941     39942
     39943     39944     39943     39945     39944     39945     39946     39947
     39946     39948     39947     39948     39949     39950     39949     39951
     39950     39951     39952     39953     39952     39954     39953     39954
     39955     39956     39955     39957     39956     39957     39958     39959
     39958     39960     39959     39960     39961     39962     39961     39963
     39962     39963     39964     39965     39964     39966     39965     39966
     39967     39968     39967     39969     39968     39969     39970     39971
     39970     39972     39971     39972     39973     39974     39973     39975
     39974     39975     39976     39977     39976     39978     39977     39978
     39979     39980     39979     39981     39980     39981     39982     39983
     39982     39984     39983     39984     39985     39986     39985     39987
     39986     39987     39988     39989     39988     39990     39989     39990
     39991     39992     39991     39993     39992     39993     39994     39995
     39994     39996     39995     39996     39997     39998     39997     39999
     39998     39999     40000     40001     40000     40002     40001     40002
     40003     40004     40003     40005     40004     40005     40006     40007
     40006     40008     40007     40008     40009     40010     40009     40011
     40010     40011     40012     40013     40012     40014     40013     40014
     40015     40016     40015     40017     40016     40017     40018     40019
     40018     40020     40019     40020     40021     40022     40021     40023
     40022     40023     40024     40025     40024     40026     40025     40026
     40027     40028     40027     40029     40028     40029     40030     40031
     40030     40032     40031     40032     40033     40034     40033     40035
     40034     40035     40036     40037     40036     40038     40037     40038
     40039     40040     40039     40041     40040     40041     40042     40043
     40042     40044     40043     40044     40045     40046     40045     40047
     40046     40047     40048     40049     40048     40050     40049     40050
     40051     40052     40051     40053     40052     40053     40054     40055
     40054     40056     40055     40056     40057     40058     40057     40059
     40058     40059     40060     40061     40060     40062     40061     40062
     40063     40064     40063     40065     40064     40065     40066     40067
     40066     40068     40067     40068     40069     40070     40069     40071
     40070     40071     40072     40073     40072     40074     40073     40074
     40075     40076     40075     40077     40076     40077     40078     40079
     40078     40080     40079     40080     40081     40082     40081     40083
     40082     40083     40084     40085     40084     40086     40085     40086
     40087     40088     40087     40089     40088     40089     40090     40091
     40090     40092     40091     40092     40093     40094     40093     40095
     40094     40095     40096     40097     40096     40098     40097     40098
     40099     40100     40099     40101     40100     40101     40102     40103
     40102     40104     40103     40104     40105     40106     40105     40107
     40106     40107     40108     40109     40108     40110     40109     40110
     40111     40112     40111     40113     40112     40113     40114     40115
     40114     40116     40115     40116     40117     40118     40117     40119
     40118     40119     40120     40121     40120     40122     40121     40122
     40123     40124     40123     40125     40124     40125     40126     40127
     40126     40128     40127     40128     40129     40130     40129     40131
     40130     40131     40132     40133     40132     40134     40133     40134
     40135     40136     40135     40137     40136     40137     40138     40139
     40138     40140     40139     40140     40141     40142     40141     40143
     40142     40143     40144     40145     40144     40146     40145     40146
     40147     40148     40147     40149     40148     40149     40150     40151
     40150     40152     40151     40152     40153     40154     40153     40155
     40154     40155     40156     40157     40156     40158     40157     40158
     40159     40160     40159     40161     40160     40161     40162     40163
     40162     40164     40163     40164     40165     40166     40165     40167
     40166     40167     40168     40169     40168     40170     40169     40170
     40171     40172     40171     40173     40172     40173     40174     40175
     40174     40176     40175     40176     40177     40178     40177     40179
     40178     40179     40180     40181     40180     40182     40181     40182
     40183     40184     40183     40185     40184     40185     40186     40187
     40186     40188     40187     40188     40189     40190     40189     40191
     40190     40191     40192     40193     40192     40194     40193     40194
     40195     40196     40195     40197     40196     40197     40198     40199
     40198     40200     40199     40200     40201     40202     40201     40203
     40202     40203     40204     40205     40204     40206     40205     40206
     40207     40208     40207     40209     40208     40209     40210     40211
     40210     40212     40211     40212     40213     40214     40213     40215
     40214     40215     40216     40217     40216     40218     40217     40218
     40219     40220     40219     40221     40220     40221     40222     40223
     40222     40224     40223     40224     40225     40226     40225     40227
     40226     40227     40228     40229     40228     40230     40229     40230
     40231     40232     40231     40233     40232     40233     40234     40235
     40234     40236     40235     40236     40237     40238     40237     40239
     40238     40239     40240     40241     40240     40242     40241     40242
     40243     40244     40243     40245     40244     40245     40246     40247
     40246     40248     40247     40248     40249     40250     40249     40251
     40250     40251     40252     40253     40252     40254     40253     40254
     40255     40256     40255     40257     40256     40257     40258     40259
     40258     40260     40259     40260     40261     40262     40261     40263
     40262     40263     40264     40265     40264     40266     40265     40266
     40267     40268     40267     40269     40268     40269     40270     40271
     40270     40272     40271     40272     40273     40274     40273     40275
     40274     40275     40276     40277     40276     40278     40277     40278
     40279     40280     40279     40281     40280     40281     40282     40283
     40282     40284     40283     40284     40285     40286     40285     40287
     40286     40287     40288     40289     40288     40290     40289     40290
     40291     40292     40291     40293     40292     40293     40294     40295
     40294     40296     40295     40296     40297     40298     40297     40299
     40298     40299     40300     40301     40300     40302     40301     40302
     40303     40304     40303     40305     40304     40305     40306     40307
     40306     40308     40307     40308     40309     40310     40309     40311
     40310     40311     40312     40313     40312     40314     40313     40314
     40315     40316     40315     40317     40316     40317     40318     40319
     40318     40320     40319     40320     40321     40322     40321     40323
     40322     40323     40324     40325     40324     40326     40325     40326
     40327     40328     40327     40329     40328     40329     40330     40331
     40330     40332     40331     40332     40333     40334     40333     40335
     40334     40335     40336     40337     40336     40338     40337     40338
     40339     40340     40339     40341     40340     40341     40342     40343
     40342     40344     40343     40344     40345     40346     40345     40347
     40346     40347     40348     40349     40348     40350     40349     40350
     40351     40352     40351     40353     40352     40353     40354     40355
     40354     40356     40355     40356     40357     40358     40357     40359
     40358     40359     40360     40361     40360     40362     40361     40362
     40363     40364     40363     40365     40364     40365     40366     40367
     40366     40368     40367     40368     40369     40370     40369     40371
     40370     40371     40372     40373     40372     40374     40373     40374
     40375     40376     40375     40377     40376     40377     40378     40379
     40378     40380     40379     40380     40381     40382     40381     40383
     40382     40383     40384     40385     40384     40386     40385     40386
     40387     40388     40387     40389     40388     40389     40390     40391
     40390     40392     40391     40392     40393     40394     40393     40395
     40394     40395     40396     40397     40396     40398     40397     40398
     40399     40400     40399     40401     40400     40401     40402     40403
     40402     40404     40403     40404     40405     40406     40405     40407
     40406     40407     40408     40409     40408     40410     40409     40410
     40411     40412     40411     40413     40412     40413     40414     40415
     40414     40416     40415     40416     40417     40418     40417     40419
     40418     40419     40420     40421     40420     40422     40421     40422
     40423     40424     40423     40425     40424     40425     40426     40427
     40426     40428     40427     40428     40429     40430     40429     40431
     40430     40431     40432     40433     40432     40434     40433     40434
     40435     40436     40435     40437     40436     40437     40438     40439
     40438     40440     40439     40440     40441     40442     40441     40443
     40442     40443     40444     40445     40444     40446     40445     40446
     40447     40448     40447     40449     40448     40449     40450     40451
     40450     40452     40451     40452     40453     40454     40453     40455
     40454     40455     40456     40457     40456     40458     40457     40458
     40459     40460     40459     40461     40460     40461     40462     40463
     40462     40464     40463     40464     40465     40466     40465     40467
     40466     40467     40468     40469     40468     40470     40469     40470
     40471     40472     40471     40473     40472     40473     40474     40475
     40474     40476     40475     40476     40477     40478     40477     40479
     40478     40479     40480     40481     40480     40482     40481     40482
     40483     40484     40483     40485     40484     40485     40486     40487
     40486     40488     40487     40488     40489     40490     40489     40491
     40490     40491     40492     40493     40492     40494     40493     40494
     40495     40496     40495     40497     40496     40497     40498     40499
     40498     40500     40499     40500     40501     40502     40501     40503
     40502     40503     40504     40505     40504     40506     40505     40506
     40507     40508     40507     40509     40508     40509     40510     40511
     40510     40512     40511     40512     40513     40514     40513     40515
     40514     40515     40516     40517     40516     40518     40517     40518
     40519     40520     40519     40521     40520     40521     40522     40523
     40522     40524     40523     40524     40525     40526     40525     40527
     40526     40527     40528     40529     40528     40530     40529     40530
     40531     40532     40531     40533     40532     40533     40534     40535
     40534     40536     40535     40536     40537     40538     40537     40539
     40538     40539     40540     40541     40540     40542     40541     40542
     40543     40544     40543     40545     40544     40545     40546     40547
     40546     40548     40547     40548     40549     40550     40549     40551
     40550     40551     40552     40553     40552     40554     40553     40554
     40555     40556     40555     40557     40556     40557     40558     40559
     40558     40560     40559     40560     40561     40562     40561     40563
     40562     40563     40564     40565     40564     40566     40565     40566
     40567     40568     40567     40569     40568     40569     40570     40571
     40570     40572     40571     40572     40573     40574     40573     40575
     40574     40575     40576     40577     40576     40578     40577     40578
     40579     40580     40579     40581     40580     40581     40582     40583
     40582     40584     40583     40584     40585     40586     40585     40587
     40586     40587     40588     40589     40588     40590     40589     40590
     40591     40592     40591     40593     40592     40593     40594     40595
     40594     40596     40595     40596     40597     40598     40597     40599
     40598     40599     40600     40601     40600     40602     40601     40602
     40603     40604     40603     40605     40604     40605     40606     40607
     40606     40608     40607     40608     40609     40610     40609     40611
     40610     40611     40612     40613     40612     40614     40613     40614
     40615     40616     40615     40617     40616     40617     40618     40619
     40618     40620     40619     40620     40621     40622     40621     40623
     40622     40623     40624     40625     40624     40626     40625     40626
     40627     40628     40627     40629     40628     40629     40630     40631
     40630     40632     40631     40632     40633     40634     40633     40635
     40634     40635     40636     40637     40636     40638     40637     40638
     40639     40640     40639     40641     40640     40641     40642     40643
     40642     40644     40643     40644     40645     40646     40645     40647
     40646     40647     40648     40649     40648     40650     40649     40650
     40651     40652     40651     40653     40652     40653     40654     40655
     40654     40656     40655     40656     40657     40658     40657     40659
     40658     40659     40660     40661     40660     40662     40661     40662
     40663     40664     40663     40665     40664     40665     40666     40667
     40666     40668     40667     40668     40669     40670     40669     40671
     40670     40671     40672     40673     40672     40674     40673     40674
     40675     40676     40675     40677     40676     40677     40678     40679
     40678     40680     40679     40680     40681     40682     40681     40683
     40682     40683     40684     40685     40684     40686     40685     40686
     40687     40688     40687     40689     40688     40689     40690     40691
     40690     40692     40691     40692     40693     40694     40693     40695
     40694     40695     40696     40697     40696     40698     40697     40698
     40699     40700     40699     40701     40700     40701     40702     40703
     40702     40704     40703     40704     40705     40706     40705     40707
     40706     40707     40708     40709     40708     40710     40709     40710
     40711     40712     40711     40713     40712     40713     40714     40715
     40714     40716     40715     40716     40717     40718     40717     40719
     40718     40719     40720     40721     40720     40722     40721     40722
     40723     40724     40723     40725     40724     40725     40726     40727
     40726     40728     40727     40728     40729     40730     40729     40731
     40730     40731     40732     40733     40732     40734     40733     40734
     40735     40736     40735     40737     40736     40737     40738     40739
     40738     40740     40739     40740     40741     40742     40741     40743
     40742     40743     40744     40745     40744     40746     40745     40746
     40747     40748     40747     40749     40748     40749     40750     40751
     40750     40752     40751     40752     40753     40754     40753     40755
     40754     40755     40756     40757     40756     40758     40757     40758
     40759     40760     40759     40761     40760     40761     40762     40763
     40762     40764     40763     40764     40765     40766     40765     40767
     40766     40767     40768     40769     40768     40770     40769     40770
     40771     40772     40771     40773     40772     40773     40774     40775
     40774     40776     40775     40776     40777     40778     40777     40779
     40778     40779     40780     40781     40780     40782     40781     40782
     40783     40784     40783     40785     40784     40785     40786     40787
     40786     40788     40787     40788     40789     40790     40789     40791
     40790     40791     40792     40793     40792     40794     40793     40794
     40795     40796     40795     40797     40796     40797     40798     40799
     40798     40800     40799     40800     40801     40802     40801     40803
     40802     40803     40804     40805     40804     40806     40805     40806
     40807     40808     40807     40809     40808     40809     40810     40811
     40810     40812     40811     40812     40813     40814     40813     40815
     40814     40815     40816     40817     40816     40818     40817     40818
     40819     40820     40819     40821     40820     40821     40822     40823
     40822     40824     40823     40824     40825     40826     40825     40827
     40826     40827     40828     40829     40828     40830     40829     40830
     40831     40832     40831     40833     40832     40833     40834     40835
     40834     40836     40835     40836     40837     40838     40837     40839
     40838     40839     40840     40841     40840     40842     40841     40842
     40843     40844     40843     40845     40844     40845     40846     40847
     40846     40848     40847     40848     40849     40850     40849     40851
     40850     40851     40852     40853     40852     40854     40853     40854
     40855     40856     40855     40857     40856     40857     40858     40859
     40858     40860     40859     40860     40861     40862     40861     40863
     40862     40863     40864     40865     40864     40866     40865     40866
     40867     40868     40867     40869     40868     40869     40870     40871
     40870     40872     40871     40872     40873     40874     40873     40875
     40874     40875     40876     40877     40876     40878     40877     40878
     40879     40880     40879     40881     40880     40881     40882     40883
     40882     40884     40883     40884     40885     40886     40885     40887
     40886     40887     40888     40889     40888     40890     40889     40890
     40891     40892     40891     40893     40892     40893     40894     40895
     40894     40896     40895     40896     40897     40898     40897     40899
     40898     40899     40900     40901     40900     40902     40901     40902
     40903     40904     40903     40905     40904     40905     40906     40907
     40906     40908     40907     40908     40909     40910     40909     40911
     40910     40911     40912     40913     40912     40914     40913     40914
     40915     40916     40915     40917     40916     40917     40918     40919
     40918     40920     40919     40920     40921     40922     40921     40923
     40922     40923     40924     40925     40924     40926     40925     40926
     40927     40928     40927     40929     40928     40929     40930     40931
     40930     40932     40931     40932     40933     40934     40933     40935
     40934     40935     40936     40937     40936     40938     40937     40938
     40939     40940     40939     40941     40940     40941     40942     40943
     40942     40944     40943     40944     40945     40946     40945     40947
     40946     40947     40948     40949     40948     40950     40949     40950
     40951     40952     40951     40953     40952     40953     40954     40955
     40954     40956     40955     40956     40957     40958     40957     40959
     40958     40959     40960     40961     40960     40962     40961     40962
     40963     40964     40963     40965     40964     40965     40966     40967
     40966     40968     40967     40968     40969     40970     40969     40971
     40970     40971     40972     40973     40972     40974     40973     40974
     40975     40976     40975     40977     40976     40977     40978     40979
     40978     40980     40979     40980     40981     40982     40981     40983
     40982     40983     40984     40985     40984     40986     40985     40986
     40987     40988     40987     40989     40988     40989     40990     40991
     40990     40992     40991     40992     40993     40994     40993     40995
     40994     40995     40996     40997     40996     40998     40997     40998
     40999     41000     40999     41001     41000     41001     41002     41003
     41002     41004     41003     41004     41005     41006     41005     41007
     41006     41007     41008     41009     41008     41010     41009     41010
     41011     41012     41011     41013     41012     41013     41014     41015
     41014     41016     41015     41016     41017     41018     41017     41019
     41018     41019     41020     41021     41020     41022     41021     41022
     41023     41024     41023     41025     41024     41025     41026     41027
     41026     41028     41027     41028     41029     41030     41029     41031
     41030     41031     41032     41033     41032     41034     41033     41034
     41035     41036     41035     41037     41036     41037     41038     41039
     41038     41040     41039     41040     41041     41042     41041     41043
     41042     41043     41044     41045     41044     41046     41045     41046
     41047     41048     41047     41049     41048     41049     41050     41051
     41050     41052     41051     41052     41053     41054     41053     41055
     41054     41055     41056     41057     41056     41058     41057     41058
     41059     41060     41059     41061     41060     41061     41062     41063
     41062     41064     41063     41064     41065     41066     41065     41067
     41066     41067     41068     41069     41068     41070     41069     41070
     41071     41072     41071     41073     41072     41073     41074     41075
     41074     41076     41075     41076     41077     41078     41077     41079
     41078     41079     41080     41081     41080     41082     41081     41082
     41083     41084     41083     41085     41084     41085     41086     41087
     41086     41088     41087     41088     41089     41090     41089     41091
     41090     41091     41092     41093     41092     41094     41093     41094
     41095     41096     41095     41097     41096     41097     41098     41099
     41098     41100     41099     41100     41101     41102     41101     41103
     41102     41103     41104     41105     41104     41106     41105     41106
     41107     41108     41107     41109     41108     41109     41110     41111
     41110     41112     41111     41112     41113     41114     41113     41115
     41114     41115     41116     41117     41116     41118     41117     41118
     41119     41120     41119     41121     41120     41121     41122     41123
     41122     41124     41123     41124     41125     41126     41125     41127
     41126     41127     41128     41129     41128     41130     41129     41130
     41131     41132     41131     41133     41132     41133     41134     41135
     41134     41136     41135     41136     41137     41138     41137     41139
     41138     41139     41140     41141     41140     41142     41141     41142
     41143     41144     41143     41145     41144     41145     41146     41147
     41146     41148     41147     41148     41149     41150     41149     41151
     41150     41151     41152     41153     41152     41154     41153     41154
     41155     41156     41155     41157     41156     41157     41158     41159
     41158     41160     41159     41160     41161     41162     41161     41163
     41162     41163     41164     41165     41164     41166     41165     41166
     41167     41168     41167     41169     41168     41169     41170     41171
     41170     41172     41171     41172     41173     41174     41173     41175
     41174     41175     41176     41177     41176     41178     41177     41178
     41179     41180     41179     41181     41180     41181     41182     41183
     41182     41184     41183     41184     41185     41186     41185     41187
     41186     41187     41188     41189     41188     41190     41189     41190
     41191     41192     41191     41193     41192     41193     41194     41195
     41194     41196     41195     41196     41197     41198     41197     41199
     41198     41199     41200     41201     41200     41202     41201     41202
     41203     41204     41203     41205     41204     41205     41206     41207
     41206     41208     41207     41208     41209     41210     41209     41211
     41210     41211     41212     41213     41212     41214     41213     41214
     41215     41216     41215     41217     41216     41217     41218     41219
     41218     41220     41219     41220     41221     41222     41221     41223
     41222     41223     41224     41225     41224     41226     41225     41226
     41227     41228     41227     41229     41228     41229     41230     41231
     41230     41232     41231     41232     41233     41234     41233     41235
     41234     41235     41236     41237     41236     41238     41237     41238
     41239     41240     41239     41241     41240     41241     41242     41243
     41242     41244     41243     41244     41245     41246     41245     41247
     41246     41247     41248     41249     41248     41250     41249     41250
     41251     41252     41251     41253     41252     41253     41254     41255
     41254     41256     41255     41256     41257     41258     41257     41259
     41258     41259     41260     41261     41260     41262     41261     41262
     41263     41264     41263     41265     41264     41265     41266     41267
     41266     41268     41267     41268     41269     41270     41269     41271
     41270     41271     41272     41273     41272     41274     41273     41274
     41275     41276     41275     41277     41276     41277     41278     41279
     41278     41280     41279     41280     41281     41282     41281     41283
     41282     41283     41284     41285     41284     41286     41285     41286
     41287     41288     41287     41289     41288     41289     41290     41291
     41290     41292     41291     41292     41293     41294     41293     41295
     41294     41295     41296     41297     41296     41298     41297     41298
     41299     41300     41299     41301     41300     41301     41302     41303
     41302     41304     41303     41304     41305     41306     41305     41307
     41306     41307     41308     41309     41308     41310     41309     41310
     41311     41312     41311     41313     41312     41313     41314     41315
     41314     41316     41315     41316     41317     41318     41317     41319
     41318     41319     41320     41321     41320     41322     41321     41322
     41323     41324     41323     41325     41324     41325     41326     41327
     41326     41328     41327     41328     41329     41330     41329     41331
     41330     41331     41332     41333     41332     41334     41333     41334
     41335     41336     41335     41337     41336     41337     41338     41339
     41338     41340     41339     41340     41341     41342     41341     41343
     41342     41343     41344     41345     41344     41346     41345     41346
     41347     41348     41347     41349     41348     41349     41350     41351
     41350     41352     41351     41352     41353     41354     41353     41355
     41354     41355     41356     41357     41356     41358     41357     41358
     41359     41360     41359     41361     41360     41361     41362     41363
     41362     41364     41363     41364     41365     41366     41365     41367
     41366     41367     41368     41369     41368     41370     41369     41370
     41371     41372     41371     41373     41372     41373     41374     41375
     41374     41376     41375     41376     41377     41378     41377     41379
     41378     41379     41380     41381     41380     41382     41381     41382
     41383     41384     41383     41385     41384     41385     41386     41387
     41386     41388     41387     41388     41389     41390     41389     41391
     41390     41391     41392     41393     41392     41394     41393     41394
     41395     41396     41395     41397     41396     41397     41398     41399
     41398     41400     41399     41400     41401     41402     41401     41403
     41402     41403     41404     41405     41404     41406     41405     41406
     41407     41408     41407     41409     41408     41409     41410     41411
     41410     41412     41411     41412     41413     41414     41413     41415
     41414     41415     41416     41417     41416     41418     41417     41418
     41419     41420     41419     41421     41420     41421     41422     41423
     41422     41424     41423     41424     41425     41426     41425     41427
     41426     41427     41428     41429     41428     41430     41429     41430
     41431     41432     41431     41433     41432     41433     41434     41435
     41434     41436     41435     41436     41437     41438     41437     41439
     41438     41439     41440     41441     41440     41442     41441     41442
     41443     41444     41443     41445     41444     41445     41446     41447
     41446     41448     41447     41448     41449     41450     41449     41451
     41450     41451     41452     41453     41452     41454     41453     41454
     41455     41456     41455     41457     41456     41457     41458     41459
     41458     41460     41459     41460     41461     41462     41461     41463
     41462     41463     41464     41465     41464     41466     41465     41466
     41467     41468     41467     41469     41468     41469     41470     41471
     41470     41472     41471     41472     41473     41474     41473     41475
     41474     41475     41476     41477     41476     41478     41477     41478
     41479     41480     41479     41481     41480     41481     41482     41483
     41482     41484     41483     41484     41485     41486     41485     41487
     41486     41487     41488     41489     41488     41490     41489     41490
     41491     41492     41491     41493     41492     41493     41494     41495
     41494     41496     41495     41496     41497     41498     41497     41499
     41498     41499     41500     41501     41500     41502     41501     41502
     41503     41504     41503     41505     41504     41505     41506     41507
     41506     41508     41507     41508     41509     41510     41509     41511
     41510     41511     41512     41513     41512     41514     41513     41514
     41515     41516     41515     41517     41516     41517     41518     41519
     41518     41520     41519     41520     41521     41522     41521     41523
     41522     41523     41524     41525     41524     41526     41525     41526
     41527     41528     41527     41529     41528     41529     41530     41531
     41530     41532     41531     41532     41533     41534     41533     41535
     41534     41535     41536     41537     41536     41538     41537     41538
     41539     41540     41539     41541     41540     41541     41542     41543
     41542     41544     41543     41544     41545     41546     41545     41547
     41546     41547     41548     41549     41548     41550     41549     41550
     41551     41552     41551     41553     41552     41553     41554     41555
     41554     41556     41555     41556     41557     41558     41557     41559
     41558     41559     41560     41561     41560     41562     41561     41562
     41563     41564     41563     41565     41564     41565     41566     41567
     41566     41568     41567     41568     41569     41570     41569     41571
     41570     41571     41572     41573     41572     41574     41573     41574
     41575     41576     41575     41577     41576     41577     41578     41579
     41578     41580     41579     41580     41581     41582     41581     41583
     41582     41583     41584     41585     41584     41586     41585     41586
     41587     41588     41587     41589     41588     41589     41590     41591
     41590     41592     41591     41592     41593     41594     41593     41595
     41594     41595     41596     41597     41596     41598     41597     41598
     41599     41600     41599     41601     41600     41601     41602     41603
     41602     41604     41603     41604     41605     41606     41605     41607
     41606     41607     41608     41609     41608     41610     41609     41610
     41611     41612     41611     41613     41612     41613     41614     41615
     41614     41616     41615     41616     41617     41618     41617     41619
     41618     41619     41620     41621     41620     41622     41621     41622
     41623     41624     41623     41625     41624     41625     41626     41627
     41626     41628     41627     41628     41629     41630     41629     41631
     41630     41631     41632     41633     41632     41634     41633     41634
     41635     41636     41635     41637     41636     41637     41638     41639
     41638     41640     41639     41640     41641     41642     41641     41643
     41642     41643     41644     41645     41644     41646     41645     41646
     41647     41648     41647     41649     41648     41649     41650     41651
     41650     41652     41651     41652     41653     41654     41653     41655
     41654     41655     41656     41657     41656     41658     41657     41658
     41659     41660     41659     41661     41660     41661     41662     41663
     41662     41664     41663     41664     41665     41666     41665     41667
     41666     41667     41668     41669     41668     41670     41669     41670
     41671     41672     41671     41673     41672     41673     41674     41675
     41674     41676     41675     41676     41677     41678     41677     41679
     41678     41679     41680     41681     41680     41682     41681     41682
     41683     41684     41683     41685     41684     41685     41686     41687
     41686     41688     41687     41688     41689     41690     41689     41691
     41690     41691     41692     41693     41692     41694     41693     41694
     41695     41696     41695     41697     41696     41697     41698     41699
     41698     41700     41699     41700     41701     41702     41701     41703
     41702     41703     41704     41705     41704     41706     41705     41706
     41707     41708     41707     41709     41708     41709     41710     41711
     41710     41712     41711     41712     41713     41714     41713     41715
     41714     41715     41716     41717     41716     41718     41717     41718
     41719     41720     41719     41721     41720     41721     41722     41723
     41722     41724     41723     41724     41725     41726     41725     41727
     41726     41727     41728     41729     41728     41730     41729     41730
     41731     41732     41731     41733     41732     41733     41734     41735
     41734     41736     41735     41736     41737     41738     41737     41739
     41738     41739     41740     41741     41740     41742     41741     41742
     41743     41744     41743     41745     41744     41745     41746     41747
     41746     41748     41747     41748     41749     41750     41749     41751
     41750     41751     41752     41753     41752     41754     41753     41754
     41755     41756     41755     41757     41756     41757     41758     41759
     41758     41760     41759     41760     41761     41762     41761     41763
     41762     41763     41764     41765     41764     41766     41765     41766
     41767     41768     41767     41769     41768     41769     41770     41771
     41770     41772     41771     41772     41773     41774     41773     41775
     41774     41775     41776     41777     41776     41778     41777     41778
     41779     41780     41779     41781     41780     41781     41782     41783
     41782     41784     41783     41784     41785     41786     41785     41787
     41786     41787     41788     41789     41788     41790     41789     41790
     41791     41792     41791     41793     41792     41793     41794     41795
     41794     41796     41795     41796     41797     41798     41797     41799
     41798     41799     41800     41801     41800     41802     41801     41802
     41803     41804     41803     41805     41804     41805     41806     41807
     41806     41808     41807     41808     41809     41810     41809     41811
     41810     41811     41812     41813     41812     41814     41813     41814
     41815     41816     41815     41817     41816     41817     41818     41819
     41818     41820     41819     41820     41821     41822     41821     41823
     41822     41823     41824     41825     41824     41826     41825     41826
     41827     41828     41827     41829     41828     41829     41830     41831
     41830     41832     41831     41832     41833     41834     41833     41835
     41834     41835     41836     41837     41836     41838     41837     41838
     41839     41840     41839     41841     41840     41841     41842     41843
     41842     41844     41843     41844     41845     41846     41845     41847
     41846     41847     41848     41849     41848     41850     41849     41850
     41851     41852     41851     41853     41852     41853     41854     41855
     41854     41856     41855     41856     41857     41858     41857     41859
     41858     41859     41860     41861     41860     41862     41861     41862
     41863     41864     41863     41865     41864     41865     41866     41867
     41866     41868     41867     41868     41869     41870     41869     41871
     41870     41871     41872     41873     41872     41874     41873     41874
     41875     41876     41875     41877     41876     41877     41878     41879
     41878     41880     41879     41880     41881     41882     41881     41883
     41882     41883     41884     41885     41884     41886     41885     41886
     41887     41888     41887     41889     41888     41889     41890     41891
     41890     41892     41891     41892     41893     41894     41893     41895
     41894     41895     41896     41897     41896     41898     41897     41898
     41899     41900     41899     41901     41900     41901     41902     41903
     41902     41904     41903     41904     41905     41906     41905     41907
     41906     41907     41908     41909     41908     41910     41909     41910
     41911     41912     41911     41913     41912     41913     41914     41915
     41914     41916     41915     41916     41917     41918     41917     41919
     41918     41919     41920     41921     41920     41922     41921     41922
     41923     41924     41923     41925     41924     41925     41926     41927
     41926     41928     41927     41928     41929     41930     41929     41931
     41930     41931     41932     41933     41932     41934     41933     41934
     41935     41936     41935     41937     41936     41937     41938     41939
     41938     41940     41939     41940     41941     41942     41941     41943
     41942     41943     41944     41945     41944     41946     41945     41946
     41947     41948     41947     41949     41948     41949     41950     41951
     41950     41952     41951     41952     41953     41954     41953     41955
     41954     41955     41956     41957     41956     41958     41957     41958
     41959     41960     41959     41961     41960     41961     41962     41963
     41962     41964     41963     41964     41965     41966     41965     41967
     41966     41967     41968     41969     41968     41970     41969     41970
     41971     41972     41971     41973     41972     41973     41974     41975
     41974     41976     41975     41976     41977     41978     41977     41979
     41978     41979     41980     41981     41980     41982     41981     41982
     41983     41984     41983     41985     41984     41985     41986     41987
     41986     41988     41987     41988     41989     41990     41989     41991
     41990     41991     41992     41993     41992     41994     41993     41994
     41995     41996     41995     41997     41996     41997     41998     41999
     41998     42000     41999     42000     42001     42002     42001     42003
     42002     42003     42004     42005     42004     42006     42005     42006
     42007     42008     42007     42009     42008     42009     42010     42011
     42010     42012     42011     42012     42013     42014     42013     42015
     42014     42015     42016     42017     42016     42018     42017     42018
     42019     42020     42019     42021     42020     42021     42022     42023
     42022     42024     42023     42024     42025     42026     42025     42027
     42026     42027     42028     42029     42028     42030     42029     42030
     42031     42032     42031     42033     42032     42033     42034     42035
     42034     42036     42035     42036     42037     42038     42037     42039
     42038     42039     42040     42041     42040     42042     42041     42042
     42043     42044     42043     42045     42044     42045     42046     42047
     42046     42048     42047     42048     42049     42050     42049     42051
     42050     42051     42052     42053     42052     42054     42053     42054
     42055     42056     42055     42057     42056     42057     42058     42059
     42058     42060     42059     42060     42061     42062     42061     42063
     42062     42063     42064     42065     42064     42066     42065     42066
     42067     42068     42067     42069     42068     42069     42070     42071
     42070     42072     42071     42072     42073     42074     42073     42075
     42074     42075     42076     42077     42076     42078     42077     42078
     42079     42080     42079     42081     42080     42081     42082     42083
     42082     42084     42083     42084     42085     42086     42085     42087
     42086     42087     42088     42089     42088     42090     42089     42090
     42091     42092     42091     42093     42092     42093     42094     42095
     42094     42096     42095     42096     42097     42098     42097     42099
     42098     42099     42100     42101     42100     42102     42101     42102
     42103     42104     42103     42105     42104     42105     42106     42107
     42106     42108     42107     42108     42109     42110     42109     42111
     42110     42111     42112     42113     42112     42114     42113     42114
     42115     42116     42115     42117     42116     42117     42118     42119
     42118     42120     42119     42120     42121     42122     42121     42123
     42122     42123     42124     42125     42124     42126     42125     42126
     42127     42128     42127     42129     42128     42129     42130     42131
     42130     42132     42131     42132     42133     42134     42133     42135
     42134     42135     42136     42137     42136     42138     42137     42138
     42139     42140     42139     42141     42140     42141     42142     42143
     42142     42144     42143     42144     42145     42146     42145     42147
     42146     42147     42148     42149     42148     42150     42149     42150
     42151     42152     42151     42153     42152     42153     42154     42155
     42154     42156     42155     42156     42157     42158     42157     42159
     42158     42159     42160     42161     42160     42162     42161     42162
     42163     42164     42163     42165     42164     42165     42166     42167
     42166     42168     42167     42168     42169     42170     42169     42171
     42170     42171     42172     42173     42172     42174     42173     42174
     42175     42176     42175     42177     42176     42177     42178     42179
     42178     42180     42179     42180     42181     42182     42181     42183
     42182     42183     42184     42185     42184     42186     42185     42186
     42187     42188     42187     42189     42188     42189     42190     42191
     42190     42192     42191     42192     42193     42194     42193     42195
     42194     42195     42196     42197     42196     42198     42197     42198
     42199     42200     42199     42201     42200     42201     42202     42203
     42202     42204     42203     42204     42205     42206     42205     42207
     42206     42207     42208     42209     42208     42210     42209     42210
     42211     42212     42211     42213     42212     42213     42214     42215
     42214     42216     42215     42216     42217     42218     42217     42219
     42218     42219     42220     42221     42220     42222     42221     42222
     42223     42224     42223     42225     42224     42225     42226     42227
     42226     42228     42227     42228     42229     42230     42229     42231
     42230     42231     42232     42233     42232     42234     42233     42234
     42235     42236     42235     42237     42236     42237     42238     42239
     42238     42240     42239     42240     42241     42242     42241     42243
     42242     42243     42244     42245     42244     42246     42245     42246
     42247     42248     42247     42249     42248     42249     42250     42251
     42250     42252     42251     42252     42253     42254     42253     42255
     42254     42255     42256     42257     42256     42258     42257     42258
     42259     42260     42259     42261     42260     42261     42262     42263
     42262     42264     42263     42264     42265     42266     42265     42267
     42266     42267     42268     42269     42268     42270     42269     42270
     42271     42272     42271     42273     42272     42273     42274     42275
     42274     42276     42275     42276     42277     42278     42277     42279
     42278     42279     42280     42281     42280     42282     42281     42282
     42283     42284     42283     42285     42284     42285     42286     42287
     42286     42288     42287     42288     42289     42290     42289     42291
     42290     42291     42292     42293     42292     42294     42293     42294
     42295     42296     42295     42297     42296     42297     42298     42299
     42298     42300     42299     42300     42301     42302     42301     42303
     42302     42303     42304     42305     42304     42306     42305     42306
     42307     42308     42307     42309     42308     42309     42310     42311
     42310     42312     42311     42312     42313     42314     42313     42315
     42314     42315     42316     42317     42316     42318     42317     42318
     42319     42320     42319     42321     42320     42321     42322     42323
     42322     42324     42323     42324     42325     42326     42325     42327
     42326     42327     42328     42329     42328     42330     42329     42330
     42331     42332     42331     42333     42332     42333     42334     42335
     42334     42336     42335     42336     42337     42338     42337     42339
     42338     42339     42340     42341     42340     42342     42341     42342
     42343     42344     42343     42345     42344     42345     42346     42347
     42346     42348     42347     42348     42349     42350     42349     42351
     42350     42351     42352     42353     42352     42354     42353     42354
     42355     42356     42355     42357     42356     42357     42358     42359
     42358     42360     42359     42360     42361     42362     42361     42363
     42362     42363     42364     42365     42364     42366     42365     42366
     42367     42368     42367     42369     42368     42369     42370     42371
     42370     42372     42371     42372     42373     42374     42373     42375
     42374     42375     42376     42377     42376     42378     42377     42378
     42379     42380     42379     42381     42380     42381     42382     42383
     42382     42384     42383     42384     42385     42386     42385     42387
     42386     42387     42388     42389     42388     42390     42389     42390
     42391     42392     42391     42393     42392     42393     42394     42395
     42394     42396     42395     42396     42397     42398     42397     42399
     42398     42399     42400     42401     42400     42402     42401     42402
     42403     42404     42403     42405     42404     42405     42406     42407
     42406     42408     42407     42408     42409     42410     42409     42411
     42410     42411     42412     42413     42412     42414     42413     42414
     42415     42416     42415     42417     42416     42417     42418     42419
     42418     42420     42419     42420     42421     42422     42421     42423
     42422     42423     42424     42425     42424     42426     42425     42426
     42427     42428     42427     42429     42428     42429     42430     42431
     42430     42432     42431     42432     42433     42434     42433     42435
     42434     42435     42436     42437     42436     42438     42437     42438
     42439     42440     42439     42441     42440     42441     42442     42443
     42442     42444     42443     42444     42445     42446     42445     42447
     42446     42447     42448     42449     42448     42450     42449     42450
     42451     42452     42451     42453     42452     42453     42454     42455
     42454     42456     42455     42456     42457     42458     42457     42459
     42458     42459     42460     42461     42460     42462     42461     42462
     42463     42464     42463     42465     42464     42465     42466     42467
     42466     42468     42467     42468     42469     42470     42469     42471
     42470     42471     42472     42473     42472     42474     42473     42474
     42475     42476     42475     42477     42476     42477     42478     42479
     42478     42480     42479     42480     42481     42482     42481     42483
     42482     42483     42484     42485     42484     42486     42485     42486
     42487     42488     42487     42489     42488     42489     42490     42491
     42490     42492     42491     42492     42493     42494     42493     42495
     42494     42495     42496     42497     42496     42498     42497     42498
     42499     42500     42499     42501     42500     42501     42502     42503
     42502     42504     42503     42504     42505     42506     42505     42507
     42506     42507     42508     42509     42508     42510     42509     42510
     42511     42512     42511     42513     42512     42513     42514     42515
     42514     42516     42515     42516     42517     42518     42517     42519
     42518     42519     42520     42521     42520     42522     42521     42522
     42523     42524     42523     42525     42524     42525     42526     42527
     42526     42528     42527     42528     42529     42530     42529     42531
     42530     42531     42532     42533     42532     42534     42533     42534
     42535     42536     42535     42537     42536     42537     42538     42539
     42538     42540     42539     42540     42541     42542     42541     42543
     42542     42543     42544     42545     42544     42546     42545     42546
     42547     42548     42547     42549     42548     42549     42550     42551
     42550     42552     42551     42552     42553     42554     42553     42555
     42554     42555     42556     42557     42556     42558     42557     42558
     42559     42560     42559     42561     42560     42561     42562     42563
     42562     42564     42563     42564     42565     42566     42565     42567
     42566     42567     42568     42569     42568     42570     42569     42570
     42571     42572     42571     42573     42572     42573     42574     42575
     42574     42576     42575     42576     42577     42578     42577     42579
     42578     42579     42580     42581     42580     42582     42581     42582
     42583     42584     42583     42585     42584     42585     42586     42587
     42586     42588     42587     42588     42589     42590     42589     42591
     42590     42591     42592     42593     42592     42594     42593     42594
     42595     42596     42595     42597     42596     42597     42598     42599
     42598     42600     42599     42600     42601     42602     42601     42603
     42602     42603     42604     42605     42604     42606     42605     42606
     42607     42608     42607     42609     42608     42609     42610     42611
     42610     42612     42611     42612     42613     42614     42613     42615
     42614     42615     42616     42617     42616     42618     42617     42618
     42619     42620     42619     42621     42620     42621     42622     42623
     42622     42624     42623     42624     42625     42626     42625     42627
     42626     42627     42628     42629     42628     42630     42629     42630
     42631     42632     42631     42633     42632     42633     42634     42635
     42634     42636     42635     42636     42637     42638     42637     42639
     42638     42639     42640     42641     42640     42642     42641     42642
     42643     42644     42643     42645     42644     42645     42646     42647
     42646     42648     42647     42648     42649     42650     42649     42651
     42650     42651     42652     42653     42652     42654     42653     42654
     42655     42656     42655     42657     42656     42657     42658     42659
     42658     42660     42659     42660     42661     42662     42661     42663
     42662     42663     42664     42665     42664     42666     42665     42666
     42667     42668     42667     42669     42668     42669     42670     42671
     42670     42672     42671     42672     42673     42674     42673     42675
     42674     42675     42676     42677     42676     42678     42677     42678
     42679     42680     42679     42681     42680     42681     42682     42683
     42682     42684     42683     42684     42685     42686     42685     42687
     42686     42687     42688     42689     42688     42690     42689     42690
     42691     42692     42691     42693     42692     42693     42694     42695
     42694     42696     42695     42696     42697     42698     42697     42699
     42698     42699     42700     42701     42700     42702     42701     42702
     42703     42704     42703     42705     42704     42705     42706     42707
     42706     42708     42707     42708     42709     42710     42709     42711
     42710     42711     42712     42713     42712     42714     42713     42714
     42715     42716     42715     42717     42716     42717     42718     42719
     42718     42720     42719     42720     42721     42722     42721     42723
     42722     42723     42724     42725     42724     42726     42725     42726
     42727     42728     42727     42729     42728     42729     42730     42731
     42730     42732     42731     42732     42733     42734     42733     42735
     42734     42735     42736     42737     42736     42738     42737     42738
     42739     42740     42739     42741     42740     42741     42742     42743
     42742     42744     42743     42744     42745     42746     42745     42747
     42746     42747     42748     42749     42748     42750     42749     42750
     42751     42752     42751     42753     42752     42753     42754     42755
     42754     42756     42755     42756     42757     42758     42757     42759
     42758     42759     42760     42761     42760     42762     42761     42762
     42763     42764     42763     42765     42764     42765     42766     42767
     42766     42768     42767     42768     42769     42770     42769     42771
     42770     42771     42772     42773     42772     42774     42773     42774
     42775     42776     42775     42777     42776     42777     42778     42779
     42778     42780     42779     42780     42781     42782     42781     42783
     42782     42783     42784     42785     42784     42786     42785     42786
     42787     42788     42787     42789     42788     42789     42790     42791
     42790     42792     42791     42792     42793     42794     42793     42795
     42794     42795     42796     42797     42796     42798     42797     42798
     42799     42800     42799     42801     42800     42801     42802     42803
     42802     42804     42803     42804     42805     42806     42805     42807
     42806     42807     42808     42809     42808     42810     42809     42810
     42811     42812     42811     42813     42812     42813     42814     42815
     42814     42816     42815     42816     42817     42818     42817     42819
     42818     42819     42820     42821     42820     42822     42821     42822
     42823     42824     42823     42825     42824     42825     42826     42827
     42826     42828     42827     42828     42829     42830     42829     42831
     42830     42831     42832     42833     42832     42834     42833     42834
     42835     42836     42835     42837     42836     42837     42838     42839
     42838     42840     42839     42840     42841     42842     42841     42843
     42842     42843     42844     42845     42844     42846     42845     42846
     42847     42848     42847     42849     42848     42849     42850     42851
     42850     42852     42851     42852     42853     42854     42853     42855
     42854     42855     42856     42857     42856     42858     42857     42858
     42859     42860     42859     42861     42860     42861     42862     42863
     42862     42864     42863     42864     42865     42866     42865     42867
     42866     42867     42868     42869     42868     42870     42869     42870
     42871     42872     42871     42873     42872     42873     42874     42875
     42874     42876     42875     42876     42877     42878     42877     42879
     42878     42879     42880     42881     42880     42882     42881     42882
     42883     42884     42883     42885     42884     42885     42886     42887
     42886     42888     42887     42888     42889     42890     42889     42891
     42890     42891     42892     42893     42892     42894     42893     42894
     42895     42896     42895     42897     42896     42897     42898     42899
     42898     42900     42899     42900     42901     42902     42901     42903
     42902     42903     42904     42905     42904     42906     42905     42906
     42907     42908     42907     42909     42908     42909     42910     42911
     42910     42912     42911     42912     42913     42914     42913     42915
     42914     42915     42916     42917     42916     42918     42917     42918
     42919     42920     42919     42921     42920     42921     42922     42923
     42922     42924     42923     42924     42925     42926     42925     42927
     42926     42927     42928     42929     42928     42930     42929     42930
     42931     42932     42931     42933     42932     42933     42934     42935
     42934     42936     42935     42936     42937     42938     42937     42939
     42938     42939     42940     42941     42940     42942     42941     42942
     42943     42944     42943     42945     42944     42945     42946     42947
     42946     42948     42947     42948     42949     42950     42949     42951
     42950     42951     42952     42953     42952     42954     42953     42954
     42955     42956     42955     42957     42956     42957     42958     42959
     42958     42960     42959     42960     42961     42962     42961     42963
     42962     42963     42964     42965     42964     42966     42965     42966
     42967     42968     42967     42969     42968     42969     42970     42971
     42970     42972     42971     42972     42973     42974     42973     42975
     42974     42975     42976     42977     42976     42978     42977     42978
     42979     42980     42979     42981     42980     42981     42982     42983
     42982     42984     42983     42984     42985     42986     42985     42987
     42986     42987     42988     42989     42988     42990     42989     42990
     42991     42992     42991     42993     42992     42993     42994     42995
     42994     42996     42995     42996     42997     42998     42997     42999
     42998     42999     43000     43001     43000     43002     43001     43002
     43003     43004     43003     43005     43004     43005     43006     43007
     43006     43008     43007     43008     43009     43010     43009     43011
     43010     43011     43012     43013     43012     43014     43013     43014
     43015     43016     43015     43017     43016     43017     43018     43019
     43018     43020     43019     43020     43021     43022     43021     43023
     43022     43023     43024     43025     43024     43026     43025     43026
     43027     43028     43027     43029     43028     43029     43030     43031
     43030     43032     43031     43032     43033     43034     43033     43035
     43034     43035     43036     43037     43036     43038     43037     43038
     43039     43040     43039     43041     43040     43041     43042     43043
     43042     43044     43043     43044     43045     43046     43045     43047
     43046     43047     43048     43049     43048     43050     43049     43050
     43051     43052     43051     43053     43052     43053     43054     43055
     43054     43056     43055     43056     43057     43058     43057     43059
     43058     43059     43060     43061     43060     43062     43061     43062
     43063     43064     43063     43065     43064     43065     43066     43067
     43066     43068     43067     43068     43069     43070     43069     43071
     43070     43071     43072     43073     43072     43074     43073     43074
     43075     43076     43075     43077     43076     43077     43078     43079
     43078     43080     43079     43080     43081     43082     43081     43083
     43082     43083     43084     43085     43084     43086     43085     43086
     43087     43088     43087     43089     43088     43089     43090     43091
     43090     43092     43091     43092     43093     43094     43093     43095
     43094     43095     43096     43097     43096     43098     43097     43098
     43099     43100     43099     43101     43100     43101     43102     43103
     43102     43104     43103     43104     43105     43106     43105     43107
     43106     43107     43108     43109     43108     43110     43109     43110
     43111     43112     43111     43113     43112     43113     43114     43115
     43114     43116     43115     43116     43117     43118     43117     43119
     43118     43119     43120     43121     43120     43122     43121     43122
     43123     43124     43123     43125     43124     43125     43126     43127
     43126     43128     43127     43128     43129     43130     43129     43131
     43130     43131     43132     43133     43132     43134     43133     43134
     43135     43136     43135     43137     43136     43137     43138     43139
     43138     43140     43139     43140     43141     43142     43141     43143
     43142     43143     43144     43145     43144     43146     43145     43146
     43147     43148     43147     43149     43148     43149     43150     43151
     43150     43152     43151     43152     43153     43154     43153     43155
     43154     43155     43156     43157     43156     43158     43157     43158
     43159     43160     43159     43161     43160     43161     43162     43163
     43162     43164     43163     43164     43165     43166     43165     43167
     43166     43167     43168     43169     43168     43170     43169     43170
     43171     43172     43171     43173     43172     43173     43174     43175
     43174     43176     43175     43176     43177     43178     43177     43179
     43178     43179     43180     43181     43180     43182     43181     43182
     43183     43184     43183     43185     43184     43185     43186     43187
     43186     43188     43187     43188     43189     43190     43189     43191
     43190     43191     43192     43193     43192     43194     43193     43194
     43195     43196     43195     43197     43196     43197     43198     43199
     43198     43200     43199     43200     43201     43202     43201     43203
     43202     43203     43204     43205     43204     43206     43205     43206
     43207     43208     43207     43209     43208     43209     43210     43211
     43210     43212     43211     43212     43213     43214     43213     43215
     43214     43215     43216     43217     43216     43218     43217     43218
     43219     43220     43219     43221     43220     43221     43222     43223
     43222     43224     43223     43224     43225     43226     43225     43227
     43226     43227     43228     43229     43228     43230     43229     43230
     43231     43232     43231     43233     43232     43233     43234     43235
     43234     43236     43235     43236     43237     43238     43237     43239
     43238     43239     43240     43241     43240     43242     43241     43242
     43243     43244     43243     43245     43244     43245     43246     43247
     43246     43248     43247     43248     43249     43250     43249     43251
     43250     43251     43252     43253     43252     43254     43253     43254
     43255     43256     43255     43257     43256     43257     43258     43259
     43258     43260     43259     43260     43261     43262     43261     43263
     43262     43263     43264     43265     43264     43266     43265     43266
     43267     43268     43267     43269     43268     43269     43270     43271
     43270     43272     43271     43272     43273     43274     43273     43275
     43274     43275     43276     43277     43276     43278     43277     43278
     43279     43280     43279     43281     43280     43281     43282     43283
     43282     43284     43283     43284     43285     43286     43285     43287
     43286     43287     43288     43289     43288     43290     43289     43290
     43291     43292     43291     43293     43292     43293     43294     43295
     43294     43296     43295     43296     43297     43298     43297     43299
     43298     43299     43300     43301     43300     43302     43301     43302
     43303     43304     43303     43305     43304     43305     43306     43307
     43306     43308     43307     43308     43309     43310     43309     43311
     43310     43311     43312     43313     43312     43314     43313     43314
     43315     43316     43315     43317     43316     43317     43318     43319
     43318     43320     43319     43320     43321     43322     43321     43323
     43322     43323     43324     43325     43324     43326     43325     43326
     43327     43328     43327     43329     43328     43329     43330     43331
     43330     43332     43331     43332     43333     43334     43333     43335
     43334     43335     43336     43337     43336     43338     43337     43338
     43339     43340     43339     43341     43340     43341     43342     43343
     43342     43344     43343     43344     43345     43346     43345     43347
     43346     43347     43348     43349     43348     43350     43349     43350
     43351     43352     43351     43353     43352     43353     43354     43355
     43354     43356     43355     43356     43357     43358     43357     43359
     43358     43359     43360     43361     43360     43362     43361     43362
     43363     43364     43363     43365     43364     43365     43366     43367
     43366     43368     43367     43368     43369     43370     43369     43371
     43370     43371     43372     43373     43372     43374     43373     43374
     43375     43376     43375     43377     43376     43377     43378     43379
     43378     43380     43379     43380     43381     43382     43381     43383
     43382     43383     43384     43385     43384     43386     43385     43386
     43387     43388     43387     43389     43388     43389     43390     43391
     43390     43392     43391     43392     43393     43394     43393     43395
     43394     43395     43396     43397     43396     43398     43397     43398
     43399     43400     43399     43401     43400     43401     43402     43403
     43402     43404     43403     43404     43405     43406     43405     43407
     43406     43407     43408     43409     43408     43410     43409     43410
     43411     43412     43411     43413     43412     43413     43414     43415
     43414     43416     43415     43416     43417     43418     43417     43419
     43418     43419     43420     43421     43420     43422     43421     43422
     43423     43424     43423     43425     43424     43425     43426     43427
     43426     43428     43427     43428     43429     43430     43429     43431
     43430     43431     43432     43433     43432     43434     43433     43434
     43435     43436     43435     43437     43436     43437     43438     43439
     43438     43440     43439     43440     43441     43442     43441     43443
     43442     43443     43444     43445     43444     43446     43445     43446
     43447     43448     43447     43449     43448     43449     43450     43451
     43450     43452     43451     43452     43453     43454     43453     43455
     43454     43455     43456     43457     43456     43458     43457     43458
     43459     43460     43459     43461     43460     43461     43462     43463
     43462     43464     43463     43464     43465     43466     43465     43467
     43466     43467     43468     43469     43468     43470     43469     43470
     43471     43472     43471     43473     43472     43473     43474     43475
     43474     43476     43475     43476     43477     43478     43477     43479
     43478     43479     43480     43481     43480     43482     43481     43482
     43483     43484     43483     43485     43484     43485     43486     43487
     43486     43488     43487     43488     43489     43490     43489     43491
     43490     43491     43492     43493     43492     43494     43493     43494
     43495     43496     43495     43497     43496     43497     43498     43499
     43498     43500     43499     43500     43501     43502     43501     43503
     43502     43503     43504     43505     43504     43506     43505     43506
     43507     43508     43507     43509     43508     43509     43510     43511
     43510     43512     43511     43512     43513     43514     43513     43515
     43514     43515     43516     43517     43516     43518     43517     43518
     43519     43520     43519     43521     43520     43521     43522     43523
     43522     43524     43523     43524     43525     43526     43525     43527
     43526     43527     43528     43529     43528     43530     43529     43530
     43531     43532     43531     43533     43532     43533     43534     43535
     43534     43536     43535     43536     43537     43538     43537     43539
     43538     43539     43540     43541     43540     43542     43541     43542
     43543     43544     43543     43545     43544     43545     43546     43547
     43546     43548     43547     43548     43549     43550     43549     43551
     43550     43551     43552     43553     43552     43554     43553     43554
     43555     43556     43555     43557     43556     43557     43558     43559
     43558     43560     43559     43560     43561     43562     43561     43563
     43562     43563     43564     43565     43564     43566     43565     43566
     43567     43568     43567     43569     43568     43569     43570     43571
     43570     43572     43571     43572     43573     43574     43573     43575
     43574     43575     43576     43577     43576     43578     43577     43578
     43579     43580     43579     43581     43580     43581     43582     43583
     43582     43584     43583     43584     43585     43586     43585     43587
     43586     43587     43588     43589     43588     43590     43589     43590
     43591     43592     43591     43593     43592     43593     43594     43595
     43594     43596     43595     43596     43597     43598     43597     43599
     43598     43599     43600     43601     43600     43602     43601     43602
     43603     43604     43603     43605     43604     43605     43606     43607
     43606     43608     43607     43608     43609     43610     43609     43611
     43610     43611     43612     43613     43612     43614     43613     43614
     43615     43616     43615     43617     43616     43617     43618     43619
     43618     43620     43619     43620     43621     43622     43621     43623
     43622     43623     43624     43625     43624     43626     43625     43626
     43627     43628     43627     43629     43628     43629     43630     43631
     43630     43632     43631     43632     43633     43634     43633     43635
     43634     43635     43636     43637     43636     43638     43637     43638
     43639     43640     43639     43641     43640     43641     43642     43643
     43642     43644     43643     43644     43645     43646     43645     43647
     43646     43647     43648     43649     43648     43650     43649     43650
     43651     43652     43651     43653     43652     43653     43654     43655
     43654     43656     43655     43656     43657     43658     43657     43659
     43658     43659     43660     43661     43660     43662     43661     43662
     43663     43664     43663     43665     43664     43665     43666     43667
     43666     43668     43667     43668     43669     43670     43669     43671
     43670     43671     43672     43673     43672     43674     43673     43674
     43675     43676     43675     43677     43676     43677     43678     43679
     43678     43680     43679     43680     43681     43682     43681     43683
     43682     43683     43684     43685     43684     43686     43685     43686
     43687     43688     43687     43689     43688     43689     43690     43691
     43690     43692     43691     43692     43693     43694     43693     43695
     43694     43695     43696     43697     43696     43698     43697     43698
     43699     43700     43699     43701     43700     43701     43702     43703
     43702     43704     43703     43704     43705     43706     43705     43707
     43706     43707     43708     43709     43708     43710     43709     43710
     43711     43712     43711     43713     43712     43713     43714     43715
     43714     43716     43715     43716     43717     43718     43717     43719
     43718     43719     43720     43721     43720     43722     43721     43722
     43723     43724     43723     43725     43724     43725     43726     43727
     43726     43728     43727     43728     43729     43730     43729     43731
     43730     43731     43732     43733     43732     43734     43733     43734
     43735     43736     43735     43737     43736     43737     43738     43739
     43738     43740     43739     43740     43741     43742     43741     43743
     43742     43743     43744     43745     43744     43746     43745     43746
     43747     43748     43747     43749     43748     43749     43750     43751
     43750     43752     43751     43752     43753     43754     43753     43755
     43754     43755     43756     43757     43756     43758     43757     43758
     43759     43760     43759     43761     43760     43761     43762     43763
     43762     43764     43763     43764     43765     43766     43765     43767
     43766     43767     43768     43769     43768     43770     43769     43770
     43771     43772     43771     43773     43772     43773     43774     43775
     43774     43776     43775     43776     43777     43778     43777     43779
     43778     43779     43780     43781     43780     43782     43781     43782
     43783     43784     43783     43785     43784     43785     43786     43787
     43786     43788     43787     43788     43789     43790     43789     43791
     43790     43791     43792     43793     43792     43794     43793     43794
     43795     43796     43795     43797     43796     43797     43798     43799
     43798     43800     43799     43800     43801     43802     43801     43803
     43802     43803     43804     43805     43804     43806     43805     43806
     43807     43808     43807     43809     43808     43809     43810     43811
     43810     43812     43811     43812     43813     43814     43813     43815
     43814     43815     43816     43817     43816     43818     43817     43818
     43819     43820     43819     43821     43820     43821     43822     43823
     43822     43824     43823     43824     43825     43826     43825     43827
     43826     43827     43828     43829     43828     43830     43829     43830
     43831     43832     43831     43833     43832     43833     43834     43835
     43834     43836     43835     43836     43837     43838     43837     43839
     43838     43839     43840     43841     43840     43842     43841     43842
     43843     43844     43843     43845     43844     43845     43846     43847
     43846     43848     43847     43848     43849     43850     43849     43851
     43850     43851     43852     43853     43852     43854     43853     43854
     43855     43856     43855     43857     43856     43857     43858     43859
     43858     43860     43859     43860     43861     43862     43861     43863
     43862     43863     43864     43865     43864     43866     43865     43866
     43867     43868     43867     43869     43868     43869     43870     43871
     43870     43872     43871     43872     43873     43874     43873     43875
     43874     43875     43876     43877     43876     43878     43877     43878
     43879     43880     43879     43881     43880     43881     43882     43883
     43882     43884     43883     43884     43885     43886     43885     43887
     43886     43887     43888     43889     43888     43890     43889     43890
     43891     43892     43891     43893     43892     43893     43894     43895
     43894     43896     43895     43896     43897     43898     43897     43899
     43898     43899     43900     43901     43900     43902     43901     43902
     43903     43904     43903     43905     43904     43905     43906     43907
     43906     43908     43907     43908     43909     43910     43909     43911
     43910     43911     43912     43913     43912     43914     43913     43914
     43915     43916     43915     43917     43916     43917     43918     43919
     43918     43920     43919     43920     43921     43922     43921     43923
     43922     43923     43924     43925     43924     43926     43925     43926
     43927     43928     43927     43929     43928     43929     43930     43931
     43930     43932     43931     43932     43933     43934     43933     43935
     43934     43935     43936     43937     43936     43938     43937     43938
     43939     43940     43939     43941     43940     43941     43942     43943
     43942     43944     43943     43944     43945     43946     43945     43947
     43946     43947     43948     43949     43948     43950     43949     43950
     43951     43952     43951     43953     43952     43953     43954     43955
     43954     43956     43955     43956     43957     43958     43957     43959
     43958     43959     43960     43961     43960     43962     43961     43962
     43963     43964     43963     43965     43964     43965     43966     43967
     43966     43968     43967     43968     43969     43970     43969     43971
     43970     43971     43972     43973     43972     43974     43973     43974
     43975     43976     43975     43977     43976     43977     43978     43979
     43978     43980     43979     43980     43981     43982     43981     43983
     43982     43983     43984     43985     43984     43986     43985     43986
     43987     43988     43987     43989     43988     43989     43990     43991
     43990     43992     43991     43992     43993     43994     43993     43995
     43994     43995     43996     43997     43996     43998     43997     43998
     43999     44000     43999     44001     44000     44001     44002     44003
     44002     44004     44003     44004     44005     44006     44005     44007
     44006     44007     44008     44009     44008     44010     44009     44010
     44011     44012     44011     44013     44012     44013     44014     44015
     44014     44016     44015     44016     44017     44018     44017     44019
     44018     44019     44020     44021     44020     44022     44021     44022
     44023     44024     44023     44025     44024     44025     44026     44027
     44026     44028     44027     44028     44029     44030     44029     44031
     44030     44031     44032     44033     44032     44034     44033     44034
     44035     44036     44035     44037     44036     44037     44038     44039
     44038     44040     44039     44040     44041     44042     44041     44043
     44042     44043     44044     44045     44044     44046     44045     44046
     44047     44048     44047     44049     44048     44049     44050     44051
     44050     44052     44051     44052     44053     44054     44053     44055
     44054     44055     44056     44057     44056     44058     44057     44058
     44059     44060     44059     44061     44060     44061     44062     44063
     44062     44064     44063     44064     44065     44066     44065     44067
     44066     44067     44068     44069     44068     44070     44069     44070
     44071     44072     44071     44073     44072     44073     44074     44075
     44074     44076     44075     44076     44077     44078     44077     44079
     44078     44079     44080     44081     44080     44082     44081     44082
     44083     44084     44083     44085     44084     44085     44086     44087
     44086     44088     44087     44088     44089     44090     44089     44091
     44090     44091     44092     44093     44092     44094     44093     44094
     44095     44096     44095     44097     44096     44097     44098     44099
     44098     44100     44099     44100     44101     44102     44101     44103
     44102     44103     44104     44105     44104     44106     44105     44106
     44107     44108     44107     44109     44108     44109     44110     44111
     44110     44112     44111     44112     44113     44114     44113     44115
     44114     44115     44116     44117     44116     44118     44117     44118
     44119     44120     44119     44121     44120     44121     44122     44123
     44122     44124     44123     44124     44125     44126     44125     44127
     44126     44127     44128     44129     44128     44130     44129     44130
     44131     44132     44131     44133     44132     44133     44134     44135
     44134     44136     44135     44136     44137     44138     44137     44139
     44138     44139     44140     44141     44140     44142     44141     44142
     44143     44144     44143     44145     44144     44145     44146     44147
     44146     44148     44147     44148     44149     44150     44149     44151
     44150     44151     44152     44153     44152     44154     44153     44154
     44155     44156     44155     44157     44156     44157     44158     44159
     44158     44160     44159     44160     44161     44162     44161     44163
     44162     44163     44164     44165     44164     44166     44165     44166
     44167     44168     44167     44169     44168     44169     44170     44171
     44170     44172     44171     44172     44173     44174     44173     44175
     44174     44175     44176     44177     44176     44178     44177     44178
     44179     44180     44179     44181     44180     44181     44182     44183
     44182     44184     44183     44184     44185     44186     44185     44187
     44186     44187     44188     44189     44188     44190     44189     44190
     44191     44192     44191     44193     44192     44193     44194     44195
     44194     44196     44195     44196     44197     44198     44197     44199
     44198     44199     44200     44201     44200     44202     44201     44202
     44203     44204     44203     44205     44204     44205     44206     44207
     44206     44208     44207     44208     44209     44210     44209     44211
     44210     44211     44212     44213     44212     44214     44213     44214
     44215     44216     44215     44217     44216     44217     44218     44219
     44218     44220     44219     44220     44221     44222     44221     44223
     44222     44223     44224     44225     44224     44226     44225     44226
     44227     44228     44227     44229     44228     44229     44230     44231
     44230     44232     44231     44232     44233     44234     44233     44235
     44234     44235     44236     44237     44236     44238     44237     44238
     44239     44240     44239     44241     44240     44241     44242     44243
     44242     44244     44243     44244     44245     44246     44245     44247
     44246     44247     44248     44249     44248     44250     44249     44250
     44251     44252     44251     44253     44252     44253     44254     44255
     44254     44256     44255     44256     44257     44258     44257     44259
     44258     44259     44260     44261     44260     44262     44261     44262
     44263     44264     44263     44265     44264     44265     44266     44267
     44266     44268     44267     44268     44269     44270     44269     44271
     44270     44271     44272     44273     44272     44274     44273     44274
     44275     44276     44275     44277     44276     44277     44278     44279
     44278     44280     44279     44280     44281     44282     44281     44283
     44282     44283     44284     44285     44284     44286     44285     44286
     44287     44288     44287     44289     44288     44289     44290     44291
     44290     44292     44291     44292     44293     44294     44293     44295
     44294     44295     44296     44297     44296     44298     44297     44298
     44299     44300     44299     44301     44300     44301     44302     44303
     44302     44304     44303     44304     44305     44306     44305     44307
     44306     44307     44308     44309     44308     44310     44309     44310
     44311     44312     44311     44313     44312     44313     44314     44315
     44314     44316     44315     44316     44317     44318     44317     44319
     44318     44319     44320     44321     44320     44322     44321     44322
     44323     44324     44323     44325     44324     44325     44326     44327
     44326     44328     44327     44328     44329     44330     44329     44331
     44330     44331     44332     44333     44332     44334     44333     44334
     44335     44336     44335     44337     44336     44337     44338     44339
     44338     44340     44339     44340     44341     44342     44341     44343
     44342     44343     44344     44345     44344     44346     44345     44346
     44347     44348     44347     44349     44348     44349     44350     44351
     44350     44352     44351     44352     44353     44354     44353     44355
     44354     44355     44356     44357     44356     44358     44357     44358
     44359     44360     44359     44361     44360     44361     44362     44363
     44362     44364     44363     44364     44365     44366     44365     44367
     44366     44367     44368     44369     44368     44370     44369     44370
     44371     44372     44371     44373     44372     44373     44374     44375
     44374     44376     44375     44376     44377     44378     44377     44379
     44378     44379     44380     44381     44380     44382     44381     44382
     44383     44384     44383     44385     44384     44385     44386     44387
     44386     44388     44387     44388     44389     44390     44389     44391
     44390     44391     44392     44393     44392     44394     44393     44394
     44395     44396     44395     44397     44396     44397     44398     44399
     44398     44400     44399     44400     44401     44402     44401     44403
     44402     44403     44404     44405     44404     44406     44405     44406
     44407     44408     44407     44409     44408     44409     44410     44411
     44410     44412     44411     44412     44413     44414     44413     44415
     44414     44415     44416     44417     44416     44418     44417     44418
     44419     44420     44419     44421     44420     44421     44422     44423
     44422     44424     44423     44424     44425     44426     44425     44427
     44426     44427     44428     44429     44428     44430     44429     44430
     44431     44432     44431     44433     44432     44433     44434     44435
     44434     44436     44435     44436     44437     44438     44437     44439
     44438     44439     44440     44441     44440     44442     44441     44442
     44443     44444     44443     44445     44444     44445     44446     44447
     44446     44448     44447     44448     44449     44450     44449     44451
     44450     44451     44452     44453     44452     44454     44453     44454
     44455     44456     44455     44457     44456     44457     44458     44459
     44458     44460     44459     44460     44461     44462     44461     44463
     44462     44463     44464     44465     44464     44466     44465     44466
     44467     44468     44467     44469     44468     44469     44470     44471
     44470     44472     44471     44472     44473     44474     44473     44475
     44474     44475     44476     44477     44476     44478     44477     44478
     44479     44480     44479     44481     44480     44481     44482     44483
     44482     44484     44483     44484     44485     44486     44485     44487
     44486     44487     44488     44489     44488     44490     44489     44490
     44491     44492     44491     44493     44492     44493     44494     44495
     44494     44496     44495     44496     44497     44498     44497     44499
     44498     44499     44500     44501     44500     44502     44501     44502
     44503     44504     44503     44505     44504     44505     44506     44507
     44506     44508     44507     44508     44509     44510     44509     44511
     44510     44511     44512     44513     44512     44514     44513     44514
     44515     44516     44515     44517     44516     44517     44518     44519
     44518     44520     44519     44520     44521     44522     44521     44523
     44522     44523     44524     44525     44524     44526     44525     44526
     44527     44528     44527     44529     44528     44529     44530     44531
     44530     44532     44531     44532     44533     44534     44533     44535
     44534     44535     44536     44537     44536     44538     44537     44538
     44539     44540     44539     44541     44540     44541     44542     44543
     44542     44544     44543     44544     44545     44546     44545     44547
     44546     44547     44548     44549     44548     44550     44549     44550
     44551     44552     44551     44553     44552     44553     44554     44555
     44554     44556     44555     44556     44557     44558     44557     44559
     44558     44559     44560     44561     44560     44562     44561     44562
     44563     44564     44563     44565     44564     44565     44566     44567
     44566     44568     44567     44568     44569     44570     44569     44571
     44570     44571     44572     44573     44572     44574     44573     44574
     44575     44576     44575     44577     44576     44577     44578     44579
     44578     44580     44579     44580     44581     44582     44581     44583
     44582     44583     44584     44585     44584     44586     44585     44586
     44587     44588     44587     44589     44588     44589     44590     44591
     44590     44592     44591     44592     44593     44594     44593     44595
     44594     44595     44596     44597     44596     44598     44597     44598
     44599     44600     44599     44601     44600     44601     44602     44603
     44602     44604     44603     44604     44605     44606     44605     44607
     44606     44607     44608     44609     44608     44610     44609     44610
     44611     44612     44611     44613     44612     44613     44614     44615
     44614     44616     44615     44616     44617     44618     44617     44619
     44618     44619     44620     44621     44620     44622     44621     44622
     44623     44624     44623     44625     44624     44625     44626     44627
     44626     44628     44627     44628     44629     44630     44629     44631
     44630     44631     44632     44633     44632     44634     44633     44634
     44635     44636     44635     44637     44636     44637     44638     44639
     44638     44640     44639     44640     44641     44642     44641     44643
     44642     44643     44644     44645     44644     44646     44645     44646
     44647     44648     44647     44649     44648     44649     44650     44651
     44650     44652     44651     44652     44653     44654     44653     44655
     44654     44655     44656     44657     44656     44658     44657     44658
     44659     44660     44659     44661     44660     44661     44662     44663
     44662     44664     44663     44664     44665     44666     44665     44667
     44666     44667     44668     44669     44668     44670     44669     44670
     44671     44672     44671     44673     44672     44673     44674     44675
     44674     44676     44675     44676     44677     44678     44677     44679
     44678     44679     44680     44681     44680     44682     44681     44682
     44683     44684     44683     44685     44684     44685     44686     44687
     44686     44688     44687     44688     44689     44690     44689     44691
     44690     44691     44692     44693     44692     44694     44693     44694
     44695     44696     44695     44697     44696     44697     44698     44699
     44698     44700     44699     44700     44701     44702     44701     44703
     44702     44703     44704     44705     44704     44706     44705     44706
     44707     44708     44707     44709     44708     44709     44710     44711
     44710     44712     44711     44712     44713     44714     44713     44715
     44714     44715     44716     44717     44716     44718     44717     44718
     44719     44720     44719     44721     44720     44721     44722     44723
     44722     44724     44723     44724     44725     44726     44725     44727
     44726     44727     44728     44729     44728     44730     44729     44730
     44731     44732     44731     44733     44732     44733     44734     44735
     44734     44736     44735     44736     44737     44738     44737     44739
     44738     44739     44740     44741     44740     44742     44741     44742
     44743     44744     44743     44745     44744     44745     44746     44747
     44746     44748     44747     44748     44749     44750     44749     44751
     44750     44751     44752     44753     44752     44754     44753     44754
     44755     44756     44755     44757     44756     44757     44758     44759
     44758     44760     44759     44760     44761     44762     44761     44763
     44762     44763     44764     44765     44764     44766     44765     44766
     44767     44768     44767     44769     44768     44769     44770     44771
     44770     44772     44771     44772     44773     44774     44773     44775
     44774     44775     44776     44777     44776     44778     44777     44778
     44779     44780     44779     44781     44780     44781     44782     44783
     44782     44784     44783     44784     44785     44786     44785     44787
     44786     44787     44788     44789     44788     44790     44789     44790
     44791     44792     44791     44793     44792     44793     44794     44795
     44794     44796     44795     44796     44797     44798     44797     44799
     44798     44799     44800     44801     44800     44802     44801     44802
     44803     44804     44803     44805     44804     44805     44806     44807
     44806     44808     44807     44808     44809     44810     44809     44811
     44810     44811     44812     44813     44812     44814     44813     44814
     44815     44816     44815     44817     44816     44817     44818     44819
     44818     44820     44819     44820     44821     44822     44821     44823
     44822     44823     44824     44825     44824     44826     44825     44826
     44827     44828     44827     44829     44828     44829     44830     44831
     44830     44832     44831     44832     44833     44834     44833     44835
     44834     44835     44836     44837     44836     44838     44837     44838
     44839     44840     44839     44841     44840     44841     44842     44843
     44842     44844     44843     44844     44845     44846     44845     44847
     44846     44847     44848     44849     44848     44850     44849     44850
     44851     44852     44851     44853     44852     44853     44854     44855
     44854     44856     44855     44856     44857     44858     44857     44859
     44858     44859     44860     44861     44860     44862     44861     44862
     44863     44864     44863     44865     44864     44865     44866     44867
     44866     44868     44867     44868     44869     44870     44869     44871
     44870     44871     44872     44873     44872     44874     44873     44874
     44875     44876     44875     44877     44876     44877     44878     44879
     44878     44880     44879     44880     44881     44882     44881     44883
     44882     44883     44884     44885     44884     44886     44885     44886
     44887     44888     44887     44889     44888     44889     44890     44891
     44890     44892     44891     44892     44893     44894     44893     44895
     44894     44895     44896     44897     44896     44898     44897     44898
     44899     44900     44899     44901     44900     44901     44902     44903
     44902     44904     44903     44904     44905     44906     44905     44907
     44906     44907     44908     44909     44908     44910     44909     44910
     44911     44912     44911     44913     44912     44913     44914     44915
     44914     44916     44915     44916     44917     44918     44917     44919
     44918     44919     44920     44921     44920     44922     44921     44922
     44923     44924     44923     44925     44924     44925     44926     44927
     44926     44928     44927     44928     44929     44930     44929     44931
     44930     44931     44932     44933     44932     44934     44933     44934
     44935     44936     44935     44937     44936     44937     44938     44939
     44938     44940     44939     44940     44941     44942     44941     44943
     44942     44943     44944     44945     44944     44946     44945     44946
     44947     44948     44947     44949     44948     44949     44950     44951
     44950     44952     44951     44952     44953     44954     44953     44955
     44954     44955     44956     44957     44956     44958     44957     44958
     44959     44960     44959     44961     44960     44961     44962     44963
     44962     44964     44963     44964     44965     44966     44965     44967
     44966     44967     44968     44969     44968     44970     44969     44970
     44971     44972     44971     44973     44972     44973     44974     44975
     44974     44976     44975     44976     44977     44978     44977     44979
     44978     44979     44980     44981     44980     44982     44981     44982
     44983     44984     44983     44985     44984     44985     44986     44987
     44986     44988     44987     44988     44989     44990     44989     44991
     44990     44991     44992     44993     44992     44994     44993     44994
     44995     44996     44995     44997     44996     44997     44998     44999
     44998     45000     44999     45000     45001     45002     45001     45003
     45002     45003     45004     45005     45004     45006     45005     45006
     45007     45008     45007     45009     45008     45009     45010     45011
     45010     45012     45011     45012     45013     45014     45013     45015
     45014     45015     45016     45017     45016     45018     45017     45018
     45019     45020     45019     45021     45020     45021     45022     45023
     45022     45024     45023     45024     45025     45026     45025     45027
     45026     45027     45028     45029     45028     45030     45029     45030
     45031     45032     45031     45033     45032     45033     45034     45035
     45034     45036     45035     45036     45037     45038     45037     45039
     45038     45039     45040     45041     45040     45042     45041     45042
     45043     45044     45043     45045     45044     45045     45046     45047
     45046     45048     45047     45048     45049     45050     45049     45051
     45050     45051     45052     45053     45052     45054     45053     45054
     45055     45056     45055     45057     45056     45057     45058     45059
     45058     45060     45059     45060     45061     45062     45061     45063
     45062     45063     45064     45065     45064     45066     45065     45066
     45067     45068     45067     45069     45068     45069     45070     45071
     45070     45072     45071     45072     45073     45074     45073     45075
     45074     45075     45076     45077     45076     45078     45077     45078
     45079     45080     45079     45081     45080     45081     45082     45083
     45082     45084     45083     45084     45085     45086     45085     45087
     45086     45087     45088     45089     45088     45090     45089     45090
     45091     45092     45091     45093     45092     45093     45094     45095
     45094     45096     45095     45096     45097     45098     45097     45099
     45098     45099     45100     45101     45100     45102     45101     45102
     45103     45104     45103     45105     45104     45105     45106     45107
     45106     45108     45107     45108     45109     45110     45109     45111
     45110     45111     45112     45113     45112     45114     45113     45114
     45115     45116     45115     45117     45116     45117     45118     45119
     45118     45120     45119     45120     45121     45122     45121     45123
     45122     45123     45124     45125     45124     45126     45125     45126
     45127     45128     45127     45129     45128     45129     45130     45131
     45130     45132     45131     45132     45133     45134     45133     45135
     45134     45135     45136     45137     45136     45138     45137     45138
     45139     45140     45139     45141     45140     45141     45142     45143
     45142     45144     45143     45144     45145     45146     45145     45147
     45146     45147     45148     45149     45148     45150     45149     45150
     45151     45152     45151     45153     45152     45153     45154     45155
     45154     45156     45155     45156     45157     45158     45157     45159
     45158     45159     45160     45161     45160     45162     45161     45162
     45163     45164     45163     45165     45164     45165     45166     45167
     45166     45168     45167     45168     45169     45170     45169     45171
     45170     45171     45172     45173     45172     45174     45173     45174
     45175     45176     45175     45177     45176     45177     45178     45179
     45178     45180     45179     45180     45181     45182     45181     45183
     45182     45183     45184     45185     45184     45186     45185     45186
     45187     45188     45187     45189     45188     45189     45190     45191
     45190     45192     45191     45192     45193     45194     45193     45195
     45194     45195     45196     45197     45196     45198     45197     45198
     45199     45200     45199     45201     45200     45201     45202     45203
     45202     45204     45203     45204     45205     45206     45205     45207
     45206     45207     45208     45209     45208     45210     45209     45210
     45211     45212     45211     45213     45212     45213     45214     45215
     45214     45216     45215     45216     45217     45218     45217     45219
     45218     45219     45220     45221     45220     45222     45221     45222
     45223     45224     45223     45225     45224     45225     45226     45227
     45226     45228     45227     45228     45229     45230     45229     45231
     45230     45231     45232     45233     45232     45234     45233     45234
     45235     45236     45235     45237     45236     45237     45238     45239
     45238     45240     45239     45240     45241     45242     45241     45243
     45242     45243     45244     45245     45244     45246     45245     45246
     45247     45248     45247     45249     45248     45249     45250     45251
     45250     45252     45251     45252     45253     45254     45253     45255
     45254     45255     45256     45257     45256     45258     45257     45258
     45259     45260     45259     45261     45260     45261     45262     45263
     45262     45264     45263     45264     45265     45266     45265     45267
     45266     45267     45268     45269     45268     45270     45269     45270
     45271     45272     45271     45273     45272     45273     45274     45275
     45274     45276     45275     45276     45277     45278     45277     45279
     45278     45279     45280     45281     45280     45282     45281     45282
     45283     45284     45283     45285     45284     45285     45286     45287
     45286     45288     45287     45288     45289     45290     45289     45291
     45290     45291     45292     45293     45292     45294     45293     45294
     45295     45296     45295     45297     45296     45297     45298     45299
     45298     45300     45299     45300     45301     45302     45301     45303
     45302     45303     45304     45305     45304     45306     45305     45306
     45307     45308     45307     45309     45308     45309     45310     45311
     45310     45312     45311     45312     45313     45314     45313     45315
     45314     45315     45316     45317     45316     45318     45317     45318
     45319     45320     45319     45321     45320     45321     45322     45323
     45322     45324     45323     45324     45325     45326     45325     45327
     45326     45327     45328     45329     45328     45330     45329     45330
     45331     45332     45331     45333     45332     45333     45334     45335
     45334     45336     45335     45336     45337     45338     45337     45339
     45338     45339     45340     45341     45340     45342     45341     45342
     45343     45344     45343     45345     45344     45345     45346     45347
     45346     45348     45347     45348     45349     45350     45349     45351
     45350     45351     45352     45353     45352     45354     45353     45354
     45355     45356     45355     45357     45356     45357     45358     45359
     45358     45360     45359     45360     45361     45362     45361     45363
     45362     45363     45364     45365     45364     45366     45365     45366
     45367     45368     45367     45369     45368     45369     45370     45371
     45370     45372     45371     45372     45373     45374     45373     45375
     45374     45375     45376     45377     45376     45378     45377     45378
     45379     45380     45379     45381     45380     45381     45382     45383
     45382     45384     45383     45384     45385     45386     45385     45387
     45386     45387     45388     45389     45388     45390     45389     45390
     45391     45392     45391     45393     45392     45393     45394     45395
     45394     45396     45395     45396     45397     45398     45397     45399
     45398     45399     45400     45401     45400     45402     45401     45402
     45403     45404     45403     45405     45404     45405     45406     45407
     45406     45408     45407     45408     45409     45410     45409     45411
     45410     45411     45412     45413     45412     45414     45413     45414
     45415     45416     45415     45417     45416     45417     45418     45419
     45418     45420     45419     45420     45421     45422     45421     45423
     45422     45423     45424     45425     45424     45426     45425     45426
     45427     45428     45427     45429     45428     45429     45430     45431
     45430     45432     45431     45432     45433     45434     45433     45435
     45434     45435     45436     45437     45436     45438     45437     45438
     45439     45440     45439     45441     45440     45441     45442     45443
     45442     45444     45443     45444     45445     45446     45445     45447
     45446     45447     45448     45449     45448     45450     45449     45450
     45451     45452     45451     45453     45452     45453     45454     45455
     45454     45456     45455     45456     45457     45458     45457     45459
     45458     45459     45460     45461     45460     45462     45461     45462
     45463     45464     45463     45465     45464     45465     45466     45467
     45466     45468     45467     45468     45469     45470     45469     45471
     45470     45471     45472     45473     45472     45474     45473     45474
     45475     45476     45475     45477     45476     45477     45478     45479
     45478     45480     45479     45480     45481     45482     45481     45483
     45482     45483     45484     45485     45484     45486     45485     45486
     45487     45488     45487     45489     45488     45489     45490     45491
     45490     45492     45491     45492     45493     45494     45493     45495
     45494     45495     45496     45497     45496     45498     45497     45498
     45499     45500     45499     45501     45500     45501     45502     45503
     45502     45504     45503     45504     45505     45506     45505     45507
     45506     45507     45508     45509     45508     45510     45509     45510
     45511     45512     45511     45513     45512     45513     45514     45515
     45514     45516     45515     45516     45517     45518     45517     45519
     45518     45519     45520     45521     45520     45522     45521     45522
     45523     45524     45523     45525     45524     45525     45526     45527
     45526     45528     45527     45528     45529     45530     45529     45531
     45530     45531     45532     45533     45532     45534     45533     45534
     45535     45536     45535     45537     45536     45537     45538     45539
     45538     45540     45539     45540     45541     45542     45541     45543
     45542     45543     45544     45545     45544     45546     45545     45546
     45547     45548     45547     45549     45548     45549     45550     45551
     45550     45552     45551     45552     45553     45554     45553     45555
     45554     45555     45556     45557     45556     45558     45557     45558
     45559     45560     45559     45561     45560     45561     45562     45563
     45562     45564     45563     45564     45565     45566     45565     45567
     45566     45567     45568     45569     45568     45570     45569     45570
     45571     45572     45571     45573     45572     45573     45574     45575
     45574     45576     45575     45576     45577     45578     45577     45579
     45578     45579     45580     45581     45580     45582     45581     45582
     45583     45584     45583     45585     45584     45585     45586     45587
     45586     45588     45587     45588     45589     45590     45589     45591
     45590     45591     45592     45593     45592     45594     45593     45594
     45595     45596     45595     45597     45596     45597     45598     45599
     45598     45600     45599     45600     45601     45602     45601     45603
     45602     45603     45604     45605     45604     45606     45605     45606
     45607     45608     45607     45609     45608     45609     45610     45611
     45610     45612     45611     45612     45613     45614     45613     45615
     45614     45615     45616     45617     45616     45618     45617     45618
     45619     45620     45619     45621     45620     45621     45622     45623
     45622     45624     45623     45624     45625     45626     45625     45627
     45626     45627     45628     45629     45628     45630     45629     45630
     45631     45632     45631     45633     45632     45633     45634     45635
     45634     45636     45635     45636     45637     45638     45637     45639
     45638     45639     45640     45641     45640     45642     45641     45642
     45643     45644     45643     45645     45644     45645     45646     45647
     45646     45648     45647     45648     45649     45650     45649     45651
     45650     45651     45652     45653     45652     45654     45653     45654
     45655     45656     45655     45657     45656     45657     45658     45659
     45658     45660     45659     45660     45661     45662     45661     45663
     45662     45663     45664     45665     45664     45666     45665     45666
     45667     45668     45667     45669     45668     45669     45670     45671
     45670     45672     45671     45672     45673     45674     45673     45675
     45674     45675     45676     45677     45676     45678     45677     45678
     45679     45680     45679     45681     45680     45681     45682     45683
     45682     45684     45683     45684     45685     45686     45685     45687
     45686     45687     45688     45689     45688     45690     45689     45690
     45691     45692     45691     45693     45692     45693     45694     45695
     45694     45696     45695     45696     45697     45698     45697     45699
     45698     45699     45700     45701     45700     45702     45701     45702
     45703     45704     45703     45705     45704     45705     45706     45707
     45706     45708     45707     45708     45709     45710     45709     45711
     45710     45711     45712     45713     45712     45714     45713     45714
     45715     45716     45715     45717     45716     45717     45718     45719
     45718     45720     45719     45720     45721     45722     45721     45723
     45722     45723     45724     45725     45724     45726     45725     45726
     45727     45728     45727     45729     45728     45729     45730     45731
     45730     45732     45731     45732     45733     45734     45733     45735
     45734     45735     45736     45737     45736     45738     45737     45738
     45739     45740     45739     45741     45740     45741     45742     45743
     45742     45744     45743     45744     45745     45746     45745     45747
     45746     45747     45748     45749     45748     45750     45749     45750
     45751     45752     45751     45753     45752     45753     45754     45755
     45754     45756     45755     45756     45757     45758     45757     45759
     45758     45759     45760     45761     45760     45762     45761     45762
     45763     45764     45763     45765     45764     45765     45766     45767
     45766     45768     45767     45768     45769     45770     45769     45771
     45770     45771     45772     45773     45772     45774     45773     45774
     45775     45776     45775     45777     45776     45777     45778     45779
     45778     45780     45779     45780     45781     45782     45781     45783
     45782     45783     45784     45785     45784     45786     45785     45786
     45787     45788     45787     45789     45788     45789     45790     45791
     45790     45792     45791     45792     45793     45794     45793     45795
     45794     45795     45796     45797     45796     45798     45797     45798
     45799     45800     45799     45801     45800     45801     45802     45803
     45802     45804     45803     45804     45805     45806     45805     45807
     45806     45807     45808     45809     45808     45810     45809     45810
     45811     45812     45811     45813     45812     45813     45814     45815
     45814     45816     45815     45816     45817     45818     45817     45819
     45818     45819     45820     45821     45820     45822     45821     45822
     45823     45824     45823     45825     45824     45825     45826     45827
     45826     45828     45827     45828     45829     45830     45829     45831
     45830     45831     45832     45833     45832     45834     45833     45834
     45835     45836     45835     45837     45836     45837     45838     45839
     45838     45840     45839     45840     45841     45842     45841     45843
     45842     45843     45844     45845     45844     45846     45845     45846
     45847     45848     45847     45849     45848     45849     45850     45851
     45850     45852     45851     45852     45853     45854     45853     45855
     45854     45855     45856     45857     45856     45858     45857     45858
     45859     45860     45859     45861     45860     45861     45862     45863
     45862     45864     45863     45864     45865     45866     45865     45867
     45866     45867     45868     45869     45868     45870     45869     45870
     45871     45872     45871     45873     45872     45873     45874     45875
     45874     45876     45875     45876     45877     45878     45877     45879
     45878     45879     45880     45881     45880     45882     45881     45882
     45883     45884     45883     45885     45884     45885     45886     45887
     45886     45888     45887     45888     45889     45890     45889     45891
     45890     45891     45892     45893     45892     45894     45893     45894
     45895     45896     45895     45897     45896     45897     45898     45899
     45898     45900     45899     45900     45901     45902     45901     45903
     45902     45903     45904     45905     45904     45906     45905     45906
     45907     45908     45907     45909     45908     45909     45910     45911
     45910     45912     45911     45912     45913     45914     45913     45915
     45914     45915     45916     45917     45916     45918     45917     45918
     45919     45920     45919     45921     45920     45921     45922     45923
     45922     45924     45923     45924     45925     45926     45925     45927
     45926     45927     45928     45929     45928     45930     45929     45930
     45931     45932     45931     45933     45932     45933     45934     45935
     45934     45936     45935     45936     45937     45938     45937     45939
     45938     45939     45940     45941     45940     45942     45941     45942
     45943     45944     45943     45945     45944     45945     45946     45947
     45946     45948     45947     45948     45949     45950     45949     45951
     45950     45951     45952     45953     45952     45954     45953     45954
     45955     45956     45955     45957     45956     45957     45958     45959
     45958     45960     45959     45960     45961     45962     45961     45963
     45962     45963     45964     45965     45964     45966     45965     45966
     45967     45968     45967     45969     45968     45969     45970     45971
     45970     45972     45971     45972     45973     45974     45973     45975
     45974     45975     45976     45977     45976     45978     45977     45978
     45979     45980     45979     45981     45980     45981     45982     45983
     45982     45984     45983     45984     45985     45986     45985     45987
     45986     45987     45988     45989     45988     45990     45989     45990
     45991     45992     45991     45993     45992     45993     45994     45995
     45994     45996     45995     45996     45997     45998     45997     45999
     45998     45999     46000     46001     46000     46002     46001     46002
     46003     46004     46003     46005     46004     46005     46006     46007
     46006     46008     46007     46008     46009     46010     46009     46011
     46010     46011     46012     46013     46012     46014     46013     46014
     46015     46016     46015     46017     46016     46017     46018     46019
     46018     46020     46019     46020     46021     46022     46021     46023
     46022     46023     46024     46025     46024     46026     46025     46026
     46027     46028     46027     46029     46028     46029     46030     46031
     46030     46032     46031     46032     46033     46034     46033     46035
     46034     46035     46036     46037     46036     46038     46037     46038
     46039     46040     46039     46041     46040     46041     46042     46043
     46042     46044     46043     46044     46045     46046     46045     46047
     46046     46047     46048     46049     46048     46050     46049     46050
     46051     46052     46051     46053     46052     46053     46054     46055
     46054     46056     46055     46056     46057     46058     46057     46059
     46058     46059     46060     46061     46060     46062     46061     46062
     46063     46064     46063     46065     46064     46065     46066     46067
     46066     46068     46067     46068     46069     46070     46069     46071
     46070     46071     46072     46073     46072     46074     46073     46074
     46075     46076     46075     46077     46076     46077     46078     46079
     46078     46080     46079     46080     46081     46082     46081     46083
     46082     46083     46084     46085     46084     46086     46085     46086
     46087     46088     46087     46089     46088     46089     46090     46091
     46090     46092     46091     46092     46093     46094     46093     46095
     46094     46095     46096     46097     46096     46098     46097     46098
     46099     46100     46099     46101     46100     46101     46102     46103
     46102     46104     46103     46104     46105     46106     46105     46107
     46106     46107     46108     46109     46108     46110     46109     46110
     46111     46112     46111     46113     46112     46113     46114     46115
     46114     46116     46115     46116     46117     46118     46117     46119
     46118     46119     46120     46121     46120     46122     46121     46122
     46123     46124     46123     46125     46124     46125     46126     46127
     46126     46128     46127     46128     46129     46130     46129     46131
     46130     46131     46132     46133     46132     46134     46133     46134
     46135     46136     46135     46137     46136     46137     46138     46139
     46138     46140     46139     46140     46141     46142     46141     46143
     46142     46143     46144     46145     46144     46146     46145     46146
     46147     46148     46147     46149     46148     46149     46150     46151
     46150     46152     46151     46152     46153     46154     46153     46155
     46154     46155     46156     46157     46156     46158     46157     46158
     46159     46160     46159     46161     46160     46161     46162     46163
     46162     46164     46163     46164     46165     46166     46165     46167
     46166     46167     46168     46169     46168     46170     46169     46170
     46171     46172     46171     46173     46172     46173     46174     46175
     46174     46176     46175     46176     46177     46178     46177     46179
     46178     46179     46180     46181     46180     46182     46181     46182
     46183     46184     46183     46185     46184     46185     46186     46187
     46186     46188     46187     46188     46189     46190     46189     46191
     46190     46191     46192     46193     46192     46194     46193     46194
     46195     46196     46195     46197     46196     46197     46198     46199
     46198     46200     46199     46200     46201     46202     46201     46203
     46202     46203     46204     46205     46204     46206     46205     46206
     46207     46208     46207     46209     46208     46209     46210     46211
     46210     46212     46211     46212     46213     46214     46213     46215
     46214     46215     46216     46217     46216     46218     46217     46218
     46219     46220     46219     46221     46220     46221     46222     46223
     46222     46224     46223     46224     46225     46226     46225     46227
     46226     46227     46228     46229     46228     46230     46229     46230
     46231     46232     46231     46233     46232     46233     46234     46235
     46234     46236     46235     46236     46237     46238     46237     46239
     46238     46239     46240     46241     46240     46242     46241     46242
     46243     46244     46243     46245     46244     46245     46246     46247
     46246     46248     46247     46248     46249     46250     46249     46251
     46250     46251     46252     46253     46252     46254     46253     46254
     46255     46256     46255     46257     46256     46257     46258     46259
     46258     46260     46259     46260     46261     46262     46261     46263
     46262     46263     46264     46265     46264     46266     46265     46266
     46267     46268     46267     46269     46268     46269     46270     46271
     46270     46272     46271     46272     46273     46274     46273     46275
     46274     46275     46276     46277     46276     46278     46277     46278
     46279     46280     46279     46281     46280     46281     46282     46283
     46282     46284     46283     46284     46285     46286     46285     46287
     46286     46287     46288     46289     46288     46290     46289     46290
     46291     46292     46291     46293     46292     46293     46294     46295
     46294     46296     46295     46296     46297     46298     46297     46299
     46298     46299     46300     46301     46300     46302     46301     46302
     46303     46304     46303     46305     46304     46305     46306     46307
     46306     46308     46307     46308     46309     46310     46309     46311
     46310     46311     46312     46313     46312     46314     46313     46314
     46315     46316     46315     46317     46316     46317     46318     46319
     46318     46320     46319     46320     46321     46322     46321     46323
     46322     46323     46324     46325     46324     46326     46325     46326
     46327     46328     46327     46329     46328     46329     46330     46331
     46330     46332     46331     46332     46333     46334     46333     46335
     46334     46335     46336     46337     46336     46338     46337     46338
     46339     46340     46339     46341     46340     46341     46342     46343
     46342     46344     46343     46344     46345     46346     46345     46347
     46346     46347     46348     46349     46348     46350     46349     46350
     46351     46352     46351     46353     46352     46353     46354     46355
     46354     46356     46355     46356     46357     46358     46357     46359
     46358     46359     46360     46361     46360     46362     46361     46362
     46363     46364     46363     46365     46364     46365     46366     46367
     46366     46368     46367     46368     46369     46370     46369     46371
     46370     46371     46372     46373     46372     46374     46373     46374
     46375     46376     46375     46377     46376     46377     46378     46379
     46378     46380     46379     46380     46381     46382     46381     46383
     46382     46383     46384     46385     46384     46386     46385     46386
     46387     46388     46387     46389     46388     46389     46390     46391
     46390     46392     46391     46392     46393     46394     46393     46395
     46394     46395     46396     46397     46396     46398     46397     46398
     46399     46400     46399     46401     46400     46401     46402     46403
     46402     46404     46403     46404     46405     46406     46405     46407
     46406     46407     46408     46409     46408     46410     46409     46410
     46411     46412     46411     46413     46412     46413     46414     46415
     46414     46416     46415     46416     46417     46418     46417     46419
     46418     46419     46420     46421     46420     46422     46421     46422
     46423     46424     46423     46425     46424     46425     46426     46427
     46426     46428     46427     46428     46429     46430     46429     46431
     46430     46431     46432     46433     46432     46434     46433     46434
     46435     46436     46435     46437     46436     46437     46438     46439
     46438     46440     46439     46440     46441     46442     46441     46443
     46442     46443     46444     46445     46444     46446     46445     46446
     46447     46448     46447     46449     46448     46449     46450     46451
     46450     46452     46451     46452     46453     46454     46453     46455
     46454     46455     46456     46457     46456     46458     46457     46458
     46459     46460     46459     46461     46460     46461     46462     46463
     46462     46464     46463     46464     46465     46466     46465     46467
     46466     46467     46468     46469     46468     46470     46469     46470
     46471     46472     46471     46473     46472     46473     46474     46475
     46474     46476     46475     46476     46477     46478     46477     46479
     46478     46479     46480     46481     46480     46482     46481     46482
     46483     46484     46483     46485     46484     46485     46486     46487
     46486     46488     46487     46488     46489     46490     46489     46491
     46490     46491     46492     46493     46492     46494     46493     46494
     46495     46496     46495     46497     46496     46497     46498     46499
     46498     46500     46499     46500     46501     46502     46501     46503
     46502     46503     46504     46505     46504     46506     46505     46506
     46507     46508     46507     46509     46508     46509     46510     46511
     46510     46512     46511     46512     46513     46514     46513     46515
     46514     46515     46516     46517     46516     46518     46517     46518
     46519     46520     46519     46521     46520     46521     46522     46523
     46522     46524     46523     46524     46525     46526     46525     46527
     46526     46527     46528     46529     46528     46530     46529     46530
     46531     46532     46531     46533     46532     46533     46534     46535
     46534     46536     46535     46536     46537     46538     46537     46539
     46538     46539     46540     46541     46540     46542     46541     46542
     46543     46544     46543     46545     46544     46545     46546     46547
     46546     46548     46547     46548     46549     46550     46549     46551
     46550     46551     46552     46553     46552     46554     46553     46554
     46555     46556     46555     46557     46556     46557     46558     46559
     46558     46560     46559     46560     46561     46562     46561     46563
     46562     46563     46564     46565     46564     46566     46565     46566
     46567     46568     46567     46569     46568     46569     46570     46571
     46570     46572     46571     46572     46573     46574     46573     46575
     46574     46575     46576     46577     46576     46578     46577     46578
     46579     46580     46579     46581     46580     46581     46582     46583
     46582     46584     46583     46584     46585     46586     46585     46587
     46586     46587     46588     46589     46588     46590     46589     46590
     46591     46592     46591     46593     46592     46593     46594     46595
     46594     46596     46595     46596     46597     46598     46597     46599
     46598     46599     46600     46601     46600     46602     46601     46602
     46603     46604     46603     46605     46604     46605     46606     46607
     46606     46608     46607     46608     46609     46610     46609     46611
     46610     46611     46612     46613     46612     46614     46613     46614
     46615     46616     46615     46617     46616     46617     46618     46619
     46618     46620     46619     46620     46621     46622     46621     46623
     46622     46623     46624     46625     46624     46626     46625     46626
     46627     46628     46627     46629     46628     46629     46630     46631
     46630     46632     46631     46632     46633     46634     46633     46635
     46634     46635     46636     46637     46636     46638     46637     46638
     46639     46640     46639     46641     46640     46641     46642     46643
     46642     46644     46643     46644     46645     46646     46645     46647
     46646     46647     46648     46649     46648     46650     46649     46650
     46651     46652     46651     46653     46652     46653     46654     46655
     46654     46656     46655     46656     46657     46658     46657     46659
     46658     46659     46660     46661     46660     46662     46661     46662
     46663     46664     46663     46665     46664     46665     46666     46667
     46666     46668     46667     46668     46669     46670     46669     46671
     46670     46671     46672     46673     46672     46674     46673     46674
     46675     46676     46675     46677     46676     46677     46678     46679
     46678     46680     46679     46680     46681     46682     46681     46683
     46682     46683     46684     46685     46684     46686     46685     46686
     46687     46688     46687     46689     46688     46689     46690     46691
     46690     46692     46691     46692     46693     46694     46693     46695
     46694     46695     46696     46697     46696     46698     46697     46698
     46699     46700     46699     46701     46700     46701     46702     46703
     46702     46704     46703     46704     46705     46706     46705     46707
     46706     46707     46708     46709     46708     46710     46709     46710
     46711     46712     46711     46713     46712     46713     46714     46715
     46714     46716     46715     46716     46717     46718     46717     46719
     46718     46719     46720     46721     46720     46722     46721     46722
     46723     46724     46723     46725     46724     46725     46726     46727
     46726     46728     46727     46728     46729     46730     46729     46731
     46730     46731     46732     46733     46732     46734     46733     46734
     46735     46736     46735     46737     46736     46737     46738     46739
     46738     46740     46739     46740     46741     46742     46741     46743
     46742     46743     46744     46745     46744     46746     46745     46746
     46747     46748     46747     46749     46748     46749     46750     46751
     46750     46752     46751     46752     46753     46754     46753     46755
     46754     46755     46756     46757     46756     46758     46757     46758
     46759     46760     46759     46761     46760     46761     46762     46763
     46762     46764     46763     46764     46765     46766     46765     46767
     46766     46767     46768     46769     46768     46770     46769     46770
     46771     46772     46771     46773     46772     46773     46774     46775
     46774     46776     46775     46776     46777     46778     46777     46779
     46778     46779     46780     46781     46780     46782     46781     46782
     46783     46784     46783     46785     46784     46785     46786     46787
     46786     46788     46787     46788     46789     46790     46789     46791
     46790     46791     46792     46793     46792     46794     46793     46794
     46795     46796     46795     46797     46796     46797     46798     46799
     46798     46800     46799     46800     46801     46802     46801     46803
     46802     46803     46804     46805     46804     46806     46805     46806
     46807     46808     46807     46809     46808     46809     46810     46811
     46810     46812     46811     46812     46813     46814     46813     46815
     46814     46815     46816     46817     46816     46818     46817     46818
     46819     46820     46819     46821     46820     46821     46822     46823
     46822     46824     46823     46824     46825     46826     46825     46827
     46826     46827     46828     46829     46828     46830     46829     46830
     46831     46832     46831     46833     46832     46833     46834     46835
     46834     46836     46835     46836     46837     46838     46837     46839
     46838     46839     46840     46841     46840     46842     46841     46842
     46843     46844     46843     46845     46844     46845     46846     46847
     46846     46848     46847     46848     46849     46850     46849     46851
     46850     46851     46852     46853     46852     46854     46853     46854
     46855     46856     46855     46857     46856     46857     46858     46859
     46858     46860     46859     46860     46861     46862     46861     46863
     46862     46863     46864     46865     46864     46866     46865     46866
     46867     46868     46867     46869     46868     46869     46870     46871
     46870     46872     46871     46872     46873     46874     46873     46875
     46874     46875     46876     46877     46876     46878     46877     46878
     46879     46880     46879     46881     46880     46881     46882     46883
     46882     46884     46883     46884     46885     46886     46885     46887
     46886     46887     46888     46889     46888     46890     46889     46890
     46891     46892     46891     46893     46892     46893     46894     46895
     46894     46896     46895     46896     46897     46898     46897     46899
     46898     46899     46900     46901     46900     46902     46901     46902
     46903     46904     46903     46905     46904     46905     46906     46907
     46906     46908     46907     46908     46909     46910     46909     46911
     46910     46911     46912     46913     46912     46914     46913     46914
     46915     46916     46915     46917     46916     46917     46918     46919
     46918     46920     46919     46920     46921     46922     46921     46923
     46922     46923     46924     46925     46924     46926     46925     46926
     46927     46928     46927     46929     46928     46929     46930     46931
     46930     46932     46931     46932     46933     46934     46933     46935
     46934     46935     46936     46937     46936     46938     46937     46938
     46939     46940     46939     46941     46940     46941     46942     46943
     46942     46944     46943     46944     46945     46946     46945     46947
     46946     46947     46948     46949     46948     46950     46949     46950
     46951     46952     46951     46953     46952     46953     46954     46955
     46954     46956     46955     46956     46957     46958     46957     46959
     46958     46959     46960     46961     46960     46962     46961     46962
     46963     46964     46963     46965     46964     46965     46966     46967
     46966     46968     46967     46968     46969     46970     46969     46971
     46970     46971     46972     46973     46972     46974     46973     46974
     46975     46976     46975     46977     46976     46977     46978     46979
     46978     46980     46979     46980     46981     46982     46981     46983
     46982     46983     46984     46985     46984     46986     46985     46986
     46987     46988     46987     46989     46988     46989     46990     46991
     46990     46992     46991     46992     46993     46994     46993     46995
     46994     46995     46996     46997     46996     46998     46997     46998
     46999     47000     46999     47001     47000     47001     47002     47003
     47002     47004     47003     47004     47005     47006     47005     47007
     47006     47007     47008     47009     47008     47010     47009     47010
     47011     47012     47011     47013     47012     47013     47014     47015
     47014     47016     47015     47016     47017     47018     47017     47019
     47018     47019     47020     47021     47020     47022     47021     47022
     47023     47024     47023     47025     47024     47025     47026     47027
     47026     47028     47027     47028     47029     47030     47029     47031
     47030     47031     47032     47033     47032     47034     47033     47034
     47035     47036     47035     47037     47036     47037     47038     47039
     47038     47040     47039     47040     47041     47042     47041     47043
     47042     47043     47044     47045     47044     47046     47045     47046
     47047     47048     47047     47049     47048     47049     47050     47051
     47050     47052     47051     47052     47053     47054     47053     47055
     47054     47055     47056     47057     47056     47058     47057     47058
     47059     47060     47059     47061     47060     47061     47062     47063
     47062     47064     47063     47064     47065     47066     47065     47067
     47066     47067     47068     47069     47068     47070     47069     47070
     47071     47072     47071     47073     47072     47073     47074     47075
     47074     47076     47075     47076     47077     47078     47077     47079
     47078     47079     47080     47081     47080     47082     47081     47082
     47083     47084     47083     47085     47084     47085     47086     47087
     47086     47088     47087     47088     47089     47090     47089     47091
     47090     47091     47092     47093     47092     47094     47093     47094
     47095     47096     47095     47097     47096     47097     47098     47099
     47098     47100     47099     47100     47101     47102     47101     47103
     47102     47103     47104     47105     47104     47106     47105     47106
     47107     47108     47107     47109     47108     47109     47110     47111
     47110     47112     47111     47112     47113     47114     47113     47115
     47114     47115     47116     47117     47116     47118     47117     47118
     47119     47120     47119     47121     47120     47121     47122     47123
     47122     47124     47123     47124     47125     47126     47125     47127
     47126     47127     47128     47129     47128     47130     47129     47130
     47131     47132     47131     47133     47132     47133     47134     47135
     47134     47136     47135     47136     47137     47138     47137     47139
     47138     47139     47140     47141     47140     47142     47141     47142
     47143     47144     47143     47145     47144     47145     47146     47147
     47146     47148     47147     47148     47149     47150     47149     47151
     47150     47151     47152     47153     47152     47154     47153     47154
     47155     47156     47155     47157     47156     47157     47158     47159
     47158     47160     47159     47160     47161     47162     47161     47163
     47162     47163     47164     47165     47164     47166     47165     47166
     47167     47168     47167     47169     47168     47169     47170     47171
     47170     47172     47171     47172     47173     47174     47173     47175
     47174     47175     47176     47177     47176     47178     47177     47178
     47179     47180     47179     47181     47180     47181     47182     47183
     47182     47184     47183     47184     47185     47186     47185     47187
     47186     47187     47188     47189     47188     47190     47189     47190
     47191     47192     47191     47193     47192     47193     47194     47195
     47194     47196     47195     47196     47197     47198     47197     47199
     47198     47199     47200     47201     47200     47202     47201     47202
     47203     47204     47203     47205     47204     47205     47206     47207
     47206     47208     47207     47208     47209     47210     47209     47211
     47210     47211     47212     47213     47212     47214     47213     47214
     47215     47216     47215     47217     47216     47217     47218     47219
     47218     47220     47219     47220     47221     47222     47221     47223
     47222     47223     47224     47225     47224     47226     47225     47226
     47227     47228     47227     47229     47228     47229     47230     47231
     47230     47232     47231     47232     47233     47234     47233     47235
     47234     47235     47236     47237     47236     47238     47237     47238
     47239     47240     47239     47241     47240     47241     47242     47243
     47242     47244     47243     47244     47245     47246     47245     47247
     47246     47247     47248     47249     47248     47250     47249     47250
     47251     47252     47251     47253     47252     47253     47254     47255
     47254     47256     47255     47256     47257     47258     47257     47259
     47258     47259     47260     47261     47260     47262     47261     47262
     47263     47264     47263     47265     47264     47265     47266     47267
     47266     47268     47267     47268     47269     47270     47269     47271
     47270     47271     47272     47273     47272     47274     47273     47274
     47275     47276     47275     47277     47276     47277     47278     47279
     47278     47280     47279     47280     47281     47282     47281     47283
     47282     47283     47284     47285     47284     47286     47285     47286
     47287     47288     47287     47289     47288     47289     47290     47291
     47290     47292     47291     47292     47293     47294     47293     47295
     47294     47295     47296     47297     47296     47298     47297     47298
     47299     47300     47299     47301     47300     47301     47302     47303
     47302     47304     47303     47304     47305     47306     47305     47307
     47306     47307     47308     47309     47308     47310     47309     47310
     47311     47312     47311     47313     47312     47313     47314     47315
     47314     47316     47315     47316     47317     47318     47317     47319
     47318     47319     47320     47321     47320     47322     47321     47322
     47323     47324     47323     47325     47324     47325     47326     47327
     47326     47328     47327     47328     47329     47330     47329     47331
     47330     47331     47332     47333     47332     47334     47333     47334
     47335     47336     47335     47337     47336     47337     47338     47339
     47338     47340     47339     47340     47341     47342     47341     47343
     47342     47343     47344     47345     47344     47346     47345     47346
     47347     47348     47347     47349     47348     47349     47350     47351
     47350     47352     47351     47352     47353     47354     47353     47355
     47354     47355     47356     47357     47356     47358     47357     47358
     47359     47360     47359     47361     47360     47361     47362     47363
     47362     47364     47363     47364     47365     47366     47365     47367
     47366     47367     47368     47369     47368     47370     47369     47370
     47371     47372     47371     47373     47372     47373     47374     47375
     47374     47376     47375     47376     47377     47378     47377     47379
     47378     47379     47380     47381     47380     47382     47381     47382
     47383     47384     47383     47385     47384     47385     47386     47387
     47386     47388     47387     47388     47389     47390     47389     47391
     47390     47391     47392     47393     47392     47394     47393     47394
     47395     47396     47395     47397     47396     47397     47398     47399
     47398     47400     47399     47400     47401     47402     47401     47403
     47402     47403     47404     47405     47404     47406     47405     47406
     47407     47408     47407     47409     47408     47409     47410     47411
     47410     47412     47411     47412     47413     47414     47413     47415
     47414     47415     47416     47417     47416     47418     47417     47418
     47419     47420     47419     47421     47420     47421     47422     47423
     47422     47424     47423     47424     47425     47426     47425     47427
     47426     47427     47428     47429     47428     47430     47429     47430
     47431     47432     47431     47433     47432     47433     47434     47435
     47434     47436     47435     47436     47437     47438     47437     47439
     47438     47439     47440     47441     47440     47442     47441     47442
     47443     47444     47443     47445     47444     47445     47446     47447
     47446     47448     47447     47448     47449     47450     47449     47451
     47450     47451     47452     47453     47452     47454     47453     47454
     47455     47456     47455     47457     47456     47457     47458     47459
     47458     47460     47459     47460     47461     47462     47461     47463
     47462     47463     47464     47465     47464     47466     47465     47466
     47467     47468     47467     47469     47468     47469     47470     47471
     47470     47472     47471     47472     47473     47474     47473     47475
     47474     47475     47476     47477     47476     47478     47477     47478
     47479     47480     47479     47481     47480     47481     47482     47483
     47482     47484     47483     47484     47485     47486     47485     47487
     47486     47487     47488     47489     47488     47490     47489     47490
     47491     47492     47491     47493     47492     47493     47494     47495
     47494     47496     47495     47496     47497     47498     47497     47499
     47498     47499     47500     47501     47500     47502     47501     47502
     47503     47504     47503     47505     47504     47505     47506     47507
     47506     47508     47507     47508     47509     47510     47509     47511
     47510     47511     47512     47513     47512     47514     47513     47514
     47515     47516     47515     47517     47516     47517     47518     47519
     47518     47520     47519     47520     47521     47522     47521     47523
     47522     47523     47524     47525     47524     47526     47525     47526
     47527     47528     47527     47529     47528     47529     47530     47531
     47530     47532     47531     47532     47533     47534     47533     47535
     47534     47535     47536     47537     47536     47538     47537     47538
     47539     47540     47539     47541     47540     47541     47542     47543
     47542     47544     47543     47544     47545     47546     47545     47547
     47546     47547     47548     47549     47548     47550     47549     47550
     47551     47552     47551     47553     47552     47553     47554     47555
     47554     47556     47555     47556     47557     47558     47557     47559
     47558     47559     47560     47561     47560     47562     47561     47562
     47563     47564     47563     47565     47564     47565     47566     47567
     47566     47568     47567     47568     47569     47570     47569     47571
     47570     47571     47572     47573     47572     47574     47573     47574
     47575     47576     47575     47577     47576     47577     47578     47579
     47578     47580     47579     47580     47581     47582     47581     47583
     47582     47583     47584     47585     47584     47586     47585     47586
     47587     47588     47587     47589     47588     47589     47590     47591
     47590     47592     47591     47592     47593     47594     47593     47595
     47594     47595     47596     47597     47596     47598     47597     47598
     47599     47600     47599     47601     47600     47601     47602     47603
     47602     47604     47603     47604     47605     47606     47605     47607
     47606     47607     47608     47609     47608     47610     47609     47610
     47611     47612     47611     47613     47612     47613     47614     47615
     47614     47616     47615     47616     47617     47618     47617     47619
     47618     47619     47620     47621     47620     47622     47621     47622
     47623     47624     47623     47625     47624     47625     47626     47627
     47626     47628     47627     47628     47629     47630     47629     47631
     47630     47631     47632     47633     47632     47634     47633     47634
     47635     47636     47635     47637     47636     47637     47638     47639
     47638     47640     47639     47640     47641     47642     47641     47643
     47642     47643     47644     47645     47644     47646     47645     47646
     47647     47648     47647     47649     47648     47649     47650     47651
     47650     47652     47651     47652     47653     47654     47653     47655
     47654     47655     47656     47657     47656     47658     47657     47658
     47659     47660     47659     47661     47660     47661     47662     47663
     47662     47664     47663     47664     47665     47666     47665     47667
     47666     47667     47668     47669     47668     47670     47669     47670
     47671     47672     47671     47673     47672     47673     47674     47675
     47674     47676     47675     47676     47677     47678     47677     47679
     47678     47679     47680     47681     47680     47682     47681     47682
     47683     47684     47683     47685     47684     47685     47686     47687
     47686     47688     47687     47688     47689     47690     47689     47691
     47690     47691     47692     47693     47692     47694     47693     47694
     47695     47696     47695     47697     47696     47697     47698     47699
     47698     47700     47699     47700     47701     47702     47701     47703
     47702     47703     47704     47705     47704     47706     47705     47706
     47707     47708     47707     47709     47708     47709     47710     47711
     47710     47712     47711     47712     47713     47714     47713     47715
     47714     47715     47716     47717     47716     47718     47717     47718
     47719     47720     47719     47721     47720     47721     47722     47723
     47722     47724     47723     47724     47725     47726     47725     47727
     47726     47727     47728     47729     47728     47730     47729     47730
     47731     47732     47731     47733     47732     47733     47734     47735
     47734     47736     47735     47736     47737     47738     47737     47739
     47738     47739     47740     47741     47740     47742     47741     47742

     54458 !NTHETA: angles
         2         1         3         2         1         5         2         1        47
         3         1         5         3         1        47         5         1        47
         1         3         4         1         5         6         1         5         7
         1         5         8         6         5         7         6         5         8
         7         5         8         5         8         9         5         8        39
         9         8        39         8         9        10         8         9        11
        10         9        11         9        11        12         9        11        13
         9        11        14        12        11        13        12        11        14
        13        11        14        11        14        15        11        14        16
        11        14        37        15        14        16        15        14        37
        16        14        37        14        16        17        14        16        18
        14        16        26        17        16        18        17        16        26
        18        16        26        16        18        19        16        18        20
        16        18        21        19        18        20        19        18        21
        20        18        21        18        21        22        18        21        23
        18        21        24        22        21        23        22        21        24
        23        21        24        21        24        25        21        24        26
        21        24        50        25        24        26        25        24        50
        26        24        50        16        26        24        16        26        27
        16        26        31        24        26        27        24        26        31
        27        26        31        26        27        28        26        27        29
        26        27        30        28        27        29        28        27        30
        29        27        30        26        31        32        26        31        33
        26        31        34        32        31        33        32        31        34
        33        31        34        31        34        35        31        34        36
        31        34        37        35        34        36        35        34        37
        36        34        37        14        37        34        14        37        38
        14        37        39        34        37        38        34        37        39
        38        37        39         8        39        37         8        39        40
         8        39        44        37        39        40        37        39        44
        40        39        44        39        40        41        39        40        42
        39        40        43        41        40        42        41        40        43
        42        40        43        39        44        45        39        44        46
        39        44        47        45        44        46        45        44        47
        46        44        47         1        47        44         1        47        48
         1        47        49        44        47        48        44        47        49
        48        47        49        24        50        51        24        50        52
        24        50        56        51        50        52        51        50        56
        52        50        56        50        52        53        50        52        54
        50        52        55        53        52        54        53        52        55
        54        52        55        50        56        57        50        56        58
        50        56        59        57        56        58        57        56        59
        58        56        59        56        59        60        56        59        61
        56        59        62        60        59        61        60        59        62
        61        59        62        59        62        63        59        62        64
        59        62        65        63        62        64        63        62        65
        64        62        65        62        65        66        62        65        67
        62        65        71        66        65        67        66        65        71
        67        65        71        65        67        68        65        67        69
        65        67        70        68        67        69        68        67        70
        69        67        70        65        71        72        65        71        73
        65        71        74        72        71        73        72        71        74
        73        71        74      2222      2221      2223      2222      2221      2224
      2222      2221      2225      2223      2221      2224      2223      2221      2225
      2224      2221      2225      2221      2225      2226      2221      2225      2227
      2221      2225      2228      2226      2225      2227      2226      2225      2228
      2227      2225      2228      2225      2228      2229      2225      2228      2230
      2225      2228      2235      2229      2228      2230      2229      2228      2235
      2230      2228      2235      2232      2231      2233      2232      2231      2234
      2232      2231      2235      2233      2231      2234      2233      2231      2235
      2234      2231      2235      2231      2234      2236      2228      2235      2231
      2234      2236      2237      2234      2236      2238      2234      2236      2239
      2237      2236      2238      2237      2236      2239      2238      2236      2239
      2236      2239      2240      2236      2239      2241      2236      2239      2247
      2240      2239      2241      2240      2239      2247      2241      2239      2247
      2239      2241      2242      2241      2242      2243      2241      2242      2244
      2243      2242      2244      2242      2244      2245      2242      2244      2246
      2242      2244      2256      2245      2244      2246      2245      2244      2256
      2246      2244      2256      2239      2247      2248      2239      2247      2249
      2239      2247      2250      2248      2247      2249      2248      2247      2250
      2249      2247      2250      2247      2250      2251      2250      2251      2252
      2250      2251      2253      2252      2251      2253      2251      2253      2254
      2251      2253      2255      2251      2253      2303      2254      2253      2255
      2254      2253      2303      2255      2253      2303      2244      2256      2257
      2244      2256      2258      2244      2256      2259      2257      2256      2258
      2257      2256      2259      2258      2256      2259      2256      2259      2260
      2256      2259      2261      2256      2259      2262      2260      2259      2261
      2260      2259      2262      2261      2259      2262      2259      2262      2263
      2259      2262      2264      2259      2262      2265      2263      2262      2264
      2263      2262      2265      2264      2262      2265      2262      2265      2266
      2262      2265      2267      2262      2265      2268      2266      2265      2267
      2266      2265      2268      2267      2265      2268      2265      2268      2269
      2265      2268      2270      2265      2268      2271      2269      2268      2270
      2269      2268      2271      2270      2268      2271      2268      2271      2272
      2268      2271      2273      2268      2271      2274      2272      2271      2273
      2272      2271      2274      2273      2271      2274      2271      2274      2275
      2271      2274      2276      2275      2274      2276      2274      2276      2277
      2274      2276      2278      2277      2276      2278      2276      2278      2279
      2276      2278      2280      2276      2278      2281      2279      2278      2280
      2279      2278      2281      2280      2278      2281      2278      2281      2282
      2278      2281      2283      2278      2281      2284      2282      2281      2283
      2282      2281      2284      2283      2281      2284      2281      2284      2285
      2281      2284      2286      2281      2284      2287      2285      2284      2286
      2285      2284      2287      2286      2284      2287      2284      2287      2288
      2284      2287      2289      2284      2287      2290      2288      2287      2289
      2288      2287      2290      2289      2287      2290      2287      2290      2291
      2287      2290      2292      2287      2290      2293      2291      2290      2292
      2291      2290      2293      2292      2290      2293      2290      2293      2294
      2290      2293      2295      2290      2293      2296      2294      2293      2295
      2294      2293      2296      2295      2293      2296      2293      2296      2297
      2293      2296      2298      2293      2296      2299      2297      2296      2298
      2297      2296      2299      2298      2296      2299      2296      2299      2300
      2296      2299      2301      2296      2299      2302      2300      2299      2301
      2300      2299      2302      2301      2299      2302      2253      2303      2304
      2253      2303      2305      2253      2303      2306      2304      2303      2305
      2304      2303      2306      2305      2303      2306      2303      2306      2307
      2303      2306      2308      2303      2306      2309      2307      2306      2308
      2307      2306      2309      2308      2306      2309      2306      2309      2310
      2306      2309      2311      2306      2309      2312      2310      2309      2311
      2310      2309      2312      2311      2309      2312      2309      2312      2313
      2309      2312      2314      2309      2312      2315      2313      2312      2314
      2313      2312      2315      2314      2312      2315      2312      2315      2316
      2312      2315      2317      2312      2315      2318      2316      2315      2317
      2316      2315      2318      2317      2315      2318      2315      2318      2319
      2315      2318      2320      2315      2318      2321      2319      2318      2320
      2319      2318      2321      2320      2318      2321      2318      2321      2322
      2318      2321      2323      2318      2321      2324      2322      2321      2323
      2322      2321      2324      2323      2321      2324      2321      2324      2325
      2321      2324      2326      2321      2324      2327      2325      2324      2326
      2325      2324      2327      2326      2324      2327      2324      2327      2328
      2324      2327      2329      2324      2327      2330      2328      2327      2329
      2328      2327      2330      2329      2327      2330      2327      2330      2331
      2327      2330      2332      2327      2330      2333      2331      2330      2332
      2331      2330      2333      2332      2330      2333      2330      2333      2334
      2330      2333      2335      2330      2333      2336      2334      2333      2335
      2334      2333      2336      2335      2333      2336      2333      2336      2337
      2333      2336      2338      2333      2336      2339      2337      2336      2338
      2337      2336      2339      2338      2336      2339      2336      2339      2340
      2336      2339      2341      2336      2339      2342      2340      2339      2341
      2340      2339      2342      2341      2339      2342      2339      2342      2343
      2339      2342      2344      2339      2342      2345      2343      2342      2344
      2343      2342      2345      2344      2342      2345      8472      8471      8473
      8472      8471      8474      8472      8471      8475      8473      8471      8474
      8473      8471      8475      8474      8471      8475      8471      8475      8476
      8471      8475      8477      8471      8475      8480      8476      8475      8477
      8476      8475      8480      8477      8475      8480      8475      8477      8478
      8475      8477      8479      8478      8477      8479      8475      8480      8481
      8475      8480      8482      8475      8480      8486      8481      8480      8482
      8481      8480      8486      8482      8480      8486      8484      8483      8485
      8484      8483      8486      8484      8483      8487      8485      8483      8486
      8485      8483      8487      8486      8483      8487      8480      8486      8483
      8483      8487      8488      8487      8488      8489      8487      8488      8490
      8487      8488      8491      8489      8488      8490      8489      8488      8491
      8490      8488      8491      8488      8491      8492      8488      8491      8493
      8488      8491      8499      8492      8491      8493      8492      8491      8499
      8493      8491      8499      8491      8493      8494      8493      8494      8495
      8493      8494      8496      8495      8494      8496      8494      8496      8497
      8494      8496      8498      8494      8496      8508      8497      8496      8498
      8497      8496      8508      8498      8496      8508      8491      8499      8500
      8491      8499      8501      8491      8499      8502      8500      8499      8501
      8500      8499      8502      8501      8499      8502      8499      8502      8503
      8502      8503      8504      8502      8503      8505      8504      8503      8505
      8503      8505      8506      8503      8505      8507      8503      8505      8555
      8506      8505      8507      8506      8505      8555      8507      8505      8555
      8496      8508      8509      8496      8508      8510      8496      8508      8511
      8509      8508      8510      8509      8508      8511      8510      8508      8511
      8508      8511      8512      8508      8511      8513      8508      8511      8514
      8512      8511      8513      8512      8511      8514      8513      8511      8514
      8511      8514      8515      8511      8514      8516      8511      8514      8517
      8515      8514      8516      8515      8514      8517      8516      8514      8517
      8514      8517      8518      8514      8517      8519      8514      8517      8520
      8518      8517      8519      8518      8517      8520      8519      8517      8520
      8517      8520      8521      8517      8520      8522      8517      8520      8523
      8521      8520      8522      8521      8520      8523      8522      8520      8523
      8520      8523      8524      8520      8523      8525      8520      8523      8526
      8524      8523      8525      8524      8523      8526      8525      8523      8526
      8523      8526      8527      8523      8526      8528      8527      8526      8528
      8526      8528      8529      8526      8528      8530      8529      8528      8530
      8528      8530      8531      8528      8530      8532      8528      8530      8533
      8531      8530      8532      8531      8530      8533      8532      8530      8533
      8530      8533      8534      8530      8533      8535      8530      8533      8536
      8534      8533      8535      8534      8533      8536      8535      8533      8536
      8533      8536      8537      8533      8536      8538      8533      8536      8539
      8537      8536      8538      8537      8536      8539      8538      8536      8539
      8536      8539      8540      8536      8539      8541      8536      8539      8542
      8540      8539      8541      8540      8539      8542      8541      8539      8542
      8539      8542      8543      8539      8542      8544      8539      8542      8545
      8543      8542      8544      8543      8542      8545      8544      8542      8545
      8542      8545      8546      8542      8545      8547      8542      8545      8548
      8546      8545      8547      8546      8545      8548      8547      8545      8548
      8545      8548      8549      8545      8548      8550      8545      8548      8551
      8549      8548      8550      8549      8548      8551      8550      8548      8551
      8548      8551      8552      8548      8551      8553      8548      8551      8554
      8552      8551      8553      8552      8551      8554      8553      8551      8554
      8505      8555      8556      8505      8555      8557      8505      8555      8558
      8556      8555      8557      8556      8555      8558      8557      8555      8558
      8555      8558      8559      8555      8558      8560      8555      8558      8561
      8559      8558      8560      8559      8558      8561      8560      8558      8561
      8558      8561      8562      8558      8561      8563      8558      8561      8564
      8562      8561      8563      8562      8561      8564      8563      8561      8564
      8561      8564      8565      8561      8564      8566      8561      8564      8567
      8565      8564      8566      8565      8564      8567      8566      8564      8567
      8564      8567      8568      8564      8567      8569      8564      8567      8570
      8568      8567      8569      8568      8567      8570      8569      8567      8570
      8567      8570      8571      8567      8570      8572      8567      8570      8573
      8571      8570      8572      8571      8570      8573      8572      8570      8573
      8570      8573      8574      8570      8573      8575      8570      8573      8576
      8574      8573      8575      8574      8573      8576      8575      8573      8576
      8573      8576      8577      8573      8576      8578      8573      8576      8579
      8577      8576      8578      8577      8576      8579      8578      8576      8579
      8576      8579      8580      8576      8579      8581      8576      8579      8582
      8580      8579      8581      8580      8579      8582      8581      8579      8582
      8579      8582      8583      8579      8582      8584      8579      8582      8585
      8583      8582      8584      8583      8582      8585      8584      8582      8585
      8582      8585      8586      8582      8585      8587      8582      8585      8588
      8586      8585      8587      8586      8585      8588      8587      8585      8588
      8585      8588      8589      8585      8588      8590      8585      8588      8591
      8589      8588      8590      8589      8588      8591      8590      8588      8591
      8588      8591      8592      8588      8591      8593      8588      8591      8594
      8592      8591      8593      8592      8591      8594      8593      8591      8594
      8591      8594      8595      8591      8594      8596      8591      8594      8597
      8595      8594      8596      8595      8594      8597      8596      8594      8597
        76        75        77        76        75        79        76        75       121
        77        75        79        77        75       121        79        75       121
        75        77        78        75        79        80        75        79        81
        75        79        82        80        79        81        80        79        82
        81        79        82        79        82        83        79        82       113
        83        82       113        82        83        84        82        83        85
        84        83        85        83        85        86        83        85        87
        83        85        88        86        85        87        86        85        88
        87        85        88        85        88        89        85        88        90
        85        88       111        89        88        90        89        88       111
        90        88       111        88        90        91        88        90        92
        88        90       100        91        90        92        91        90       100
        92        90       100        90        92        93        90        92        94
        90        92        95        93        92        94        93        92        95
        94        92        95        92        95        96        92        95        97
        92        95        98        96        95        97        96        95        98
        97        95        98        95        98        99        95        98       100
        95        98       124        99        98       100        99        98       124
       100        98       124        90       100        98        90       100       101
        90       100       105        98       100       101        98       100       105
       101       100       105       100       101       102       100       101       103
       100       101       104       102       101       103       102       101       104
       103       101       104       100       105       106       100       105       107
       100       105       108       106       105       107       106       105       108
       107       105       108       105       108       109       105       108       110
       105       108       111       109       108       110       109       108       111
       110       108       111        88       111       108        88       111       112
        88       111       113       108       111       112       108       111       113
       112       111       113        82       113       111        82       113       114
        82       113       118       111       113       114       111       113       118
       114       113       118       113       114       115       113       114       116
       113       114       117       115       114       116       115       114       117
       116       114       117       113       118       119       113       118       120
       113       118       121       119       118       120       119       118       121
       120       118       121        75       121       118        75       121       122
        75       121       123       118       121       122       118       121       123
       122       121       123        98       124       125        98       124       126
        98       124       130       125       124       126       125       124       130
       126       124       130       124       126       127       124       126       128
       124       126       129       127       126       128       127       126       129
       128       126       129       124       130       131       124       130       132
       124       130       133       131       130       132       131       130       133
       132       130       133       130       133       134       130       133       135
       130       133       136       134       133       135       134       133       136
       135       133       136       133       136       137       133       136       138
       133       136       139       137       136       138       137       136       139
       138       136       139       136       139       140       136       139       141
       136       139       145       140       139       141       140       139       145
       141       139       145       139       141       142       139       141       143
       139       141       144       142       141       143       142       141       144
       143       141       144       139       145       146       139       145       147
       139       145       148       146       145       147       146       145       148
       147       145       148     13552     13551     13555     13552     13551     13559
     13552     13551     13563     13555     13551     13559     13555     13551     13563
     13559     13551     13563     13551     13552     13553     13551     13552     13554
     13551     13552     13567     13553     13552     13554     13553     13552     13567
     13554     13552     13567     13551     13555     13556     13551     13555     13557
     13551     13555     13558     13556     13555     13557     13556     13555     13558
     13557     13555     13558     13551     13559     13560     13551     13559     13561
     13551     13559     13562     13560     13559     13561     13560     13559     13562
     13561     13559     13562     13551     13563     13564     13551     13563     13565
     13551     13563     13566     13564     13563     13565     13564     13563     13566
     13565     13563     13566     13552     13567     13568     13552     13567     13569
     13552     13567     13573     13568     13567     13569     13568     13567     13573
     13569     13567     13573     13571     13570     13572     13571     13570     13573
     13571     13570     13574     13572     13570     13573     13572     13570     13574
     13573     13570     13574     13567     13573     13570     13570     13574     13575
     13574     13575     13576     13574     13575     13577     13574     13575     13578
     13576     13575     13577     13576     13575     13578     13577     13575     13578
     13575     13578     13579     13575     13578     13580     13575     13578     13586
     13579     13578     13580     13579     13578     13586     13580     13578     13586
     13578     13580     13581     13580     13581     13582     13580     13581     13583
     13582     13581     13583     13581     13583     13584     13581     13583     13585
     13581     13583     13595     13584     13583     13585     13584     13583     13595
     13585     13583     13595     13578     13586     13587     13578     13586     13588
     13578     13586     13589     13587     13586     13588     13587     13586     13589
     13588     13586     13589     13586     13589     13590     13589     13590     13591
     13589     13590     13592     13591     13590     13592     13590     13592     13593
     13590     13592     13594     13590     13592     13642     13593     13592     13594
     13593     13592     13642     13594     13592     13642     13583     13595     13596
     13583     13595     13597     13583     13595     13598     13596     13595     13597
     13596     13595     13598     13597     13595     13598     13595     13598     13599
     13595     13598     13600     13595     13598     13601     13599     13598     13600
     13599     13598     13601     13600     13598     13601     13598     13601     13602
     13598     13601     13603     13598     13601     13604     13602     13601     13603
     13602     13601     13604     13603     13601     13604     13601     13604     13605
     13601     13604     13606     13601     13604     13607     13605     13604     13606
     13605     13604     13607     13606     13604     13607     13604     13607     13608
     13604     13607     13609     13604     13607     13610     13608     13607     13609
     13608     13607     13610     13609     13607     13610     13607     13610     13611
     13607     13610     13612     13607     13610     13613     13611     13610     13612
     13611     13610     13613     13612     13610     13613     13610     13613     13614
     13610     13613     13615     13614     13613     13615     13613     13615     13616
     13613     13615     13617     13616     13615     13617     13615     13617     13618
     13615     13617     13619     13615     13617     13620     13618     13617     13619
     13618     13617     13620     13619     13617     13620     13617     13620     13621
     13617     13620     13622     13617     13620     13623     13621     13620     13622
     13621     13620     13623     13622     13620     13623     13620     13623     13624
     13620     13623     13625     13620     13623     13626     13624     13623     13625
     13624     13623     13626     13625     13623     13626     13623     13626     13627
     13623     13626     13628     13623     13626     13629     13627     13626     13628
     13627     13626     13629     13628     13626     13629     13626     13629     13630
     13626     13629     13631     13626     13629     13632     13630     13629     13631
     13630     13629     13632     13631     13629     13632     13629     13632     13633
     13629     13632     13634     13629     13632     13635     13633     13632     13634
     13633     13632     13635     13634     13632     13635     13632     13635     13636
     13632     13635     13637     13632     13635     13638     13636     13635     13637
     13636     13635     13638     13637     13635     13638     13635     13638     13639
     13635     13638     13640     13635     13638     13641     13639     13638     13640
     13639     13638     13641     13640     13638     13641     13592     13642     13643
     13592     13642     13644     13592     13642     13645     13643     13642     13644
     13643     13642     13645     13644     13642     13645     13642     13645     13646
     13642     13645     13647     13642     13645     13648     13646     13645     13647
     13646     13645     13648     13647     13645     13648     13645     13648     13649
     13645     13648     13650     13645     13648     13651     13649     13648     13650
     13649     13648     13651     13650     13648     13651     13648     13651     13652
     13648     13651     13653     13648     13651     13654     13652     13651     13653
     13652     13651     13654     13653     13651     13654     13651     13654     13655
     13651     13654     13656     13651     13654     13657     13655     13654     13656
     13655     13654     13657     13656     13654     13657     13654     13657     13658
     13654     13657     13659     13654     13657     13660     13658     13657     13659
     13658     13657     13660     13659     13657     13660     13657     13660     13661
     13657     13660     13662     13657     13660     13663     13661     13660     13662
     13661     13660     13663     13662     13660     13663     13660     13663     13664
     13660     13663     13665     13660     13663     13666     13664     13663     13665
     13664     13663     13666     13665     13663     13666     13663     13666     13667
     13663     13666     13668     13663     13666     13669     13667     13666     13668
     13667     13666     13669     13668     13666     13669     13666     13669     13670
     13666     13669     13671     13666     13669     13672     13670     13669     13671
     13670     13669     13672     13671     13669     13672     13669     13672     13673
     13669     13672     13674     13669     13672     13675     13673     13672     13674
     13673     13672     13675     13674     13672     13675     13672     13675     13676
     13672     13675     13677     13672     13675     13678     13676     13675     13677
     13676     13675     13678     13677     13675     13678     13675     13678     13679
     13675     13678     13680     13675     13678     13681     13679     13678     13680
     13679     13678     13681     13680     13678     13681     13678     13681     13682
     13678     13681     13683     13678     13681     13684     13682     13681     13683
     13682     13681     13684     13683     13681     13684       150       149       151
       150       149       153       150       149       195       151       149       153
       151       149       195       153       149       195       149       151       152
       149       153       154       149       153       155       149       153       156
       154       153       155       154       153       156       155       153       156
       153       156       157       153       156       187       157       156       187
       156       157       158       156       157       159       158       157       159
       157       159       160       157       159       161       157       159       162
       160       159       161       160       159       162       161       159       162
       159       162       163       159       162       164       159       162       185
       163       162       164       163       162       185       164       162       185
       162       164       165       162       164       166       162       164       174
       165       164       166       165       164       174       166       164       174
       164       166       167       164       166       168       164       166       169
       167       166       168       167       166       169       168       166       169
       166       169       170       166       169       171       166       169       172
       170       169       171       170       169       172       171       169       172
       169       172       173       169       172       174       169       172       198
       173       172       174       173       172       198       174       172       198
       164       174       172       164       174       175       164       174       179
       172       174       175       172       174       179       175       174       179
       174       175       176       174       175       177       174       175       178
       176       175       177       176       175       178       177       175       178
       174       179       180       174       179       181       174       179       182
       180       179       181       180       179       182       181       179       182
       179       182       183       179       182       184       179       182       185
       183       182       184       183       182       185       184       182       185
       162       185       182       162       185       186       162       185       187
       182       185       186       182       185       187       186       185       187
       156       187       185       156       187       188       156       187       192
       185       187       188       185       187       192       188       187       192
       187       188       189       187       188       190       187       188       191
       189       188       190       189       188       191       190       188       191
       187       192       193       187       192       194       187       192       195
       193       192       194       193       192       195       194       192       195
       149       195       192       149       195       196       149       195       197
       192       195       196       192       195       197       196       195       197
       172       198       199       172       198       200       172       198       204
       199       198       200       199       198       204       200       198       204
       198       200       201       198       200       202       198       200       203
       201       200       202       201       200       203       202       200       203
       198       204       205       198       204       206       198       204       207
       205       204       206       205       204       207       206       204       207
       204       207       208       204       207       209       204       207       210
       208       207       209       208       207       210       209       207       210
       207       210       211       207       210       212       207       210       213
       211       210       212       211       210       213       212       210       213
       210       213       214       210       213       215       210       213       219
       214       213       215       214       213       219       215       213       219
       213       215       216       213       215       217       213       215       218
       216       215       217       216       215       218       217       215       218
       213       219       220       213       219       221       213       219       222
       220       219       221       220       219       222       221       219       222
      2347      2346      2348      2347      2346      2349      2347      2346      2350
      2348      2346      2349      2348      2346      2350      2349      2346      2350
      2346      2350      2351      2346      2350      2352      2346      2350      2353
      2351      2350      2352      2351      2350      2353      2352      2350      2353
      2350      2353      2354      2350      2353      2355      2350      2353      2360
      2354      2353      2355      2354      2353      2360      2355      2353      2360
      2357      2356      2358      2357      2356      2359      2357      2356      2360
      2358      2356      2359      2358      2356      2360      2359      2356      2360
      2356      2359      2361      2353      2360      2356      2359      2361      2362
      2359      2361      2363      2359      2361      2364      2362      2361      2363
      2362      2361      2364      2363      2361      2364      2361      2364      2365
      2361      2364      2366      2361      2364      2372      2365      2364      2366
      2365      2364      2372      2366      2364      2372      2364      2366      2367
      2366      2367      2368      2366      2367      2369      2368      2367      2369
      2367      2369      2370      2367      2369      2371      2367      2369      2381
      2370      2369      2371      2370      2369      2381      2371      2369      2381
      2364      2372      2373      2364      2372      2374      2364      2372      2375
      2373      2372      2374      2373      2372      2375      2374      2372      2375
      2372      2375      2376      2375      2376      2377      2375      2376      2378
      2377      2376      2378      2376      2378      2379      2376      2378      2380
      2376      2378      2428      2379      2378      2380      2379      2378      2428
      2380      2378      2428      2369      2381      2382      2369      2381      2383
      2369      2381      2384      2382      2381      2383      2382      2381      2384
      2383      2381      2384      2381      2384      2385      2381      2384      2386
      2381      2384      2387      2385      2384      2386      2385      2384      2387
      2386      2384      2387      2384      2387      2388      2384      2387      2389
      2384      2387      2390      2388      2387      2389      2388      2387      2390
      2389      2387      2390      2387      2390      2391      2387      2390      2392
      2387      2390      2393      2391      2390      2392      2391      2390      2393
      2392      2390      2393      2390      2393      2394      2390      2393      2395
      2390      2393      2396      2394      2393      2395      2394      2393      2396
      2395      2393      2396      2393      2396      2397      2393      2396      2398
      2393      2396      2399      2397      2396      2398      2397      2396      2399
      2398      2396      2399      2396      2399      2400      2396      2399      2401
      2400      2399      2401      2399      2401      2402      2399      2401      2403
      2402      2401      2403      2401      2403      2404      2401      2403      2405
      2401      2403      2406      2404      2403      2405      2404      2403      2406
      2405      2403      2406      2403      2406      2407      2403      2406      2408
      2403      2406      2409      2407      2406      2408      2407      2406      2409
      2408      2406      2409      2406      2409      2410      2406      2409      2411
      2406      2409      2412      2410      2409      2411      2410      2409      2412
      2411      2409      2412      2409      2412      2413      2409      2412      2414
      2409      2412      2415      2413      2412      2414      2413      2412      2415
      2414      2412      2415      2412      2415      2416      2412      2415      2417
      2412      2415      2418      2416      2415      2417      2416      2415      2418
      2417      2415      2418      2415      2418      2419      2415      2418      2420
      2415      2418      2421      2419      2418      2420      2419      2418      2421
      2420      2418      2421      2418      2421      2422      2418      2421      2423
      2418      2421      2424      2422      2421      2423      2422      2421      2424
      2423      2421      2424      2421      2424      2425      2421      2424      2426
      2421      2424      2427      2425      2424      2426      2425      2424      2427
      2426      2424      2427      2378      2428      2429      2378      2428      2430
      2378      2428      2431      2429      2428      2430      2429      2428      2431
      2430      2428      2431      2428      2431      2432      2428      2431      2433
      2428      2431      2434      2432      2431      2433      2432      2431      2434
      2433      2431      2434      2431      2434      2435      2431      2434      2436
      2431      2434      2437      2435      2434      2436      2435      2434      2437
      2436      2434      2437      2434      2437      2438      2434      2437      2439
      2434      2437      2440      2438      2437      2439      2438      2437      2440
      2439      2437      2440      2437      2440      2441      2437      2440      2442
      2437      2440      2443      2441      2440      2442      2441      2440      2443
      2442      2440      2443      2440      2443      2444      2440      2443      2445
      2440      2443      2446      2444      2443      2445      2444      2443      2446
      2445      2443      2446      2443      2446      2447      2443      2446      2448
      2443      2446      2449      2447      2446      2448      2447      2446      2449
      2448      2446      2449      2446      2449      2450      2446      2449      2451
      2446      2449      2452      2450      2449      2451      2450      2449      2452
      2451      2449      2452      2449      2452      2453      2449      2452      2454
      2449      2452      2455      2453      2452      2454      2453      2452      2455
      2454      2452      2455      2452      2455      2456      2452      2455      2457
      2452      2455      2458      2456      2455      2457      2456      2455      2458
      2457      2455      2458      2455      2458      2459      2455      2458      2460
      2455      2458      2461      2459      2458      2460      2459      2458      2461
      2460      2458      2461      2458      2461      2462      2458      2461      2463
      2458      2461      2464      2462      2461      2463      2462      2461      2464
      2463      2461      2464      2461      2464      2465      2461      2464      2466
      2461      2464      2467      2465      2464      2466      2465      2464      2467
      2466      2464      2467      2464      2467      2468      2464      2467      2469
      2464      2467      2470      2468      2467      2469      2468      2467      2470
      2469      2467      2470     21592     21591     21593     21592     21591     21595
     21592     21591     21611     21593     21591     21595     21593     21591     21611
     21595     21591     21611     21591     21593     21594     21591     21595     21596
     21591     21595     21597     21591     21595     21599     21596     21595     21597
     21596     21595     21599     21597     21595     21599     21595     21597     21598
     21595     21599     21600     21595     21599     21601     21595     21599     21603
     21600     21599     21601     21600     21599     21603     21601     21599     21603
     21599     21601     21602     21599     21603     21604     21599     21603     21605
     21599     21603     21607     21604     21603     21605     21604     21603     21607
     21605     21603     21607     21603     21605     21606     21603     21607     21608
     21603     21607     21609     21603     21607     21611     21608     21607     21609
     21608     21607     21611     21609     21607     21611     21607     21609     21610
     21591     21611     21607     21591     21611     21612     21591     21611     21616
     21607     21611     21612     21607     21611     21616     21612     21611     21616
     21614     21613     21615     21614     21613     21616     21614     21613     21617
     21615     21613     21616     21615     21613     21617     21616     21613     21617
     21611     21616     21613     21613     21617     21618     21617     21618     21619
     21617     21618     21620     21617     21618     21621     21619     21618     21620
     21619     21618     21621     21620     21618     21621     21618     21621     21622
     21618     21621     21623     21618     21621     21629     21622     21621     21623
     21622     21621     21629     21623     21621     21629     21621     21623     21624
     21623     21624     21625     21623     21624     21626     21625     21624     21626
     21624     21626     21627     21624     21626     21628     21624     21626     21638
     21627     21626     21628     21627     21626     21638     21628     21626     21638
     21621     21629     21630     21621     21629     21631     21621     21629     21632
     21630     21629     21631     21630     21629     21632     21631     21629     21632
     21629     21632     21633     21632     21633     21634     21632     21633     21635
     21634     21633     21635     21633     21635     21636     21633     21635     21637
     21633     21635     21685     21636     21635     21637     21636     21635     21685
     21637     21635     21685     21626     21638     21639     21626     21638     21640
     21626     21638     21641     21639     21638     21640     21639     21638     21641
     21640     21638     21641     21638     21641     21642     21638     21641     21643
     21638     21641     21644     21642     21641     21643     21642     21641     21644
     21643     21641     21644     21641     21644     21645     21641     21644     21646
     21641     21644     21647     21645     21644     21646     21645     21644     21647
     21646     21644     21647     21644     21647     21648     21644     21647     21649
     21644     21647     21650     21648     21647     21649     21648     21647     21650
     21649     21647     21650     21647     21650     21651     21647     21650     21652
     21647     21650     21653     21651     21650     21652     21651     21650     21653
     21652     21650     21653     21650     21653     21654     21650     21653     21655
     21650     21653     21656     21654     21653     21655     21654     21653     21656
     21655     21653     21656     21653     21656     21657     21653     21656     21658
     21657     21656     21658     21656     21658     21659     21656     21658     21660
     21659     21658     21660     21658     21660     21661     21658     21660     21662
     21658     21660     21663     21661     21660     21662     21661     21660     21663
     21662     21660     21663     21660     21663     21664     21660     21663     21665
     21660     21663     21666     21664     21663     21665     21664     21663     21666
     21665     21663     21666     21663     21666     21667     21663     21666     21668
     21663     21666     21669     21667     21666     21668     21667     21666     21669
     21668     21666     21669     21666     21669     21670     21666     21669     21671
     21666     21669     21672     21670     21669     21671     21670     21669     21672
     21671     21669     21672     21669     21672     21673     21669     21672     21674
     21669     21672     21675     21673     21672     21674     21673     21672     21675
     21674     21672     21675     21672     21675     21676     21672     21675     21677
     21672     21675     21678     21676     21675     21677     21676     21675     21678
     21677     21675     21678     21675     21678     21679     21675     21678     21680
     21675     21678     21681     21679     21678     21680     21679     21678     21681
     21680     21678     21681     21678     21681     21682     21678     21681     21683
     21678     21681     21684     21682     21681     21683     21682     21681     21684
     21683     21681     21684     21635     21685     21686     21635     21685     21687
     21635     21685     21688     21686     21685     21687     21686     21685     21688
     21687     21685     21688     21685     21688     21689     21685     21688     21690
     21685     21688     21691     21689     21688     21690     21689     21688     21691
     21690     21688     21691     21688     21691     21692     21688     21691     21693
     21688     21691     21694     21692     21691     21693     21692     21691     21694
     21693     21691     21694     21691     21694     21695     21691     21694     21696
     21691     21694     21697     21695     21694     21696     21695     21694     21697
     21696     21694     21697     21694     21697     21698     21694     21697     21699
     21694     21697     21700     21698     21697     21699     21698     21697     21700
     21699     21697     21700     21697     21700     21701     21697     21700     21702
     21697     21700     21703     21701     21700     21702     21701     21700     21703
     21702     21700     21703     21700     21703     21704     21700     21703     21705
     21700     21703     21706     21704     21703     21705     21704     21703     21706
     21705     21703     21706     21703     21706     21707     21703     21706     21708
     21703     21706     21709     21707     21706     21708     21707     21706     21709
     21708     21706     21709     21706     21709     21710     21706     21709     21711
     21706     21709     21712     21710     21709     21711     21710     21709     21712
     21711     21709     21712     21709     21712     21713     21709     21712     21714
     21709     21712     21715     21713     21712     21714     21713     21712     21715
     21714     21712     21715     21712     21715     21716     21712     21715     21717
     21712     21715     21718     21716     21715     21717     21716     21715     21718
     21717     21715     21718     21715     21718     21719     21715     21718     21720
     21715     21718     21721     21719     21718     21720     21719     21718     21721
     21720     21718     21721     21718     21721     21722     21718     21721     21723
     21718     21721     21724     21722     21721     21723     21722     21721     21724
     21723     21721     21724     21721     21724     21725     21721     21724     21726
     21721     21724     21727     21725     21724     21726     21725     21724     21727
     21726     21724     21727       224       223       225       224       223       227
       224       223       269       225       223       227       225       223       269
       227       223       269       223       225       226       223       227       228
       223       227       229       223       227       230       228       227       229
       228       227       230       229       227       230       227       230       231
       227       230       261       231       230       261       230       231       232
       230       231       233       232       231       233       231       233       234
       231       233       235       231       233       236       234       233       235
       234       233       236       235       233       236       233       236       237
       233       236       238       233       236       259       237       236       238
       237       236       259       238       236       259       236       238       239
       236       238       240       236       238       248       239       238       240
       239       238       248       240       238       248       238       240       241
       238       240       242       238       240       243       241       240       242
       241       240       243       242       240       243       240       243       244
       240       243       245       240       243       246       244       243       245
       244       243       246       245       243       246       243       246       247
       243       246       248       243       246       272       247       246       248
       247       246       272       248       246       272       238       248       246
       238       248       249       238       248       253       246       248       249
       246       248       253       249       248       253       248       249       250
       248       249       251       248       249       252       250       249       251
       250       249       252       251       249       252       248       253       254
       248       253       255       248       253       256       254       253       255
       254       253       256       255       253       256       253       256       257
       253       256       258       253       256       259       257       256       258
       257       256       259       258       256       259       236       259       256
       236       259       260       236       259       261       256       259       260
       256       259       261       260       259       261       230       261       259
       230       261       262       230       261       266       259       261       262
       259       261       266       262       261       266       261       262       263
       261       262       264       261       262       265       263       262       264
       263       262       265       264       262       265       261       266       267
       261       266       268       261       266       269       267       266       268
       267       266       269       268       266       269       223       269       266
       223       269       270       223       269       271       266       269       270
       266       269       271       270       269       271       246       272       273
       246       272       274       246       272       278       273       272       274
       273       272       278       274       272       278       272       274       275
       272       274       276       272       274       277       275       274       276
       275       274       277       276       274       277       272       278       279
       272       278       280       272       278       281       279       278       280
       279       278       281       280       278       281       278       281       282
       278       281       283       278       281       284       282       281       283
       282       281       284       283       281       284       281       284       285
       281       284       286       281       284       287       285       284       286
       285       284       287       286       284       287       284       287       288
       284       287       289       284       287       293       288       287       289
       288       287       293       289       287       293       287       289       290
       287       289       291       287       289       292       290       289       291
       290       289       292       291       289       292       287       293       294
       287       293       295       287       293       296       294       293       295
       294       293       296       295       293       296      2472      2471      2473
      2472      2471      2474      2472      2471      2475      2473      2471      2474
      2473      2471      2475      2474      2471      2475      2471      2475      2476
      2471      2475      2477      2471      2475      2478      2476      2475      2477
      2476      2475      2478      2477      2475      2478      2475      2478      2479
      2475      2478      2480      2475      2478      2485      2479      2478      2480
      2479      2478      2485      2480      2478      2485      2482      2481      2483
      2482      2481      2484      2482      2481      2485      2483      2481      2484
      2483      2481      2485      2484      2481      2485      2481      2484      2486
      2478      2485      2481      2484      2486      2487      2484      2486      2488
      2484      2486      2489      2487      2486      2488      2487      2486      2489
      2488      2486      2489      2486      2489      2490      2486      2489      2491
      2486      2489      2497      2490      2489      2491      2490      2489      2497
      2491      2489      2497      2489      2491      2492      2491      2492      2493
      2491      2492      2494      2493      2492      2494      2492      2494      2495
      2492      2494      2496      2492      2494      2506      2495      2494      2496
      2495      2494      2506      2496      2494      2506      2489      2497      2498
      2489      2497      2499      2489      2497      2500      2498      2497      2499
      2498      2497      2500      2499      2497      2500      2497      2500      2501
      2500      2501      2502      2500      2501      2503      2502      2501      2503
      2501      2503      2504      2501      2503      2505      2501      2503      2553
      2504      2503      2505      2504      2503      2553      2505      2503      2553
      2494      2506      2507      2494      2506      2508      2494      2506      2509
      2507      2506      2508      2507      2506      2509      2508      2506      2509
      2506      2509      2510      2506      2509      2511      2506      2509      2512
      2510      2509      2511      2510      2509      2512      2511      2509      2512
      2509      2512      2513      2509      2512      2514      2509      2512      2515
      2513      2512      2514      2513      2512      2515      2514      2512      2515
      2512      2515      2516      2512      2515      2517      2512      2515      2518
      2516      2515      2517      2516      2515      2518      2517      2515      2518
      2515      2518      2519      2515      2518      2520      2515      2518      2521
      2519      2518      2520      2519      2518      2521      2520      2518      2521
      2518      2521      2522      2518      2521      2523      2518      2521      2524
      2522      2521      2523      2522      2521      2524      2523      2521      2524
      2521      2524      2525      2521      2524      2526      2525      2524      2526
      2524      2526      2527      2524      2526      2528      2527      2526      2528
      2526      2528      2529      2526      2528      2530      2526      2528      2531
      2529      2528      2530      2529      2528      2531      2530      2528      2531
      2528      2531      2532      2528      2531      2533      2528      2531      2534
      2532      2531      2533      2532      2531      2534      2533      2531      2534
      2531      2534      2535      2531      2534      2536      2531      2534      2537
      2535      2534      2536      2535      2534      2537      2536      2534      2537
      2534      2537      2538      2534      2537      2539      2534      2537      2540
      2538      2537      2539      2538      2537      2540      2539      2537      2540
      2537      2540      2541      2537      2540      2542      2537      2540      2543
      2541      2540      2542      2541      2540      2543      2542      2540      2543
      2540      2543      2544      2540      2543      2545      2540      2543      2546
      2544      2543      2545      2544      2543      2546      2545      2543      2546
      2543      2546      2547      2543      2546      2548      2543      2546      2549
      2547      2546      2548      2547      2546      2549      2548      2546      2549
      2546      2549      2550      2546      2549      2551      2546      2549      2552
      2550      2549      2551      2550      2549      2552      2551      2549      2552
      2503      2553      2554      2503      2553      2555      2503      2553      2556
      2554      2553      2555      2554      2553      2556      2555      2553      2556
      2553      2556      2557      2553      2556      2558      2553      2556      2559
      2557      2556      2558      2557      2556      2559      2558      2556      2559
      2556      2559      2560      2556      2559      2561      2556      2559      2562
      2560      2559      2561      2560      2559      2562      2561      2559      2562
      2559      2562      2563      2559      2562      2564      2559      2562      2565
      2563      2562      2564      2563      2562      2565      2564      2562      2565
      2562      2565      2566      2562      2565      2567      2562      2565      2568
      2566      2565      2567      2566      2565      2568      2567      2565      2568
      2565      2568      2569      2565      2568      2570      2565      2568      2571
      2569      2568      2570      2569      2568      2571      2570      2568      2571
      2568      2571      2572      2568      2571      2573      2568      2571      2574
      2572      2571      2573      2572      2571      2574      2573      2571      2574
      2571      2574      2575      2571      2574      2576      2571      2574      2577
      2575      2574      2576      2575      2574      2577      2576      2574      2577
      2574      2577      2578      2574      2577      2579      2574      2577      2580
      2578      2577      2579      2578      2577      2580      2579      2577      2580
      2577      2580      2581      2577      2580      2582      2577      2580      2583
      2581      2580      2582      2581      2580      2583      2582      2580      2583
      2580      2583      2584      2580      2583      2585      2580      2583      2586
      2584      2583      2585      2584      2583      2586      2585      2583      2586
      2583      2586      2587      2583      2586      2588      2583      2586      2589
      2587      2586      2588      2587      2586      2589      2588      2586      2589
      2586      2589      2590      2586      2589      2591      2586      2589      2592
      2590      2589      2591      2590      2589      2592      2591      2589      2592
      2589      2592      2593      2589      2592      2594      2589      2592      2595
      2593      2592      2594      2593      2592      2595      2594      2592      2595
     13686     13685     13689     13686     13685     13693     13686     13685     13697
     13689     13685     13693     13689     13685     13697     13693     13685     13697
     13685     13686     13687     13685     13686     13688     13685     13686     13701
     13687     13686     13688     13687     13686     13701     13688     13686     13701
     13685     13689     13690     13685     13689     13691     13685     13689     13692
     13690     13689     13691     13690     13689     13692     13691     13689     13692
     13685     13693     13694     13685     13693     13695     13685     13693     13696
     13694     13693     13695     13694     13693     13696     13695     13693     13696
     13685     13697     13698     13685     13697     13699     13685     13697     13700
     13698     13697     13699     13698     13697     13700     13699     13697     13700
     13686     13701     13702     13686     13701     13703     13686     13701     13707
     13702     13701     13703     13702     13701     13707     13703     13701     13707
     13705     13704     13706     13705     13704     13707     13705     13704     13708
     13706     13704     13707     13706     13704     13708     13707     13704     13708
     13701     13707     13704     13704     13708     13709     13708     13709     13710
     13708     13709     13711     13708     13709     13712     13710     13709     13711
     13710     13709     13712     13711     13709     13712     13709     13712     13713
     13709     13712     13714     13709     13712     13720     13713     13712     13714
     13713     13712     13720     13714     13712     13720     13712     13714     13715
     13714     13715     13716     13714     13715     13717     13716     13715     13717
     13715     13717     13718     13715     13717     13719     13715     13717     13729
     13718     13717     13719     13718     13717     13729     13719     13717     13729
     13712     13720     13721     13712     13720     13722     13712     13720     13723
     13721     13720     13722     13721     13720     13723     13722     13720     13723
     13720     13723     13724     13723     13724     13725     13723     13724     13726
     13725     13724     13726     13724     13726     13727     13724     13726     13728
     13724     13726     13776     13727     13726     13728     13727     13726     13776
     13728     13726     13776     13717     13729     13730     13717     13729     13731
     13717     13729     13732     13730     13729     13731     13730     13729     13732
     13731     13729     13732     13729     13732     13733     13729     13732     13734
     13729     13732     13735     13733     13732     13734     13733     13732     13735
     13734     13732     13735     13732     13735     13736     13732     13735     13737
     13732     13735     13738     13736     13735     13737     13736     13735     13738
     13737     13735     13738     13735     13738     13739     13735     13738     13740
     13735     13738     13741     13739     13738     13740     13739     13738     13741
     13740     13738     13741     13738     13741     13742     13738     13741     13743
     13738     13741     13744     13742     13741     13743     13742     13741     13744
     13743     13741     13744     13741     13744     13745     13741     13744     13746
     13741     13744     13747     13745     13744     13746     13745     13744     13747
     13746     13744     13747     13744     13747     13748     13744     13747     13749
     13748     13747     13749     13747     13749     13750     13747     13749     13751
     13750     13749     13751     13749     13751     13752     13749     13751     13753
     13749     13751     13754     13752     13751     13753     13752     13751     13754
     13753     13751     13754     13751     13754     13755     13751     13754     13756
     13751     13754     13757     13755     13754     13756     13755     13754     13757
     13756     13754     13757     13754     13757     13758     13754     13757     13759
     13754     13757     13760     13758     13757     13759     13758     13757     13760
     13759     13757     13760     13757     13760     13761     13757     13760     13762
     13757     13760     13763     13761     13760     13762     13761     13760     13763
     13762     13760     13763     13760     13763     13764     13760     13763     13765
     13760     13763     13766     13764     13763     13765     13764     13763     13766
     13765     13763     13766     13763     13766     13767     13763     13766     13768
     13763     13766     13769     13767     13766     13768     13767     13766     13769
     13768     13766     13769     13766     13769     13770     13766     13769     13771
     13766     13769     13772     13770     13769     13771     13770     13769     13772
     13771     13769     13772     13769     13772     13773     13769     13772     13774
     13769     13772     13775     13773     13772     13774     13773     13772     13775
     13774     13772     13775     13726     13776     13777     13726     13776     13778
     13726     13776     13779     13777     13776     13778     13777     13776     13779
     13778     13776     13779     13776     13779     13780     13776     13779     13781
     13776     13779     13782     13780     13779     13781     13780     13779     13782
     13781     13779     13782     13779     13782     13783     13779     13782     13784
     13779     13782     13785     13783     13782     13784     13783     13782     13785
     13784     13782     13785     13782     13785     13786     13782     13785     13787
     13782     13785     13788     13786     13785     13787     13786     13785     13788
     13787     13785     13788     13785     13788     13789     13785     13788     13790
     13785     13788     13791     13789     13788     13790     13789     13788     13791
     13790     13788     13791     13788     13791     13792     13788     13791     13793
     13788     13791     13794     13792     13791     13793     13792     13791     13794
     13793     13791     13794     13791     13794     13795     13791     13794     13796
     13791     13794     13797     13795     13794     13796     13795     13794     13797
     13796     13794     13797     13794     13797     13798     13794     13797     13799
     13794     13797     13800     13798     13797     13799     13798     13797     13800
     13799     13797     13800     13797     13800     13801     13797     13800     13802
     13797     13800     13803     13801     13800     13802     13801     13800     13803
     13802     13800     13803     13800     13803     13804     13800     13803     13805
     13800     13803     13806     13804     13803     13805     13804     13803     13806
     13805     13803     13806     13803     13806     13807     13803     13806     13808
     13803     13806     13809     13807     13806     13808     13807     13806     13809
     13808     13806     13809     13806     13809     13810     13806     13809     13811
     13806     13809     13812     13810     13809     13811     13810     13809     13812
     13811     13809     13812     13809     13812     13813     13809     13812     13814
     13809     13812     13815     13813     13812     13814     13813     13812     13815
     13814     13812     13815     13812     13815     13816     13812     13815     13817
     13812     13815     13818     13816     13815     13817     13816     13815     13818
     13817     13815     13818     13820     13819     13823     13820     13819     13827
     13820     13819     13831     13823     13819     13827     13823     13819     13831
     13827     13819     13831     13819     13820     13821     13819     13820     13822
     13819     13820     13835     13821     13820     13822     13821     13820     13835
     13822     13820     13835     13819     13823     13824     13819     13823     13825
     13819     13823     13826     13824     13823     13825     13824     13823     13826
     13825     13823     13826     13819     13827     13828     13819     13827     13829
     13819     13827     13830     13828     13827     13829     13828     13827     13830
     13829     13827     13830     13819     13831     13832     13819     13831     13833
     13819     13831     13834     13832     13831     13833     13832     13831     13834
     13833     13831     13834     13820     13835     13836     13820     13835     13837
     13820     13835     13841     13836     13835     13837     13836     13835     13841
     13837     13835     13841     13839     13838     13840     13839     13838     13841
     13839     13838     13842     13840     13838     13841     13840     13838     13842
     13841     13838     13842     13835     13841     13838     13838     13842     13843
     13842     13843     13844     13842     13843     13845     13842     13843     13846
     13844     13843     13845     13844     13843     13846     13845     13843     13846
     13843     13846     13847     13843     13846     13848     13843     13846     13854
     13847     13846     13848     13847     13846     13854     13848     13846     13854
     13846     13848     13849     13848     13849     13850     13848     13849     13851
     13850     13849     13851     13849     13851     13852     13849     13851     13853
     13849     13851     13863     13852     13851     13853     13852     13851     13863
     13853     13851     13863     13846     13854     13855     13846     13854     13856
     13846     13854     13857     13855     13854     13856     13855     13854     13857
     13856     13854     13857     13854     13857     13858     13857     13858     13859
     13857     13858     13860     13859     13858     13860     13858     13860     13861
     13858     13860     13862     13858     13860     13910     13861     13860     13862
     13861     13860     13910     13862     13860     13910     13851     13863     13864
     13851     13863     13865     13851     13863     13866     13864     13863     13865
     13864     13863     13866     13865     13863     13866     13863     13866     13867
     13863     13866     13868     13863     13866     13869     13867     13866     13868
     13867     13866     13869     13868     13866     13869     13866     13869     13870
     13866     13869     13871     13866     13869     13872     13870     13869     13871
     13870     13869     13872     13871     13869     13872     13869     13872     13873
     13869     13872     13874     13869     13872     13875     13873     13872     13874
     13873     13872     13875     13874     13872     13875     13872     13875     13876
     13872     13875     13877     13872     13875     13878     13876     13875     13877
     13876     13875     13878     13877     13875     13878     13875     13878     13879
     13875     13878     13880     13875     13878     13881     13879     13878     13880
     13879     13878     13881     13880     13878     13881     13878     13881     13882
     13878     13881     13883     13882     13881     13883     13881     13883     13884
     13881     13883     13885     13884     13883     13885     13883     13885     13886
     13883     13885     13887     13883     13885     13888     13886     13885     13887
     13886     13885     13888     13887     13885     13888     13885     13888     13889
     13885     13888     13890     13885     13888     13891     13889     13888     13890
     13889     13888     13891     13890     13888     13891     13888     13891     13892
     13888     13891     13893     13888     13891     13894     13892     13891     13893
     13892     13891     13894     13893     13891     13894     13891     13894     13895
     13891     13894     13896     13891     13894     13897     13895     13894     13896
     13895     13894     13897     13896     13894     13897     13894     13897     13898
     13894     13897     13899     13894     13897     13900     13898     13897     13899
     13898     13897     13900     13899     13897     13900     13897     13900     13901
     13897     13900     13902     13897     13900     13903     13901     13900     13902
     13901     13900     13903     13902     13900     13903     13900     13903     13904
     13900     13903     13905     13900     13903     13906     13904     13903     13905
     13904     13903     13906     13905     13903     13906     13903     13906     13907
     13903     13906     13908     13903     13906     13909     13907     13906     13908
     13907     13906     13909     13908     13906     13909     13860     13910     13911
     13860     13910     13912     13860     13910     13913     13911     13910     13912
     13911     13910     13913     13912     13910     13913     13910     13913     13914
     13910     13913     13915     13910     13913     13916     13914     13913     13915
     13914     13913     13916     13915     13913     13916     13913     13916     13917
     13913     13916     13918     13913     13916     13919     13917     13916     13918
     13917     13916     13919     13918     13916     13919     13916     13919     13920
     13916     13919     13921     13916     13919     13922     13920     13919     13921
     13920     13919     13922     13921     13919     13922     13919     13922     13923
     13919     13922     13924     13919     13922     13925     13923     13922     13924
     13923     13922     13925     13924     13922     13925     13922     13925     13926
     13922     13925     13927     13922     13925     13928     13926     13925     13927
     13926     13925     13928     13927     13925     13928     13925     13928     13929
     13925     13928     13930     13925     13928     13931     13929     13928     13930
     13929     13928     13931     13930     13928     13931     13928     13931     13932
     13928     13931     13933     13928     13931     13934     13932     13931     13933
     13932     13931     13934     13933     13931     13934     13931     13934     13935
     13931     13934     13936     13931     13934     13937     13935     13934     13936
     13935     13934     13937     13936     13934     13937     13934     13937     13938
     13934     13937     13939     13934     13937     13940     13938     13937     13939
     13938     13937     13940     13939     13937     13940     13937     13940     13941
     13937     13940     13942     13937     13940     13943     13941     13940     13942
     13941     13940     13943     13942     13940     13943     13940     13943     13944
     13940     13943     13945     13940     13943     13946     13944     13943     13945
     13944     13943     13946     13945     13943     13946     13943     13946     13947
     13943     13946     13948     13943     13946     13949     13947     13946     13948
     13947     13946     13949     13948     13946     13949     13946     13949     13950
     13946     13949     13951     13946     13949     13952     13950     13949     13951
     13950     13949     13952     13951     13949     13952     22962     22961     22966
     22962     22961     22970     22962     22961     22974     22966     22961     22970
     22966     22961     22974     22970     22961     22974     22961     22962     22963
     22961     22962     22964     22961     22962     22965     22963     22962     22964
     22963     22962     22965     22964     22962     22965     22961     22966     22967
     22961     22966     22968     22961     22966     22969     22967     22966     22968
     22967     22966     22969     22968     22966     22969     22961     22970     22971
     22961     22970     22972     22961     22970     22973     22971     22970     22972
     22971     22970     22973     22972     22970     22973     22961     22974     22975
     22961     22974     22976     22961     22974     22977     22975     22974     22976
     22975     22974     22977     22976     22974     22977     22974     22977     22978
     22974     22977     22979     22974     22977     22984     22978     22977     22979
     22978     22977     22984     22979     22977     22984     22981     22980     22982
     22981     22980     22983     22981     22980     22984     22982     22980     22983
     22982     22980     22984     22983     22980     22984     22980     22983     22985
     22977     22984     22980     22983     22985     22986     22983     22985     22987
     22983     22985     22990     22986     22985     22987     22986     22985     22990
     22987     22985     22990     22989     22988     22990     22989     22988     23040
     22990     22988     23040     22985     22990     22988     22985     22990     22991
     22985     22990     22992     22988     22990     22991     22988     22990     22992
     22991     22990     22992     22990     22992     22993     22990     22992     22994
     22990     22992     22996     22993     22992     22994     22993     22992     22996
     22994     22992     22996     22992     22994     22995     22992     22996     22997
     22992     22996     22998     22997     22996     22998     22996     22998     22999
     22996     22998     23000     22999     22998     23000     22998     23000     23001
     22998     23000     23002     22998     23000     23003     23001     23000     23002
     23001     23000     23003     23002     23000     23003     23000     23003     23004
     23000     23003     23005     23000     23003     23006     23004     23003     23005
     23004     23003     23006     23005     23003     23006     23003     23006     23007
     23003     23006     23008     23003     23006     23009     23007     23006     23008
     23007     23006     23009     23008     23006     23009     23006     23009     23010
     23006     23009     23011     23006     23009     23012     23010     23009     23011
     23010     23009     23012     23011     23009     23012     23009     23012     23013
     23009     23012     23014     23009     23012     23015     23013     23012     23014
     23013     23012     23015     23014     23012     23015     23012     23015     23016
     23012     23015     23017     23012     23015     23018     23016     23015     23017
     23016     23015     23018     23017     23015     23018     23015     23018     23019
     23015     23018     23020     23015     23018     23021     23019     23018     23020
     23019     23018     23021     23020     23018     23021     23018     23021     23022
     23018     23021     23023     23018     23021     23024     23022     23021     23023
     23022     23021     23024     23023     23021     23024     23021     23024     23025
     23021     23024     23026     23021     23024     23027     23025     23024     23026
     23025     23024     23027     23026     23024     23027     23024     23027     23028
     23024     23027     23029     23024     23027     23030     23028     23027     23029
     23028     23027     23030     23029     23027     23030     23027     23030     23031
     23027     23030     23032     23027     23030     23033     23031     23030     23032
     23031     23030     23033     23032     23030     23033     23030     23033     23034
     23030     23033     23035     23030     23033     23036     23034     23033     23035
     23034     23033     23036     23035     23033     23036     23033     23036     23037
     23033     23036     23038     23033     23036     23039     23037     23036     23038
     23037     23036     23039     23038     23036     23039     22988     23040     23041
     22988     23040     23042     23041     23040     23042     23040     23042     23043
     23040     23042     23044     23040     23042     23045     23043     23042     23044
     23043     23042     23045     23044     23042     23045     23042     23045     23046
     23042     23045     23047     23042     23045     23048     23046     23045     23047
     23046     23045     23048     23047     23045     23048     23045     23048     23049
     23045     23048     23050     23045     23048     23051     23049     23048     23050
     23049     23048     23051     23050     23048     23051     23048     23051     23052
     23048     23051     23053     23048     23051     23054     23052     23051     23053
     23052     23051     23054     23053     23051     23054     23051     23054     23055
     23051     23054     23056     23051     23054     23057     23055     23054     23056
     23055     23054     23057     23056     23054     23057     23054     23057     23058
     23054     23057     23059     23054     23057     23060     23058     23057     23059
     23058     23057     23060     23059     23057     23060     23057     23060     23061
     23057     23060     23062     23057     23060     23063     23061     23060     23062
     23061     23060     23063     23062     23060     23063     23060     23063     23064
     23060     23063     23065     23060     23063     23066     23064     23063     23065
     23064     23063     23066     23065     23063     23066     23063     23066     23067
     23063     23066     23068     23063     23066     23069     23067     23066     23068
     23067     23066     23069     23068     23066     23069     23066     23069     23070
     23066     23069     23071     23066     23069     23072     23070     23069     23071
     23070     23069     23072     23071     23069     23072     23069     23072     23073
     23069     23072     23074     23069     23072     23075     23073     23072     23074
     23073     23072     23075     23074     23072     23075     23072     23075     23076
     23072     23075     23077     23072     23075     23078     23076     23075     23077
     23076     23075     23078     23077     23075     23078     23075     23078     23079
     23075     23078     23080     23075     23078     23081     23079     23078     23080
     23079     23078     23081     23080     23078     23081     23078     23081     23082
     23078     23081     23083     23078     23081     23084     23082     23081     23083
     23082     23081     23084     23083     23081     23084     23081     23084     23085
     23081     23084     23086     23081     23084     23087     23085     23084     23086
     23085     23084     23087     23086     23084     23087       298       297       299
       298       297       301       298       297       343       299       297       301
       299       297       343       301       297       343       297       299       300
       297       301       302       297       301       303       297       301       304
       302       301       303       302       301       304       303       301       304
       301       304       305       301       304       335       305       304       335
       304       305       306       304       305       307       306       305       307
       305       307       308       305       307       309       305       307       310
       308       307       309       308       307       310       309       307       310
       307       310       311       307       310       312       307       310       333
       311       310       312       311       310       333       312       310       333
       310       312       313       310       312       314       310       312       322
       313       312       314       313       312       322       314       312       322
       312       314       315       312       314       316       312       314       317
       315       314       316       315       314       317       316       314       317
       314       317       318       314       317       319       314       317       320
       318       317       319       318       317       320       319       317       320
       317       320       321       317       320       322       317       320       346
       321       320       322       321       320       346       322       320       346
       312       322       320       312       322       323       312       322       327
       320       322       323       320       322       327       323       322       327
       322       323       324       322       323       325       322       323       326
       324       323       325       324       323       326       325       323       326
       322       327       328       322       327       329       322       327       330
       328       327       329       328       327       330       329       327       330
       327       330       331       327       330       332       327       330       333
       331       330       332       331       330       333       332       330       333
       310       333       330       310       333       334       310       333       335
       330       333       334       330       333       335       334       333       335
       304       335       333       304       335       336       304       335       340
       333       335       336       333       335       340       336       335       340
       335       336       337       335       336       338       335       336       339
       337       336       338       337       336       339       338       336       339
       335       340       341       335       340       342       335       340       343
       341       340       342       341       340       343       342       340       343
       297       343       340       297       343       344       297       343       345
       340       343       344       340       343       345       344       343       345
       320       346       347       320       346       348       320       346       352
       347       346       348       347       346       352       348       346       352
       346       348       349       346       348       350       346       348       351
       349       348       350       349       348       351       350       348       351
       346       352       353       346       352       354       346       352       355
       353       352       354       353       352       355       354       352       355
       352       355       356       352       355       357       352       355       358
       356       355       357       356       355       358       357       355       358
       355       358       359       355       358       360       355       358       361
       359       358       360       359       358       361       360       358       361
       358       361       362       358       361       363       358       361       367
       362       361       363       362       361       367       363       361       367
       361       363       364       361       363       365       361       363       366
       364       363       365       364       363       366       365       363       366
       361       367       368       361       367       369       361       367       370
       368       367       369       368       367       370       369       367       370
     13954     13953     13957     13954     13953     13961     13954     13953     13965
     13957     13953     13961     13957     13953     13965     13961     13953     13965
     13953     13954     13955     13953     13954     13956     13953     13954     13969
     13955     13954     13956     13955     13954     13969     13956     13954     13969
     13953     13957     13958     13953     13957     13959     13953     13957     13960
     13958     13957     13959     13958     13957     13960     13959     13957     13960
     13953     13961     13962     13953     13961     13963     13953     13961     13964
     13962     13961     13963     13962     13961     13964     13963     13961     13964
     13953     13965     13966     13953     13965     13967     13953     13965     13968
     13966     13965     13967     13966     13965     13968     13967     13965     13968
     13954     13969     13970     13954     13969     13971     13954     13969     13975
     13970     13969     13971     13970     13969     13975     13971     13969     13975
     13973     13972     13974     13973     13972     13975     13973     13972     13976
     13974     13972     13975     13974     13972     13976     13975     13972     13976
     13969     13975     13972     13972     13976     13977     13976     13977     13978
     13976     13977     13979     13976     13977     13980     13978     13977     13979
     13978     13977     13980     13979     13977     13980     13977     13980     13981
     13977     13980     13982     13977     13980     13988     13981     13980     13982
     13981     13980     13988     13982     13980     13988     13980     13982     13983
     13982     13983     13984     13982     13983     13985     13984     13983     13985
     13983     13985     13986     13983     13985     13987     13983     13985     13997
     13986     13985     13987     13986     13985     13997     13987     13985     13997
     13980     13988     13989     13980     13988     13990     13980     13988     13991
     13989     13988     13990     13989     13988     13991     13990     13988     13991
     13988     13991     13992     13991     13992     13993     13991     13992     13994
     13993     13992     13994     13992     13994     13995     13992     13994     13996
     13992     13994     14044     13995     13994     13996     13995     13994     14044
     13996     13994     14044     13985     13997     13998     13985     13997     13999
     13985     13997     14000     13998     13997     13999     13998     13997     14000
     13999     13997     14000     13997     14000     14001     13997     14000     14002
     13997     14000     14003     14001     14000     14002     14001     14000     14003
     14002     14000     14003     14000     14003     14004     14000     14003     14005
     14000     14003     14006     14004     14003     14005     14004     14003     14006
     14005     14003     14006     14003     14006     14007     14003     14006     14008
     14003     14006     14009     14007     14006     14008     14007     14006     14009
     14008     14006     14009     14006     14009     14010     14006     14009     14011
     14006     14009     14012     14010     14009     14011     14010     14009     14012
     14011     14009     14012     14009     14012     14013     14009     14012     14014
     14009     14012     14015     14013     14012     14014     14013     14012     14015
     14014     14012     14015     14012     14015     14016     14012     14015     14017
     14016     14015     14017     14015     14017     14018     14015     14017     14019
     14018     14017     14019     14017     14019     14020     14017     14019     14021
     14017     14019     14022     14020     14019     14021     14020     14019     14022
     14021     14019     14022     14019     14022     14023     14019     14022     14024
     14019     14022     14025     14023     14022     14024     14023     14022     14025
     14024     14022     14025     14022     14025     14026     14022     14025     14027
     14022     14025     14028     14026     14025     14027     14026     14025     14028
     14027     14025     14028     14025     14028     14029     14025     14028     14030
     14025     14028     14031     14029     14028     14030     14029     14028     14031
     14030     14028     14031     14028     14031     14032     14028     14031     14033
     14028     14031     14034     14032     14031     14033     14032     14031     14034
     14033     14031     14034     14031     14034     14035     14031     14034     14036
     14031     14034     14037     14035     14034     14036     14035     14034     14037
     14036     14034     14037     14034     14037     14038     14034     14037     14039
     14034     14037     14040     14038     14037     14039     14038     14037     14040
     14039     14037     14040     14037     14040     14041     14037     14040     14042
     14037     14040     14043     14041     14040     14042     14041     14040     14043
     14042     14040     14043     13994     14044     14045     13994     14044     14046
     13994     14044     14047     14045     14044     14046     14045     14044     14047
     14046     14044     14047     14044     14047     14048     14044     14047     14049
     14044     14047     14050     14048     14047     14049     14048     14047     14050
     14049     14047     14050     14047     14050     14051     14047     14050     14052
     14047     14050     14053     14051     14050     14052     14051     14050     14053
     14052     14050     14053     14050     14053     14054     14050     14053     14055
     14050     14053     14056     14054     14053     14055     14054     14053     14056
     14055     14053     14056     14053     14056     14057     14053     14056     14058
     14053     14056     14059     14057     14056     14058     14057     14056     14059
     14058     14056     14059     14056     14059     14060     14056     14059     14061
     14056     14059     14062     14060     14059     14061     14060     14059     14062
     14061     14059     14062     14059     14062     14063     14059     14062     14064
     14059     14062     14065     14063     14062     14064     14063     14062     14065
     14064     14062     14065     14062     14065     14066     14062     14065     14067
     14062     14065     14068     14066     14065     14067     14066     14065     14068
     14067     14065     14068     14065     14068     14069     14065     14068     14070
     14065     14068     14071     14069     14068     14070     14069     14068     14071
     14070     14068     14071     14068     14071     14072     14068     14071     14073
     14068     14071     14074     14072     14071     14073     14072     14071     14074
     14073     14071     14074     14071     14074     14075     14071     14074     14076
     14071     14074     14077     14075     14074     14076     14075     14074     14077
     14076     14074     14077     14074     14077     14078     14074     14077     14079
     14074     14077     14080     14078     14077     14079     14078     14077     14080
     14079     14077     14080     14077     14080     14081     14077     14080     14082
     14077     14080     14083     14081     14080     14082     14081     14080     14083
     14082     14080     14083     14080     14083     14084     14080     14083     14085
     14080     14083     14086     14084     14083     14085     14084     14083     14086
     14085     14083     14086      8599      8598      8600      8599      8598      8601
      8599      8598      8602      8600      8598      8601      8600      8598      8602
      8601      8598      8602      8598      8602      8603      8598      8602      8604
      8598      8602      8607      8603      8602      8604      8603      8602      8607
      8604      8602      8607      8602      8604      8605      8602      8604      8606
      8605      8604      8606      8602      8607      8608      8602      8607      8609
      8602      8607      8613      8608      8607      8609      8608      8607      8613
      8609      8607      8613      8611      8610      8612      8611      8610      8613
      8611      8610      8614      8612      8610      8613      8612      8610      8614
      8613      8610      8614      8607      8613      8610      8610      8614      8615
      8614      8615      8616      8614      8615      8617      8614      8615      8618
      8616      8615      8617      8616      8615      8618      8617      8615      8618
      8615      8618      8619      8615      8618      8620      8615      8618      8626
      8619      8618      8620      8619      8618      8626      8620      8618      8626
      8618      8620      8621      8620      8621      8622      8620      8621      8623
      8622      8621      8623      8621      8623      8624      8621      8623      8625
      8621      8623      8635      8624      8623      8625      8624      8623      8635
      8625      8623      8635      8618      8626      8627      8618      8626      8628
      8618      8626      8629      8627      8626      8628      8627      8626      8629
      8628      8626      8629      8626      8629      8630      8629      8630      8631
      8629      8630      8632      8631      8630      8632      8630      8632      8633
      8630      8632      8634      8630      8632      8682      8633      8632      8634
      8633      8632      8682      8634      8632      8682      8623      8635      8636
      8623      8635      8637      8623      8635      8638      8636      8635      8637
      8636      8635      8638      8637      8635      8638      8635      8638      8639
      8635      8638      8640      8635      8638      8641      8639      8638      8640
      8639      8638      8641      8640      8638      8641      8638      8641      8642
      8638      8641      8643      8638      8641      8644      8642      8641      8643
      8642      8641      8644      8643      8641      8644      8641      8644      8645
      8641      8644      8646      8641      8644      8647      8645      8644      8646
      8645      8644      8647      8646      8644      8647      8644      8647      8648
      8644      8647      8649      8644      8647      8650      8648      8647      8649
      8648      8647      8650      8649      8647      8650      8647      8650      8651
      8647      8650      8652      8647      8650      8653      8651      8650      8652
      8651      8650      8653      8652      8650      8653      8650      8653      8654
      8650      8653      8655      8654      8653      8655      8653      8655      8656
      8653      8655      8657      8656      8655      8657      8655      8657      8658
      8655      8657      8659      8655      8657      8660      8658      8657      8659
      8658      8657      8660      8659      8657      8660      8657      8660      8661
      8657      8660      8662      8657      8660      8663      8661      8660      8662
      8661      8660      8663      8662      8660      8663      8660      8663      8664
      8660      8663      8665      8660      8663      8666      8664      8663      8665
      8664      8663      8666      8665      8663      8666      8663      8666      8667
      8663      8666      8668      8663      8666      8669      8667      8666      8668
      8667      8666      8669      8668      8666      8669      8666      8669      8670
      8666      8669      8671      8666      8669      8672      8670      8669      8671
      8670      8669      8672      8671      8669      8672      8669      8672      8673
      8669      8672      8674      8669      8672      8675      8673      8672      8674
      8673      8672      8675      8674      8672      8675      8672      8675      8676
      8672      8675      8677      8672      8675      8678      8676      8675      8677
      8676      8675      8678      8677      8675      8678      8675      8678      8679
      8675      8678      8680      8675      8678      8681      8679      8678      8680
      8679      8678      8681      8680      8678      8681      8632      8682      8683
      8632      8682      8684      8632      8682      8685      8683      8682      8684
      8683      8682      8685      8684      8682      8685      8682      8685      8686
      8682      8685      8687      8682      8685      8688      8686      8685      8687
      8686      8685      8688      8687      8685      8688      8685      8688      8689
      8685      8688      8690      8685      8688      8691      8689      8688      8690
      8689      8688      8691      8690      8688      8691      8688      8691      8692
      8688      8691      8693      8688      8691      8694      8692      8691      8693
      8692      8691      8694      8693      8691      8694      8691      8694      8695
      8691      8694      8696      8691      8694      8697      8695      8694      8696
      8695      8694      8697      8696      8694      8697      8694      8697      8698
      8694      8697      8699      8694      8697      8700      8698      8697      8699
      8698      8697      8700      8699      8697      8700      8697      8700      8701
      8697      8700      8702      8697      8700      8703      8701      8700      8702
      8701      8700      8703      8702      8700      8703      8700      8703      8704
      8700      8703      8705      8700      8703      8706      8704      8703      8705
      8704      8703      8706      8705      8703      8706      8703      8706      8707
      8703      8706      8708      8703      8706      8709      8707      8706      8708
      8707      8706      8709      8708      8706      8709      8706      8709      8710
      8706      8709      8711      8706      8709      8712      8710      8709      8711
      8710      8709      8712      8711      8709      8712      8709      8712      8713
      8709      8712      8714      8709      8712      8715      8713      8712      8714
      8713      8712      8715      8714      8712      8715      8712      8715      8716
      8712      8715      8717      8712      8715      8718      8716      8715      8717
      8716      8715      8718      8717      8715      8718      8715      8718      8719
      8715      8718      8720      8715      8718      8721      8719      8718      8720
      8719      8718      8721      8720      8718      8721      8718      8721      8722
      8718      8721      8723      8718      8721      8724      8722      8721      8723
      8722      8721      8724      8723      8721      8724     14088     14087     14091
     14088     14087     14095     14088     14087     14099     14091     14087     14095
     14091     14087     14099     14095     14087     14099     14087     14088     14089
     14087     14088     14090     14087     14088     14103     14089     14088     14090
     14089     14088     14103     14090     14088     14103     14087     14091     14092
     14087     14091     14093     14087     14091     14094     14092     14091     14093
     14092     14091     14094     14093     14091     14094     14087     14095     14096
     14087     14095     14097     14087     14095     14098     14096     14095     14097
     14096     14095     14098     14097     14095     14098     14087     14099     14100
     14087     14099     14101     14087     14099     14102     14100     14099     14101
     14100     14099     14102     14101     14099     14102     14088     14103     14104
     14088     14103     14105     14088     14103     14109     14104     14103     14105
     14104     14103     14109     14105     14103     14109     14107     14106     14108
     14107     14106     14109     14107     14106     14110     14108     14106     14109
     14108     14106     14110     14109     14106     14110     14103     14109     14106
     14106     14110     14111     14110     14111     14112     14110     14111     14113
     14110     14111     14114     14112     14111     14113     14112     14111     14114
     14113     14111     14114     14111     14114     14115     14111     14114     14116
     14111     14114     14122     14115     14114     14116     14115     14114     14122
     14116     14114     14122     14114     14116     14117     14116     14117     14118
     14116     14117     14119     14118     14117     14119     14117     14119     14120
     14117     14119     14121     14117     14119     14131     14120     14119     14121
     14120     14119     14131     14121     14119     14131     14114     14122     14123
     14114     14122     14124     14114     14122     14125     14123     14122     14124
     14123     14122     14125     14124     14122     14125     14122     14125     14126
     14125     14126     14127     14125     14126     14128     14127     14126     14128
     14126     14128     14129     14126     14128     14130     14126     14128     14178
     14129     14128     14130     14129     14128     14178     14130     14128     14178
     14119     14131     14132     14119     14131     14133     14119     14131     14134
     14132     14131     14133     14132     14131     14134     14133     14131     14134
     14131     14134     14135     14131     14134     14136     14131     14134     14137
     14135     14134     14136     14135     14134     14137     14136     14134     14137
     14134     14137     14138     14134     14137     14139     14134     14137     14140
     14138     14137     14139     14138     14137     14140     14139     14137     14140
     14137     14140     14141     14137     14140     14142     14137     14140     14143
     14141     14140     14142     14141     14140     14143     14142     14140     14143
     14140     14143     14144     14140     14143     14145     14140     14143     14146
     14144     14143     14145     14144     14143     14146     14145     14143     14146
     14143     14146     14147     14143     14146     14148     14143     14146     14149
     14147     14146     14148     14147     14146     14149     14148     14146     14149
     14146     14149     14150     14146     14149     14151     14150     14149     14151
     14149     14151     14152     14149     14151     14153     14152     14151     14153
     14151     14153     14154     14151     14153     14155     14151     14153     14156
     14154     14153     14155     14154     14153     14156     14155     14153     14156
     14153     14156     14157     14153     14156     14158     14153     14156     14159
     14157     14156     14158     14157     14156     14159     14158     14156     14159
     14156     14159     14160     14156     14159     14161     14156     14159     14162
     14160     14159     14161     14160     14159     14162     14161     14159     14162
     14159     14162     14163     14159     14162     14164     14159     14162     14165
     14163     14162     14164     14163     14162     14165     14164     14162     14165
     14162     14165     14166     14162     14165     14167     14162     14165     14168
     14166     14165     14167     14166     14165     14168     14167     14165     14168
     14165     14168     14169     14165     14168     14170     14165     14168     14171
     14169     14168     14170     14169     14168     14171     14170     14168     14171
     14168     14171     14172     14168     14171     14173     14168     14171     14174
     14172     14171     14173     14172     14171     14174     14173     14171     14174
     14171     14174     14175     14171     14174     14176     14171     14174     14177
     14175     14174     14176     14175     14174     14177     14176     14174     14177
     14128     14178     14179     14128     14178     14180     14128     14178     14181
     14179     14178     14180     14179     14178     14181     14180     14178     14181
     14178     14181     14182     14178     14181     14183     14178     14181     14184
     14182     14181     14183     14182     14181     14184     14183     14181     14184
     14181     14184     14185     14181     14184     14186     14181     14184     14187
     14185     14184     14186     14185     14184     14187     14186     14184     14187
     14184     14187     14188     14184     14187     14189     14184     14187     14190
     14188     14187     14189     14188     14187     14190     14189     14187     14190
     14187     14190     14191     14187     14190     14192     14187     14190     14193
     14191     14190     14192     14191     14190     14193     14192     14190     14193
     14190     14193     14194     14190     14193     14195     14190     14193     14196
     14194     14193     14195     14194     14193     14196     14195     14193     14196
     14193     14196     14197     14193     14196     14198     14193     14196     14199
     14197     14196     14198     14197     14196     14199     14198     14196     14199
     14196     14199     14200     14196     14199     14201     14196     14199     14202
     14200     14199     14201     14200     14199     14202     14201     14199     14202
     14199     14202     14203     14199     14202     14204     14199     14202     14205
     14203     14202     14204     14203     14202     14205     14204     14202     14205
     14202     14205     14206     14202     14205     14207     14202     14205     14208
     14206     14205     14207     14206     14205     14208     14207     14205     14208
     14205     14208     14209     14205     14208     14210     14205     14208     14211
     14209     14208     14210     14209     14208     14211     14210     14208     14211
     14208     14211     14212     14208     14211     14213     14208     14211     14214
     14212     14211     14213     14212     14211     14214     14213     14211     14214
     14211     14214     14215     14211     14214     14216     14211     14214     14217
     14215     14214     14216     14215     14214     14217     14216     14214     14217
     14214     14217     14218     14214     14217     14219     14214     14217     14220
     14218     14217     14219     14218     14217     14220     14219     14217     14220
      2597      2596      2598      2597      2596      2599      2597      2596      2600
      2598      2596      2599      2598      2596      2600      2599      2596      2600
      2596      2600      2601      2596      2600      2602      2596      2600      2603
      2601      2600      2602      2601      2600      2603      2602      2600      2603
      2600      2603      2604      2600      2603      2605      2600      2603      2610
      2604      2603      2605      2604      2603      2610      2605      2603      2610
      2607      2606      2608      2607      2606      2609      2607      2606      2610
      2608      2606      2609      2608      2606      2610      2609      2606      2610
      2606      2609      2611      2603      2610      2606      2609      2611      2612
      2609      2611      2613      2609      2611      2614      2612      2611      2613
      2612      2611      2614      2613      2611      2614      2611      2614      2615
      2611      2614      2616      2611      2614      2622      2615      2614      2616
      2615      2614      2622      2616      2614      2622      2614      2616      2617
      2616      2617      2618      2616      2617      2619      2618      2617      2619
      2617      2619      2620      2617      2619      2621      2617      2619      2631
      2620      2619      2621      2620      2619      2631      2621      2619      2631
      2614      2622      2623      2614      2622      2624      2614      2622      2625
      2623      2622      2624      2623      2622      2625      2624      2622      2625
      2622      2625      2626      2625      2626      2627      2625      2626      2628
      2627      2626      2628      2626      2628      2629      2626      2628      2630
      2626      2628      2678      2629      2628      2630      2629      2628      2678
      2630      2628      2678      2619      2631      2632      2619      2631      2633
      2619      2631      2634      2632      2631      2633      2632      2631      2634
      2633      2631      2634      2631      2634      2635      2631      2634      2636
      2631      2634      2637      2635      2634      2636      2635      2634      2637
      2636      2634      2637      2634      2637      2638      2634      2637      2639
      2634      2637      2640      2638      2637      2639      2638      2637      2640
      2639      2637      2640      2637      2640      2641      2637      2640      2642
      2637      2640      2643      2641      2640      2642      2641      2640      2643
      2642      2640      2643      2640      2643      2644      2640      2643      2645
      2640      2643      2646      2644      2643      2645      2644      2643      2646
      2645      2643      2646      2643      2646      2647      2643      2646      2648
      2643      2646      2649      2647      2646      2648      2647      2646      2649
      2648      2646      2649      2646      2649      2650      2646      2649      2651
      2650      2649      2651      2649      2651      2652      2649      2651      2653
      2652      2651      2653      2651      2653      2654      2651      2653      2655
      2651      2653      2656      2654      2653      2655      2654      2653      2656
      2655      2653      2656      2653      2656      2657      2653      2656      2658
      2653      2656      2659      2657      2656      2658      2657      2656      2659
      2658      2656      2659      2656      2659      2660      2656      2659      2661
      2656      2659      2662      2660      2659      2661      2660      2659      2662
      2661      2659      2662      2659      2662      2663      2659      2662      2664
      2659      2662      2665      2663      2662      2664      2663      2662      2665
      2664      2662      2665      2662      2665      2666      2662      2665      2667
      2662      2665      2668      2666      2665      2667      2666      2665      2668
      2667      2665      2668      2665      2668      2669      2665      2668      2670
      2665      2668      2671      2669      2668      2670      2669      2668      2671
      2670      2668      2671      2668      2671      2672      2668      2671      2673
      2668      2671      2674      2672      2671      2673      2672      2671      2674
      2673      2671      2674      2671      2674      2675      2671      2674      2676
      2671      2674      2677      2675      2674      2676      2675      2674      2677
      2676      2674      2677      2628      2678      2679      2628      2678      2680
      2628      2678      2681      2679      2678      2680      2679      2678      2681
      2680      2678      2681      2678      2681      2682      2678      2681      2683
      2678      2681      2684      2682      2681      2683      2682      2681      2684
      2683      2681      2684      2681      2684      2685      2681      2684      2686
      2681      2684      2687      2685      2684      2686      2685      2684      2687
      2686      2684      2687      2684      2687      2688      2684      2687      2689
      2684      2687      2690      2688      2687      2689      2688      2687      2690
      2689      2687      2690      2687      2690      2691      2687      2690      2692
      2687      2690      2693      2691      2690      2692      2691      2690      2693
      2692      2690      2693      2690      2693      2694      2690      2693      2695
      2690      2693      2696      2694      2693      2695      2694      2693      2696
      2695      2693      2696      2693      2696      2697      2693      2696      2698
      2693      2696      2699      2697      2696      2698      2697      2696      2699
      2698      2696      2699      2696      2699      2700      2696      2699      2701
      2696      2699      2702      2700      2699      2701      2700      2699      2702
      2701      2699      2702      2699      2702      2703      2699      2702      2704
      2699      2702      2705      2703      2702      2704      2703      2702      2705
      2704      2702      2705      2702      2705      2706      2702      2705      2707
      2702      2705      2708      2706      2705      2707      2706      2705      2708
      2707      2705      2708      2705      2708      2709      2705      2708      2710
      2705      2708      2711      2709      2708      2710      2709      2708      2711
      2710      2708      2711      2708      2711      2712      2708      2711      2713
      2708      2711      2714      2712      2711      2713      2712      2711      2714
      2713      2711      2714      2711      2714      2715      2711      2714      2716
      2711      2714      2717      2715      2714      2716      2715      2714      2717
      2716      2714      2717      2714      2717      2718      2714      2717      2719
      2714      2717      2720      2718      2717      2719      2718      2717      2720
      2719      2717      2720     14222     14221     14225     14222     14221     14229
     14222     14221     14233     14225     14221     14229     14225     14221     14233
     14229     14221     14233     14221     14222     14223     14221     14222     14224
     14221     14222     14237     14223     14222     14224     14223     14222     14237
     14224     14222     14237     14221     14225     14226     14221     14225     14227
     14221     14225     14228     14226     14225     14227     14226     14225     14228
     14227     14225     14228     14221     14229     14230     14221     14229     14231
     14221     14229     14232     14230     14229     14231     14230     14229     14232
     14231     14229     14232     14221     14233     14234     14221     14233     14235
     14221     14233     14236     14234     14233     14235     14234     14233     14236
     14235     14233     14236     14222     14237     14238     14222     14237     14239
     14222     14237     14243     14238     14237     14239     14238     14237     14243
     14239     14237     14243     14241     14240     14242     14241     14240     14243
     14241     14240     14244     14242     14240     14243     14242     14240     14244
     14243     14240     14244     14237     14243     14240     14240     14244     14245
     14244     14245     14246     14244     14245     14247     14244     14245     14248
     14246     14245     14247     14246     14245     14248     14247     14245     14248
     14245     14248     14249     14245     14248     14250     14245     14248     14256
     14249     14248     14250     14249     14248     14256     14250     14248     14256
     14248     14250     14251     14250     14251     14252     14250     14251     14253
     14252     14251     14253     14251     14253     14254     14251     14253     14255
     14251     14253     14265     14254     14253     14255     14254     14253     14265
     14255     14253     14265     14248     14256     14257     14248     14256     14258
     14248     14256     14259     14257     14256     14258     14257     14256     14259
     14258     14256     14259     14256     14259     14260     14259     14260     14261
     14259     14260     14262     14261     14260     14262     14260     14262     14263
     14260     14262     14264     14260     14262     14312     14263     14262     14264
     14263     14262     14312     14264     14262     14312     14253     14265     14266
     14253     14265     14267     14253     14265     14268     14266     14265     14267
     14266     14265     14268     14267     14265     14268     14265     14268     14269
     14265     14268     14270     14265     14268     14271     14269     14268     14270
     14269     14268     14271     14270     14268     14271     14268     14271     14272
     14268     14271     14273     14268     14271     14274     14272     14271     14273
     14272     14271     14274     14273     14271     14274     14271     14274     14275
     14271     14274     14276     14271     14274     14277     14275     14274     14276
     14275     14274     14277     14276     14274     14277     14274     14277     14278
     14274     14277     14279     14274     14277     14280     14278     14277     14279
     14278     14277     14280     14279     14277     14280     14277     14280     14281
     14277     14280     14282     14277     14280     14283     14281     14280     14282
     14281     14280     14283     14282     14280     14283     14280     14283     14284
     14280     14283     14285     14284     14283     14285     14283     14285     14286
     14283     14285     14287     14286     14285     14287     14285     14287     14288
     14285     14287     14289     14285     14287     14290     14288     14287     14289
     14288     14287     14290     14289     14287     14290     14287     14290     14291
     14287     14290     14292     14287     14290     14293     14291     14290     14292
     14291     14290     14293     14292     14290     14293     14290     14293     14294
     14290     14293     14295     14290     14293     14296     14294     14293     14295
     14294     14293     14296     14295     14293     14296     14293     14296     14297
     14293     14296     14298     14293     14296     14299     14297     14296     14298
     14297     14296     14299     14298     14296     14299     14296     14299     14300
     14296     14299     14301     14296     14299     14302     14300     14299     14301
     14300     14299     14302     14301     14299     14302     14299     14302     14303
     14299     14302     14304     14299     14302     14305     14303     14302     14304
     14303     14302     14305     14304     14302     14305     14302     14305     14306
     14302     14305     14307     14302     14305     14308     14306     14305     14307
     14306     14305     14308     14307     14305     14308     14305     14308     14309
     14305     14308     14310     14305     14308     14311     14309     14308     14310
     14309     14308     14311     14310     14308     14311     14262     14312     14313
     14262     14312     14314     14262     14312     14315     14313     14312     14314
     14313     14312     14315     14314     14312     14315     14312     14315     14316
     14312     14315     14317     14312     14315     14318     14316     14315     14317
     14316     14315     14318     14317     14315     14318     14315     14318     14319
     14315     14318     14320     14315     14318     14321     14319     14318     14320
     14319     14318     14321     14320     14318     14321     14318     14321     14322
     14318     14321     14323     14318     14321     14324     14322     14321     14323
     14322     14321     14324     14323     14321     14324     14321     14324     14325
     14321     14324     14326     14321     14324     14327     14325     14324     14326
     14325     14324     14327     14326     14324     14327     14324     14327     14328
     14324     14327     14329     14324     14327     14330     14328     14327     14329
     14328     14327     14330     14329     14327     14330     14327     14330     14331
     14327     14330     14332     14327     14330     14333     14331     14330     14332
     14331     14330     14333     14332     14330     14333     14330     14333     14334
     14330     14333     14335     14330     14333     14336     14334     14333     14335
     14334     14333     14336     14335     14333     14336     14333     14336     14337
     14333     14336     14338     14333     14336     14339     14337     14336     14338
     14337     14336     14339     14338     14336     14339     14336     14339     14340
     14336     14339     14341     14336     14339     14342     14340     14339     14341
     14340     14339     14342     14341     14339     14342     14339     14342     14343
     14339     14342     14344     14339     14342     14345     14343     14342     14344
     14343     14342     14345     14344     14342     14345     14342     14345     14346
     14342     14345     14347     14342     14345     14348     14346     14345     14347
     14346     14345     14348     14347     14345     14348     14345     14348     14349
     14345     14348     14350     14345     14348     14351     14349     14348     14350
     14349     14348     14351     14350     14348     14351     14348     14351     14352
     14348     14351     14353     14348     14351     14354     14352     14351     14353
     14352     14351     14354     14353     14351     14354     23089     23088     23093
     23089     23088     23097     23089     23088     23101     23093     23088     23097
     23093     23088     23101     23097     23088     23101     23088     23089     23090
     23088     23089     23091     23088     23089     23092     23090     23089     23091
     23090     23089     23092     23091     23089     23092     23088     23093     23094
     23088     23093     23095     23088     23093     23096     23094     23093     23095
     23094     23093     23096     23095     23093     23096     23088     23097     23098
     23088     23097     23099     23088     23097     23100     23098     23097     23099
     23098     23097     23100     23099     23097     23100     23088     23101     23102
     23088     23101     23103     23088     23101     23104     23102     23101     23103
     23102     23101     23104     23103     23101     23104     23101     23104     23105
     23101     23104     23106     23101     23104     23111     23105     23104     23106
     23105     23104     23111     23106     23104     23111     23108     23107     23109
     23108     23107     23110     23108     23107     23111     23109     23107     23110
     23109     23107     23111     23110     23107     23111     23107     23110     23112
     23104     23111     23107     23110     23112     23113     23110     23112     23114
     23110     23112     23117     23113     23112     23114     23113     23112     23117
     23114     23112     23117     23116     23115     23117     23116     23115     23167
     23117     23115     23167     23112     23117     23115     23112     23117     23118
     23112     23117     23119     23115     23117     23118     23115     23117     23119
     23118     23117     23119     23117     23119     23120     23117     23119     23121
     23117     23119     23123     23120     23119     23121     23120     23119     23123
     23121     23119     23123     23119     23121     23122     23119     23123     23124
     23119     23123     23125     23124     23123     23125     23123     23125     23126
     23123     23125     23127     23126     23125     23127     23125     23127     23128
     23125     23127     23129     23125     23127     23130     23128     23127     23129
     23128     23127     23130     23129     23127     23130     23127     23130     23131
     23127     23130     23132     23127     23130     23133     23131     23130     23132
     23131     23130     23133     23132     23130     23133     23130     23133     23134
     23130     23133     23135     23130     23133     23136     23134     23133     23135
     23134     23133     23136     23135     23133     23136     23133     23136     23137
     23133     23136     23138     23133     23136     23139     23137     23136     23138
     23137     23136     23139     23138     23136     23139     23136     23139     23140
     23136     23139     23141     23136     23139     23142     23140     23139     23141
     23140     23139     23142     23141     23139     23142     23139     23142     23143
     23139     23142     23144     23139     23142     23145     23143     23142     23144
     23143     23142     23145     23144     23142     23145     23142     23145     23146
     23142     23145     23147     23142     23145     23148     23146     23145     23147
     23146     23145     23148     23147     23145     23148     23145     23148     23149
     23145     23148     23150     23145     23148     23151     23149     23148     23150
     23149     23148     23151     23150     23148     23151     23148     23151     23152
     23148     23151     23153     23148     23151     23154     23152     23151     23153
     23152     23151     23154     23153     23151     23154     23151     23154     23155
     23151     23154     23156     23151     23154     23157     23155     23154     23156
     23155     23154     23157     23156     23154     23157     23154     23157     23158
     23154     23157     23159     23154     23157     23160     23158     23157     23159
     23158     23157     23160     23159     23157     23160     23157     23160     23161
     23157     23160     23162     23157     23160     23163     23161     23160     23162
     23161     23160     23163     23162     23160     23163     23160     23163     23164
     23160     23163     23165     23160     23163     23166     23164     23163     23165
     23164     23163     23166     23165     23163     23166     23115     23167     23168
     23115     23167     23169     23168     23167     23169     23167     23169     23170
     23167     23169     23171     23167     23169     23172     23170     23169     23171
     23170     23169     23172     23171     23169     23172     23169     23172     23173
     23169     23172     23174     23169     23172     23175     23173     23172     23174
     23173     23172     23175     23174     23172     23175     23172     23175     23176
     23172     23175     23177     23172     23175     23178     23176     23175     23177
     23176     23175     23178     23177     23175     23178     23175     23178     23179
     23175     23178     23180     23175     23178     23181     23179     23178     23180
     23179     23178     23181     23180     23178     23181     23178     23181     23182
     23178     23181     23183     23178     23181     23184     23182     23181     23183
     23182     23181     23184     23183     23181     23184     23181     23184     23185
     23181     23184     23186     23181     23184     23187     23185     23184     23186
     23185     23184     23187     23186     23184     23187     23184     23187     23188
     23184     23187     23189     23184     23187     23190     23188     23187     23189
     23188     23187     23190     23189     23187     23190     23187     23190     23191
     23187     23190     23192     23187     23190     23193     23191     23190     23192
     23191     23190     23193     23192     23190     23193     23190     23193     23194
     23190     23193     23195     23190     23193     23196     23194     23193     23195
     23194     23193     23196     23195     23193     23196     23193     23196     23197
     23193     23196     23198     23193     23196     23199     23197     23196     23198
     23197     23196     23199     23198     23196     23199     23196     23199     23200
     23196     23199     23201     23196     23199     23202     23200     23199     23201
     23200     23199     23202     23201     23199     23202     23199     23202     23203
     23199     23202     23204     23199     23202     23205     23203     23202     23204
     23203     23202     23205     23204     23202     23205     23202     23205     23206
     23202     23205     23207     23202     23205     23208     23206     23205     23207
     23206     23205     23208     23207     23205     23208     23205     23208     23209
     23205     23208     23210     23205     23208     23211     23209     23208     23210
     23209     23208     23211     23210     23208     23211     23208     23211     23212
     23208     23211     23213     23208     23211     23214     23212     23211     23213
     23212     23211     23214     23213     23211     23214      2722      2721      2723
      2722      2721      2724      2722      2721      2725      2723      2721      2724
      2723      2721      2725      2724      2721      2725      2721      2725      2726
      2721      2725      2727      2721      2725      2728      2726      2725      2727
      2726      2725      2728      2727      2725      2728      2725      2728      2729
      2725      2728      2730      2725      2728      2735      2729      2728      2730
      2729      2728      2735      2730      2728      2735      2732      2731      2733
      2732      2731      2734      2732      2731      2735      2733      2731      2734
      2733      2731      2735      2734      2731      2735      2731      2734      2736
      2728      2735      2731      2734      2736      2737      2734      2736      2738
      2734      2736      2739      2737      2736      2738      2737      2736      2739
      2738      2736      2739      2736      2739      2740      2736      2739      2741
      2736      2739      2747      2740      2739      2741      2740      2739      2747
      2741      2739      2747      2739      2741      2742      2741      2742      2743
      2741      2742      2744      2743      2742      2744      2742      2744      2745
      2742      2744      2746      2742      2744      2756      2745      2744      2746
      2745      2744      2756      2746      2744      2756      2739      2747      2748
      2739      2747      2749      2739      2747      2750      2748      2747      2749
      2748      2747      2750      2749      2747      2750      2747      2750      2751
      2750      2751      2752      2750      2751      2753      2752      2751      2753
      2751      2753      2754      2751      2753      2755      2751      2753      2803
      2754      2753      2755      2754      2753      2803      2755      2753      2803
      2744      2756      2757      2744      2756      2758      2744      2756      2759
      2757      2756      2758      2757      2756      2759      2758      2756      2759
      2756      2759      2760      2756      2759      2761      2756      2759      2762
      2760      2759      2761      2760      2759      2762      2761      2759      2762
      2759      2762      2763      2759      2762      2764      2759      2762      2765
      2763      2762      2764      2763      2762      2765      2764      2762      2765
      2762      2765      2766      2762      2765      2767      2762      2765      2768
      2766      2765      2767      2766      2765      2768      2767      2765      2768
      2765      2768      2769      2765      2768      2770      2765      2768      2771
      2769      2768      2770      2769      2768      2771      2770      2768      2771
      2768      2771      2772      2768      2771      2773      2768      2771      2774
      2772      2771      2773      2772      2771      2774      2773      2771      2774
      2771      2774      2775      2771      2774      2776      2775      2774      2776
      2774      2776      2777      2774      2776      2778      2777      2776      2778
      2776      2778      2779      2776      2778      2780      2776      2778      2781
      2779      2778      2780      2779      2778      2781      2780      2778      2781
      2778      2781      2782      2778      2781      2783      2778      2781      2784
      2782      2781      2783      2782      2781      2784      2783      2781      2784
      2781      2784      2785      2781      2784      2786      2781      2784      2787
      2785      2784      2786      2785      2784      2787      2786      2784      2787
      2784      2787      2788      2784      2787      2789      2784      2787      2790
      2788      2787      2789      2788      2787      2790      2789      2787      2790
      2787      2790      2791      2787      2790      2792      2787      2790      2793
      2791      2790      2792      2791      2790      2793      2792      2790      2793
      2790      2793      2794      2790      2793      2795      2790      2793      2796
      2794      2793      2795      2794      2793      2796      2795      2793      2796
      2793      2796      2797      2793      2796      2798      2793      2796      2799
      2797      2796      2798      2797      2796      2799      2798      2796      2799
      2796      2799      2800      2796      2799      2801      2796      2799      2802
      2800      2799      2801      2800      2799      2802      2801      2799      2802
      2753      2803      2804      2753      2803      2805      2753      2803      2806
      2804      2803      2805      2804      2803      2806      2805      2803      2806
      2803      2806      2807      2803      2806      2808      2803      2806      2809
      2807      2806      2808      2807      2806      2809      2808      2806      2809
      2806      2809      2810      2806      2809      2811      2806      2809      2812
      2810      2809      2811      2810      2809      2812      2811      2809      2812
      2809      2812      2813      2809      2812      2814      2809      2812      2815
      2813      2812      2814      2813      2812      2815      2814      2812      2815
      2812      2815      2816      2812      2815      2817      2812      2815      2818
      2816      2815      2817      2816      2815      2818      2817      2815      2818
      2815      2818      2819      2815      2818      2820      2815      2818      2821
      2819      2818      2820      2819      2818      2821      2820      2818      2821
      2818      2821      2822      2818      2821      2823      2818      2821      2824
      2822      2821      2823      2822      2821      2824      2823      2821      2824
      2821      2824      2825      2821      2824      2826      2821      2824      2827
      2825      2824      2826      2825      2824      2827      2826      2824      2827
      2824      2827      2828      2824      2827      2829      2824      2827      2830
      2828      2827      2829      2828      2827      2830      2829      2827      2830
      2827      2830      2831      2827      2830      2832      2827      2830      2833
      2831      2830      2832      2831      2830      2833      2832      2830      2833
      2830      2833      2834      2830      2833      2835      2830      2833      2836
      2834      2833      2835      2834      2833      2836      2835      2833      2836
      2833      2836      2837      2833      2836      2838      2833      2836      2839
      2837      2836      2838      2837      2836      2839      2838      2836      2839
      2836      2839      2840      2836      2839      2841      2836      2839      2842
      2840      2839      2841      2840      2839      2842      2841      2839      2842
      2839      2842      2843      2839      2842      2844      2839      2842      2845
      2843      2842      2844      2843      2842      2845      2844      2842      2845
       372       371       373       372       371       375       372       371       417
       373       371       375       373       371       417       375       371       417
       371       373       374       371       375       376       371       375       377
       371       375       378       376       375       377       376       375       378
       377       375       378       375       378       379       375       378       409
       379       378       409       378       379       380       378       379       381
       380       379       381       379       381       382       379       381       383
       379       381       384       382       381       383       382       381       384
       383       381       384       381       384       385       381       384       386
       381       384       407       385       384       386       385       384       407
       386       384       407       384       386       387       384       386       388
       384       386       396       387       386       388       387       386       396
       388       386       396       386       388       389       386       388       390
       386       388       391       389       388       390       389       388       391
       390       388       391       388       391       392       388       391       393
       388       391       394       392       391       393       392       391       394
       393       391       394       391       394       395       391       394       396
       391       394       420       395       394       396       395       394       420
       396       394       420       386       396       394       386       396       397
       386       396       401       394       396       397       394       396       401
       397       396       401       396       397       398       396       397       399
       396       397       400       398       397       399       398       397       400
       399       397       400       396       401       402       396       401       403
       396       401       404       402       401       403       402       401       404
       403       401       404       401       404       405       401       404       406
       401       404       407       405       404       406       405       404       407
       406       404       407       384       407       404       384       407       408
       384       407       409       404       407       408       404       407       409
       408       407       409       378       409       407       378       409       410
       378       409       414       407       409       410       407       409       414
       410       409       414       409       410       411       409       410       412
       409       410       413       411       410       412       411       410       413
       412       410       413       409       414       415       409       414       416
       409       414       417       415       414       416       415       414       417
       416       414       417       371       417       414       371       417       418
       371       417       419       414       417       418       414       417       419
       418       417       419       394       420       421       394       420       422
       394       420       426       421       420       422       421       420       426
       422       420       426       420       422       423       420       422       424
       420       422       425       423       422       424       423       422       425
       424       422       425       420       426       427       420       426       428
       420       426       429       427       426       428       427       426       429
       428       426       429       426       429       430       426       429       431
       426       429       432       430       429       431       430       429       432
       431       429       432       429       432       433       429       432       434
       429       432       435       433       432       434       433       432       435
       434       432       435       432       435       436       432       435       437
       432       435       441       436       435       437       436       435       441
       437       435       441       435       437       438       435       437       439
       435       437       440       438       437       439       438       437       440
       439       437       440       435       441       442       435       441       443
       435       441       444       442       441       443       442       441       444
       443       441       444     14356     14355     14359     14356     14355     14363
     14356     14355     14367     14359     14355     14363     14359     14355     14367
     14363     14355     14367     14355     14356     14357     14355     14356     14358
     14355     14356     14371     14357     14356     14358     14357     14356     14371
     14358     14356     14371     14355     14359     14360     14355     14359     14361
     14355     14359     14362     14360     14359     14361     14360     14359     14362
     14361     14359     14362     14355     14363     14364     14355     14363     14365
     14355     14363     14366     14364     14363     14365     14364     14363     14366
     14365     14363     14366     14355     14367     14368     14355     14367     14369
     14355     14367     14370     14368     14367     14369     14368     14367     14370
     14369     14367     14370     14356     14371     14372     14356     14371     14373
     14356     14371     14377     14372     14371     14373     14372     14371     14377
     14373     14371     14377     14375     14374     14376     14375     14374     14377
     14375     14374     14378     14376     14374     14377     14376     14374     14378
     14377     14374     14378     14371     14377     14374     14374     14378     14379
     14378     14379     14380     14378     14379     14381     14378     14379     14382
     14380     14379     14381     14380     14379     14382     14381     14379     14382
     14379     14382     14383     14379     14382     14384     14379     14382     14390
     14383     14382     14384     14383     14382     14390     14384     14382     14390
     14382     14384     14385     14384     14385     14386     14384     14385     14387
     14386     14385     14387     14385     14387     14388     14385     14387     14389
     14385     14387     14399     14388     14387     14389     14388     14387     14399
     14389     14387     14399     14382     14390     14391     14382     14390     14392
     14382     14390     14393     14391     14390     14392     14391     14390     14393
     14392     14390     14393     14390     14393     14394     14393     14394     14395
     14393     14394     14396     14395     14394     14396     14394     14396     14397
     14394     14396     14398     14394     14396     14446     14397     14396     14398
     14397     14396     14446     14398     14396     14446     14387     14399     14400
     14387     14399     14401     14387     14399     14402     14400     14399     14401
     14400     14399     14402     14401     14399     14402     14399     14402     14403
     14399     14402     14404     14399     14402     14405     14403     14402     14404
     14403     14402     14405     14404     14402     14405     14402     14405     14406
     14402     14405     14407     14402     14405     14408     14406     14405     14407
     14406     14405     14408     14407     14405     14408     14405     14408     14409
     14405     14408     14410     14405     14408     14411     14409     14408     14410
     14409     14408     14411     14410     14408     14411     14408     14411     14412
     14408     14411     14413     14408     14411     14414     14412     14411     14413
     14412     14411     14414     14413     14411     14414     14411     14414     14415
     14411     14414     14416     14411     14414     14417     14415     14414     14416
     14415     14414     14417     14416     14414     14417     14414     14417     14418
     14414     14417     14419     14418     14417     14419     14417     14419     14420
     14417     14419     14421     14420     14419     14421     14419     14421     14422
     14419     14421     14423     14419     14421     14424     14422     14421     14423
     14422     14421     14424     14423     14421     14424     14421     14424     14425
     14421     14424     14426     14421     14424     14427     14425     14424     14426
     14425     14424     14427     14426     14424     14427     14424     14427     14428
     14424     14427     14429     14424     14427     14430     14428     14427     14429
     14428     14427     14430     14429     14427     14430     14427     14430     14431
     14427     14430     14432     14427     14430     14433     14431     14430     14432
     14431     14430     14433     14432     14430     14433     14430     14433     14434
     14430     14433     14435     14430     14433     14436     14434     14433     14435
     14434     14433     14436     14435     14433     14436     14433     14436     14437
     14433     14436     14438     14433     14436     14439     14437     14436     14438
     14437     14436     14439     14438     14436     14439     14436     14439     14440
     14436     14439     14441     14436     14439     14442     14440     14439     14441
     14440     14439     14442     14441     14439     14442     14439     14442     14443
     14439     14442     14444     14439     14442     14445     14443     14442     14444
     14443     14442     14445     14444     14442     14445     14396     14446     14447
     14396     14446     14448     14396     14446     14449     14447     14446     14448
     14447     14446     14449     14448     14446     14449     14446     14449     14450
     14446     14449     14451     14446     14449     14452     14450     14449     14451
     14450     14449     14452     14451     14449     14452     14449     14452     14453
     14449     14452     14454     14449     14452     14455     14453     14452     14454
     14453     14452     14455     14454     14452     14455     14452     14455     14456
     14452     14455     14457     14452     14455     14458     14456     14455     14457
     14456     14455     14458     14457     14455     14458     14455     14458     14459
     14455     14458     14460     14455     14458     14461     14459     14458     14460
     14459     14458     14461     14460     14458     14461     14458     14461     14462
     14458     14461     14463     14458     14461     14464     14462     14461     14463
     14462     14461     14464     14463     14461     14464     14461     14464     14465
     14461     14464     14466     14461     14464     14467     14465     14464     14466
     14465     14464     14467     14466     14464     14467     14464     14467     14468
     14464     14467     14469     14464     14467     14470     14468     14467     14469
     14468     14467     14470     14469     14467     14470     14467     14470     14471
     14467     14470     14472     14467     14470     14473     14471     14470     14472
     14471     14470     14473     14472     14470     14473     14470     14473     14474
     14470     14473     14475     14470     14473     14476     14474     14473     14475
     14474     14473     14476     14475     14473     14476     14473     14476     14477
     14473     14476     14478     14473     14476     14479     14477     14476     14478
     14477     14476     14479     14478     14476     14479     14476     14479     14480
     14476     14479     14481     14476     14479     14482     14480     14479     14481
     14480     14479     14482     14481     14479     14482     14479     14482     14483
     14479     14482     14484     14479     14482     14485     14483     14482     14484
     14483     14482     14485     14484     14482     14485     14482     14485     14486
     14482     14485     14487     14482     14485     14488     14486     14485     14487
     14486     14485     14488     14487     14485     14488      8726      8725      8727
      8726      8725      8728      8726      8725      8729      8727      8725      8728
      8727      8725      8729      8728      8725      8729      8725      8729      8730
      8725      8729      8731      8725      8729      8734      8730      8729      8731
      8730      8729      8734      8731      8729      8734      8729      8731      8732
      8729      8731      8733      8732      8731      8733      8729      8734      8735
      8729      8734      8736      8729      8734      8740      8735      8734      8736
      8735      8734      8740      8736      8734      8740      8738      8737      8739
      8738      8737      8740      8738      8737      8741      8739      8737      8740
      8739      8737      8741      8740      8737      8741      8734      8740      8737
      8737      8741      8742      8741      8742      8743      8741      8742      8744
      8741      8742      8745      8743      8742      8744      8743      8742      8745
      8744      8742      8745      8742      8745      8746      8742      8745      8747
      8742      8745      8753      8746      8745      8747      8746      8745      8753
      8747      8745      8753      8745      8747      8748      8747      8748      8749
      8747      8748      8750      8749      8748      8750      8748      8750      8751
      8748      8750      8752      8748      8750      8762      8751      8750      8752
      8751      8750      8762      8752      8750      8762      8745      8753      8754
      8745      8753      8755      8745      8753      8756      8754      8753      8755
      8754      8753      8756      8755      8753      8756      8753      8756      8757
      8756      8757      8758      8756      8757      8759      8758      8757      8759
      8757      8759      8760      8757      8759      8761      8757      8759      8809
      8760      8759      8761      8760      8759      8809      8761      8759      8809
      8750      8762      8763      8750      8762      8764      8750      8762      8765
      8763      8762      8764      8763      8762      8765      8764      8762      8765
      8762      8765      8766      8762      8765      8767      8762      8765      8768
      8766      8765      8767      8766      8765      8768      8767      8765      8768
      8765      8768      8769      8765      8768      8770      8765      8768      8771
      8769      8768      8770      8769      8768      8771      8770      8768      8771
      8768      8771      8772      8768      8771      8773      8768      8771      8774
      8772      8771      8773      8772      8771      8774      8773      8771      8774
      8771      8774      8775      8771      8774      8776      8771      8774      8777
      8775      8774      8776      8775      8774      8777      8776      8774      8777
      8774      8777      8778      8774      8777      8779      8774      8777      8780
      8778      8777      8779      8778      8777      8780      8779      8777      8780
      8777      8780      8781      8777      8780      8782      8781      8780      8782
      8780      8782      8783      8780      8782      8784      8783      8782      8784
      8782      8784      8785      8782      8784      8786      8782      8784      8787
      8785      8784      8786      8785      8784      8787      8786      8784      8787
      8784      8787      8788      8784      8787      8789      8784      8787      8790
      8788      8787      8789      8788      8787      8790      8789      8787      8790
      8787      8790      8791      8787      8790      8792      8787      8790      8793
      8791      8790      8792      8791      8790      8793      8792      8790      8793
      8790      8793      8794      8790      8793      8795      8790      8793      8796
      8794      8793      8795      8794      8793      8796      8795      8793      8796
      8793      8796      8797      8793      8796      8798      8793      8796      8799
      8797      8796      8798      8797      8796      8799      8798      8796      8799
      8796      8799      8800      8796      8799      8801      8796      8799      8802
      8800      8799      8801      8800      8799      8802      8801      8799      8802
      8799      8802      8803      8799      8802      8804      8799      8802      8805
      8803      8802      8804      8803      8802      8805      8804      8802      8805
      8802      8805      8806      8802      8805      8807      8802      8805      8808
      8806      8805      8807      8806      8805      8808      8807      8805      8808
      8759      8809      8810      8759      8809      8811      8759      8809      8812
      8810      8809      8811      8810      8809      8812      8811      8809      8812
      8809      8812      8813      8809      8812      8814      8809      8812      8815
      8813      8812      8814      8813      8812      8815      8814      8812      8815
      8812      8815      8816      8812      8815      8817      8812      8815      8818
      8816      8815      8817      8816      8815      8818      8817      8815      8818
      8815      8818      8819      8815      8818      8820      8815      8818      8821
      8819      8818      8820      8819      8818      8821      8820      8818      8821
      8818      8821      8822      8818      8821      8823      8818      8821      8824
      8822      8821      8823      8822      8821      8824      8823      8821      8824
      8821      8824      8825      8821      8824      8826      8821      8824      8827
      8825      8824      8826      8825      8824      8827      8826      8824      8827
      8824      8827      8828      8824      8827      8829      8824      8827      8830
      8828      8827      8829      8828      8827      8830      8829      8827      8830
      8827      8830      8831      8827      8830      8832      8827      8830      8833
      8831      8830      8832      8831      8830      8833      8832      8830      8833
      8830      8833      8834      8830      8833      8835      8830      8833      8836
      8834      8833      8835      8834      8833      8836      8835      8833      8836
      8833      8836      8837      8833      8836      8838      8833      8836      8839
      8837      8836      8838      8837      8836      8839      8838      8836      8839
      8836      8839      8840      8836      8839      8841      8836      8839      8842
      8840      8839      8841      8840      8839      8842      8841      8839      8842
      8839      8842      8843      8839      8842      8844      8839      8842      8845
      8843      8842      8844      8843      8842      8845      8844      8842      8845
      8842      8845      8846      8842      8845      8847      8842      8845      8848
      8846      8845      8847      8846      8845      8848      8847      8845      8848
      8845      8848      8849      8845      8848      8850      8845      8848      8851
      8849      8848      8850      8849      8848      8851      8850      8848      8851
      8853      8852      8854      8853      8852      8855      8853      8852      8856
      8854      8852      8855      8854      8852      8856      8855      8852      8856
      8852      8856      8857      8852      8856      8858      8852      8856      8861
      8857      8856      8858      8857      8856      8861      8858      8856      8861
      8856      8858      8859      8856      8858      8860      8859      8858      8860
      8856      8861      8862      8856      8861      8863      8856      8861      8867
      8862      8861      8863      8862      8861      8867      8863      8861      8867
      8865      8864      8866      8865      8864      8867      8865      8864      8868
      8866      8864      8867      8866      8864      8868      8867      8864      8868
      8861      8867      8864      8864      8868      8869      8868      8869      8870
      8868      8869      8871      8868      8869      8872      8870      8869      8871
      8870      8869      8872      8871      8869      8872      8869      8872      8873
      8869      8872      8874      8869      8872      8880      8873      8872      8874
      8873      8872      8880      8874      8872      8880      8872      8874      8875
      8874      8875      8876      8874      8875      8877      8876      8875      8877
      8875      8877      8878      8875      8877      8879      8875      8877      8889
      8878      8877      8879      8878      8877      8889      8879      8877      8889
      8872      8880      8881      8872      8880      8882      8872      8880      8883
      8881      8880      8882      8881      8880      8883      8882      8880      8883
      8880      8883      8884      8883      8884      8885      8883      8884      8886
      8885      8884      8886      8884      8886      8887      8884      8886      8888
      8884      8886      8936      8887      8886      8888      8887      8886      8936
      8888      8886      8936      8877      8889      8890      8877      8889      8891
      8877      8889      8892      8890      8889      8891      8890      8889      8892
      8891      8889      8892      8889      8892      8893      8889      8892      8894
      8889      8892      8895      8893      8892      8894      8893      8892      8895
      8894      8892      8895      8892      8895      8896      8892      8895      8897
      8892      8895      8898      8896      8895      8897      8896      8895      8898
      8897      8895      8898      8895      8898      8899      8895      8898      8900
      8895      8898      8901      8899      8898      8900      8899      8898      8901
      8900      8898      8901      8898      8901      8902      8898      8901      8903
      8898      8901      8904      8902      8901      8903      8902      8901      8904
      8903      8901      8904      8901      8904      8905      8901      8904      8906
      8901      8904      8907      8905      8904      8906      8905      8904      8907
      8906      8904      8907      8904      8907      8908      8904      8907      8909
      8908      8907      8909      8907      8909      8910      8907      8909      8911
      8910      8909      8911      8909      8911      8912      8909      8911      8913
      8909      8911      8914      8912      8911      8913      8912      8911      8914
      8913      8911      8914      8911      8914      8915      8911      8914      8916
      8911      8914      8917      8915      8914      8916      8915      8914      8917
      8916      8914      8917      8914      8917      8918      8914      8917      8919
      8914      8917      8920      8918      8917      8919      8918      8917      8920
      8919      8917      8920      8917      8920      8921      8917      8920      8922
      8917      8920      8923      8921      8920      8922      8921      8920      8923
      8922      8920      8923      8920      8923      8924      8920      8923      8925
      8920      8923      8926      8924      8923      8925      8924      8923      8926
      8925      8923      8926      8923      8926      8927      8923      8926      8928
      8923      8926      8929      8927      8926      8928      8927      8926      8929
      8928      8926      8929      8926      8929      8930      8926      8929      8931
      8926      8929      8932      8930      8929      8931      8930      8929      8932
      8931      8929      8932      8929      8932      8933      8929      8932      8934
      8929      8932      8935      8933      8932      8934      8933      8932      8935
      8934      8932      8935      8886      8936      8937      8886      8936      8938
      8886      8936      8939      8937      8936      8938      8937      8936      8939
      8938      8936      8939      8936      8939      8940      8936      8939      8941
      8936      8939      8942      8940      8939      8941      8940      8939      8942
      8941      8939      8942      8939      8942      8943      8939      8942      8944
      8939      8942      8945      8943      8942      8944      8943      8942      8945
      8944      8942      8945      8942      8945      8946      8942      8945      8947
      8942      8945      8948      8946      8945      8947      8946      8945      8948
      8947      8945      8948      8945      8948      8949      8945      8948      8950
      8945      8948      8951      8949      8948      8950      8949      8948      8951
      8950      8948      8951      8948      8951      8952      8948      8951      8953
      8948      8951      8954      8952      8951      8953      8952      8951      8954
      8953      8951      8954      8951      8954      8955      8951      8954      8956
      8951      8954      8957      8955      8954      8956      8955      8954      8957
      8956      8954      8957      8954      8957      8958      8954      8957      8959
      8954      8957      8960      8958      8957      8959      8958      8957      8960
      8959      8957      8960      8957      8960      8961      8957      8960      8962
      8957      8960      8963      8961      8960      8962      8961      8960      8963
      8962      8960      8963      8960      8963      8964      8960      8963      8965
      8960      8963      8966      8964      8963      8965      8964      8963      8966
      8965      8963      8966      8963      8966      8967      8963      8966      8968
      8963      8966      8969      8967      8966      8968      8967      8966      8969
      8968      8966      8969      8966      8969      8970      8966      8969      8971
      8966      8969      8972      8970      8969      8971      8970      8969      8972
      8971      8969      8972      8969      8972      8973      8969      8972      8974
      8969      8972      8975      8973      8972      8974      8973      8972      8975
      8974      8972      8975      8972      8975      8976      8972      8975      8977
      8972      8975      8978      8976      8975      8977      8976      8975      8978
      8977      8975      8978      2847      2846      2848      2847      2846      2849
      2847      2846      2850      2848      2846      2849      2848      2846      2850
      2849      2846      2850      2846      2850      2851      2846      2850      2852
      2846      2850      2853      2851      2850      2852      2851      2850      2853
      2852      2850      2853      2850      2853      2854      2850      2853      2855
      2850      2853      2860      2854      2853      2855      2854      2853      2860
      2855      2853      2860      2857      2856      2858      2857      2856      2859
      2857      2856      2860      2858      2856      2859      2858      2856      2860
      2859      2856      2860      2856      2859      2861      2853      2860      2856
      2859      2861      2862      2859      2861      2863      2859      2861      2864
      2862      2861      2863      2862      2861      2864      2863      2861      2864
      2861      2864      2865      2861      2864      2866      2861      2864      2872
      2865      2864      2866      2865      2864      2872      2866      2864      2872
      2864      2866      2867      2866      2867      2868      2866      2867      2869
      2868      2867      2869      2867      2869      2870      2867      2869      2871
      2867      2869      2881      2870      2869      2871      2870      2869      2881
      2871      2869      2881      2864      2872      2873      2864      2872      2874
      2864      2872      2875      2873      2872      2874      2873      2872      2875
      2874      2872      2875      2872      2875      2876      2875      2876      2877
      2875      2876      2878      2877      2876      2878      2876      2878      2879
      2876      2878      2880      2876      2878      2928      2879      2878      2880
      2879      2878      2928      2880      2878      2928      2869      2881      2882
      2869      2881      2883      2869      2881      2884      2882      2881      2883
      2882      2881      2884      2883      2881      2884      2881      2884      2885
      2881      2884      2886      2881      2884      2887      2885      2884      2886
      2885      2884      2887      2886      2884      2887      2884      2887      2888
      2884      2887      2889      2884      2887      2890      2888      2887      2889
      2888      2887      2890      2889      2887      2890      2887      2890      2891
      2887      2890      2892      2887      2890      2893      2891      2890      2892
      2891      2890      2893      2892      2890      2893      2890      2893      2894
      2890      2893      2895      2890      2893      2896      2894      2893      2895
      2894      2893      2896      2895      2893      2896      2893      2896      2897
      2893      2896      2898      2893      2896      2899      2897      2896      2898
      2897      2896      2899      2898      2896      2899      2896      2899      2900
      2896      2899      2901      2900      2899      2901      2899      2901      2902
      2899      2901      2903      2902      2901      2903      2901      2903      2904
      2901      2903      2905      2901      2903      2906      2904      2903      2905
      2904      2903      2906      2905      2903      2906      2903      2906      2907
      2903      2906      2908      2903      2906      2909      2907      2906      2908
      2907      2906      2909      2908      2906      2909      2906      2909      2910
      2906      2909      2911      2906      2909      2912      2910      2909      2911
      2910      2909      2912      2911      2909      2912      2909      2912      2913
      2909      2912      2914      2909      2912      2915      2913      2912      2914
      2913      2912      2915      2914      2912      2915      2912      2915      2916
      2912      2915      2917      2912      2915      2918      2916      2915      2917
      2916      2915      2918      2917      2915      2918      2915      2918      2919
      2915      2918      2920      2915      2918      2921      2919      2918      2920
      2919      2918      2921      2920      2918      2921      2918      2921      2922
      2918      2921      2923      2918      2921      2924      2922      2921      2923
      2922      2921      2924      2923      2921      2924      2921      2924      2925
      2921      2924      2926      2921      2924      2927      2925      2924      2926
      2925      2924      2927      2926      2924      2927      2878      2928      2929
      2878      2928      2930      2878      2928      2931      2929      2928      2930
      2929      2928      2931      2930      2928      2931      2928      2931      2932
      2928      2931      2933      2928      2931      2934      2932      2931      2933
      2932      2931      2934      2933      2931      2934      2931      2934      2935
      2931      2934      2936      2931      2934      2937      2935      2934      2936
      2935      2934      2937      2936      2934      2937      2934      2937      2938
      2934      2937      2939      2934      2937      2940      2938      2937      2939
      2938      2937      2940      2939      2937      2940      2937      2940      2941
      2937      2940      2942      2937      2940      2943      2941      2940      2942
      2941      2940      2943      2942      2940      2943      2940      2943      2944
      2940      2943      2945      2940      2943      2946      2944      2943      2945
      2944      2943      2946      2945      2943      2946      2943      2946      2947
      2943      2946      2948      2943      2946      2949      2947      2946      2948
      2947      2946      2949      2948      2946      2949      2946      2949      2950
      2946      2949      2951      2946      2949      2952      2950      2949      2951
      2950      2949      2952      2951      2949      2952      2949      2952      2953
      2949      2952      2954      2949      2952      2955      2953      2952      2954
      2953      2952      2955      2954      2952      2955      2952      2955      2956
      2952      2955      2957      2952      2955      2958      2956      2955      2957
      2956      2955      2958      2957      2955      2958      2955      2958      2959
      2955      2958      2960      2955      2958      2961      2959      2958      2960
      2959      2958      2961      2960      2958      2961      2958      2961      2962
      2958      2961      2963      2958      2961      2964      2962      2961      2963
      2962      2961      2964      2963      2961      2964      2961      2964      2965
      2961      2964      2966      2961      2964      2967      2965      2964      2966
      2965      2964      2967      2966      2964      2967      2964      2967      2968
      2964      2967      2969      2964      2967      2970      2968      2967      2969
      2968      2967      2970      2969      2967      2970      8980      8979      8981
      8980      8979      8982      8980      8979      8983      8981      8979      8982
      8981      8979      8983      8982      8979      8983      8979      8983      8984
      8979      8983      8985      8979      8983      8988      8984      8983      8985
      8984      8983      8988      8985      8983      8988      8983      8985      8986
      8983      8985      8987      8986      8985      8987      8983      8988      8989
      8983      8988      8990      8983      8988      8994      8989      8988      8990
      8989      8988      8994      8990      8988      8994      8992      8991      8993
      8992      8991      8994      8992      8991      8995      8993      8991      8994
      8993      8991      8995      8994      8991      8995      8988      8994      8991
      8991      8995      8996      8995      8996      8997      8995      8996      8998
      8995      8996      8999      8997      8996      8998      8997      8996      8999
      8998      8996      8999      8996      8999      9000      8996      8999      9001
      8996      8999      9007      9000      8999      9001      9000      8999      9007
      9001      8999      9007      8999      9001      9002      9001      9002      9003
      9001      9002      9004      9003      9002      9004      9002      9004      9005
      9002      9004      9006      9002      9004      9016      9005      9004      9006
      9005      9004      9016      9006      9004      9016      8999      9007      9008
      8999      9007      9009      8999      9007      9010      9008      9007      9009
      9008      9007      9010      9009      9007      9010      9007      9010      9011
      9010      9011      9012      9010      9011      9013      9012      9011      9013
      9011      9013      9014      9011      9013      9015      9011      9013      9063
      9014      9013      9015      9014      9013      9063      9015      9013      9063
      9004      9016      9017      9004      9016      9018      9004      9016      9019
      9017      9016      9018      9017      9016      9019      9018      9016      9019
      9016      9019      9020      9016      9019      9021      9016      9019      9022
      9020      9019      9021      9020      9019      9022      9021      9019      9022
      9019      9022      9023      9019      9022      9024      9019      9022      9025
      9023      9022      9024      9023      9022      9025      9024      9022      9025
      9022      9025      9026      9022      9025      9027      9022      9025      9028
      9026      9025      9027      9026      9025      9028      9027      9025      9028
      9025      9028      9029      9025      9028      9030      9025      9028      9031
      9029      9028      9030      9029      9028      9031      9030      9028      9031
      9028      9031      9032      9028      9031      9033      9028      9031      9034
      9032      9031      9033      9032      9031      9034      9033      9031      9034
      9031      9034      9035      9031      9034      9036      9035      9034      9036
      9034      9036      9037      9034      9036      9038      9037      9036      9038
      9036      9038      9039      9036      9038      9040      9036      9038      9041
      9039      9038      9040      9039      9038      9041      9040      9038      9041
      9038      9041      9042      9038      9041      9043      9038      9041      9044
      9042      9041      9043      9042      9041      9044      9043      9041      9044
      9041      9044      9045      9041      9044      9046      9041      9044      9047
      9045      9044      9046      9045      9044      9047      9046      9044      9047
      9044      9047      9048      9044      9047      9049      9044      9047      9050
      9048      9047      9049      9048      9047      9050      9049      9047      9050
      9047      9050      9051      9047      9050      9052      9047      9050      9053
      9051      9050      9052      9051      9050      9053      9052      9050      9053
      9050      9053      9054      9050      9053      9055      9050      9053      9056
      9054      9053      9055      9054      9053      9056      9055      9053      9056
      9053      9056      9057      9053      9056      9058      9053      9056      9059
      9057      9056      9058      9057      9056      9059      9058      9056      9059
      9056      9059      9060      9056      9059      9061      9056      9059      9062
      9060      9059      9061      9060      9059      9062      9061      9059      9062
      9013      9063      9064      9013      9063      9065      9013      9063      9066
      9064      9063      9065      9064      9063      9066      9065      9063      9066
      9063      9066      9067      9063      9066      9068      9063      9066      9069
      9067      9066      9068      9067      9066      9069      9068      9066      9069
      9066      9069      9070      9066      9069      9071      9066      9069      9072
      9070      9069      9071      9070      9069      9072      9071      9069      9072
      9069      9072      9073      9069      9072      9074      9069      9072      9075
      9073      9072      9074      9073      9072      9075      9074      9072      9075
      9072      9075      9076      9072      9075      9077      9072      9075      9078
      9076      9075      9077      9076      9075      9078      9077      9075      9078
      9075      9078      9079      9075      9078      9080      9075      9078      9081
      9079      9078      9080      9079      9078      9081      9080      9078      9081
      9078      9081      9082      9078      9081      9083      9078      9081      9084
      9082      9081      9083      9082      9081      9084      9083      9081      9084
      9081      9084      9085      9081      9084      9086      9081      9084      9087
      9085      9084      9086      9085      9084      9087      9086      9084      9087
      9084      9087      9088      9084      9087      9089      9084      9087      9090
      9088      9087      9089      9088      9087      9090      9089      9087      9090
      9087      9090      9091      9087      9090      9092      9087      9090      9093
      9091      9090      9092      9091      9090      9093      9092      9090      9093
      9090      9093      9094      9090      9093      9095      9090      9093      9096
      9094      9093      9095      9094      9093      9096      9095      9093      9096
      9093      9096      9097      9093      9096      9098      9093      9096      9099
      9097      9096      9098      9097      9096      9099      9098      9096      9099
      9096      9099      9100      9096      9099      9101      9096      9099      9102
      9100      9099      9101      9100      9099      9102      9101      9099      9102
      9099      9102      9103      9099      9102      9104      9099      9102      9105
      9103      9102      9104      9103      9102      9105      9104      9102      9105
      9107      9106      9108      9107      9106      9109      9107      9106      9110
      9108      9106      9109      9108      9106      9110      9109      9106      9110
      9106      9110      9111      9106      9110      9112      9106      9110      9115
      9111      9110      9112      9111      9110      9115      9112      9110      9115
      9110      9112      9113      9110      9112      9114      9113      9112      9114
      9110      9115      9116      9110      9115      9117      9110      9115      9121
      9116      9115      9117      9116      9115      9121      9117      9115      9121
      9119      9118      9120      9119      9118      9121      9119      9118      9122
      9120      9118      9121      9120      9118      9122      9121      9118      9122
      9115      9121      9118      9118      9122      9123      9122      9123      9124
      9122      9123      9125      9122      9123      9126      9124      9123      9125
      9124      9123      9126      9125      9123      9126      9123      9126      9127
      9123      9126      9128      9123      9126      9134      9127      9126      9128
      9127      9126      9134      9128      9126      9134      9126      9128      9129
      9128      9129      9130      9128      9129      9131      9130      9129      9131
      9129      9131      9132      9129      9131      9133      9129      9131      9143
      9132      9131      9133      9132      9131      9143      9133      9131      9143
      9126      9134      9135      9126      9134      9136      9126      9134      9137
      9135      9134      9136      9135      9134      9137      9136      9134      9137
      9134      9137      9138      9137      9138      9139      9137      9138      9140
      9139      9138      9140      9138      9140      9141      9138      9140      9142
      9138      9140      9190      9141      9140      9142      9141      9140      9190
      9142      9140      9190      9131      9143      9144      9131      9143      9145
      9131      9143      9146      9144      9143      9145      9144      9143      9146
      9145      9143      9146      9143      9146      9147      9143      9146      9148
      9143      9146      9149      9147      9146      9148      9147      9146      9149
      9148      9146      9149      9146      9149      9150      9146      9149      9151
      9146      9149      9152      9150      9149      9151      9150      9149      9152
      9151      9149      9152      9149      9152      9153      9149      9152      9154
      9149      9152      9155      9153      9152      9154      9153      9152      9155
      9154      9152      9155      9152      9155      9156      9152      9155      9157
      9152      9155      9158      9156      9155      9157      9156      9155      9158
      9157      9155      9158      9155      9158      9159      9155      9158      9160
      9155      9158      9161      9159      9158      9160      9159      9158      9161
      9160      9158      9161      9158      9161      9162      9158      9161      9163
      9162      9161      9163      9161      9163      9164      9161      9163      9165
      9164      9163      9165      9163      9165      9166      9163      9165      9167
      9163      9165      9168      9166      9165      9167      9166      9165      9168
      9167      9165      9168      9165      9168      9169      9165      9168      9170
      9165      9168      9171      9169      9168      9170      9169      9168      9171
      9170      9168      9171      9168      9171      9172      9168      9171      9173
      9168      9171      9174      9172      9171      9173      9172      9171      9174
      9173      9171      9174      9171      9174      9175      9171      9174      9176
      9171      9174      9177      9175      9174      9176      9175      9174      9177
      9176      9174      9177      9174      9177      9178      9174      9177      9179
      9174      9177      9180      9178      9177      9179      9178      9177      9180
      9179      9177      9180      9177      9180      9181      9177      9180      9182
      9177      9180      9183      9181      9180      9182      9181      9180      9183
      9182      9180      9183      9180      9183      9184      9180      9183      9185
      9180      9183      9186      9184      9183      9185      9184      9183      9186
      9185      9183      9186      9183      9186      9187      9183      9186      9188
      9183      9186      9189      9187      9186      9188      9187      9186      9189
      9188      9186      9189      9140      9190      9191      9140      9190      9192
      9140      9190      9193      9191      9190      9192      9191      9190      9193
      9192      9190      9193      9190      9193      9194      9190      9193      9195
      9190      9193      9196      9194      9193      9195      9194      9193      9196
      9195      9193      9196      9193      9196      9197      9193      9196      9198
      9193      9196      9199      9197      9196      9198      9197      9196      9199
      9198      9196      9199      9196      9199      9200      9196      9199      9201
      9196      9199      9202      9200      9199      9201      9200      9199      9202
      9201      9199      9202      9199      9202      9203      9199      9202      9204
      9199      9202      9205      9203      9202      9204      9203      9202      9205
      9204      9202      9205      9202      9205      9206      9202      9205      9207
      9202      9205      9208      9206      9205      9207      9206      9205      9208
      9207      9205      9208      9205      9208      9209      9205      9208      9210
      9205      9208      9211      9209      9208      9210      9209      9208      9211
      9210      9208      9211      9208      9211      9212      9208      9211      9213
      9208      9211      9214      9212      9211      9213      9212      9211      9214
      9213      9211      9214      9211      9214      9215      9211      9214      9216
      9211      9214      9217      9215      9214      9216      9215      9214      9217
      9216      9214      9217      9214      9217      9218      9214      9217      9219
      9214      9217      9220      9218      9217      9219      9218      9217      9220
      9219      9217      9220      9217      9220      9221      9217      9220      9222
      9217      9220      9223      9221      9220      9222      9221      9220      9223
      9222      9220      9223      9220      9223      9224      9220      9223      9225
      9220      9223      9226      9224      9223      9225      9224      9223      9226
      9225      9223      9226      9223      9226      9227      9223      9226      9228
      9223      9226      9229      9227      9226      9228      9227      9226      9229
      9228      9226      9229      9226      9229      9230      9226      9229      9231
      9226      9229      9232      9230      9229      9231      9230      9229      9232
      9231      9229      9232     14490     14489     14493     14490     14489     14497
     14490     14489     14501     14493     14489     14497     14493     14489     14501
     14497     14489     14501     14489     14490     14491     14489     14490     14492
     14489     14490     14505     14491     14490     14492     14491     14490     14505
     14492     14490     14505     14489     14493     14494     14489     14493     14495
     14489     14493     14496     14494     14493     14495     14494     14493     14496
     14495     14493     14496     14489     14497     14498     14489     14497     14499
     14489     14497     14500     14498     14497     14499     14498     14497     14500
     14499     14497     14500     14489     14501     14502     14489     14501     14503
     14489     14501     14504     14502     14501     14503     14502     14501     14504
     14503     14501     14504     14490     14505     14506     14490     14505     14507
     14490     14505     14511     14506     14505     14507     14506     14505     14511
     14507     14505     14511     14509     14508     14510     14509     14508     14511
     14509     14508     14512     14510     14508     14511     14510     14508     14512
     14511     14508     14512     14505     14511     14508     14508     14512     14513
     14512     14513     14514     14512     14513     14515     14512     14513     14516
     14514     14513     14515     14514     14513     14516     14515     14513     14516
     14513     14516     14517     14513     14516     14518     14513     14516     14524
     14517     14516     14518     14517     14516     14524     14518     14516     14524
     14516     14518     14519     14518     14519     14520     14518     14519     14521
     14520     14519     14521     14519     14521     14522     14519     14521     14523
     14519     14521     14533     14522     14521     14523     14522     14521     14533
     14523     14521     14533     14516     14524     14525     14516     14524     14526
     14516     14524     14527     14525     14524     14526     14525     14524     14527
     14526     14524     14527     14524     14527     14528     14527     14528     14529
     14527     14528     14530     14529     14528     14530     14528     14530     14531
     14528     14530     14532     14528     14530     14580     14531     14530     14532
     14531     14530     14580     14532     14530     14580     14521     14533     14534
     14521     14533     14535     14521     14533     14536     14534     14533     14535
     14534     14533     14536     14535     14533     14536     14533     14536     14537
     14533     14536     14538     14533     14536     14539     14537     14536     14538
     14537     14536     14539     14538     14536     14539     14536     14539     14540
     14536     14539     14541     14536     14539     14542     14540     14539     14541
     14540     14539     14542     14541     14539     14542     14539     14542     14543
     14539     14542     14544     14539     14542     14545     14543     14542     14544
     14543     14542     14545     14544     14542     14545     14542     14545     14546
     14542     14545     14547     14542     14545     14548     14546     14545     14547
     14546     14545     14548     14547     14545     14548     14545     14548     14549
     14545     14548     14550     14545     14548     14551     14549     14548     14550
     14549     14548     14551     14550     14548     14551     14548     14551     14552
     14548     14551     14553     14552     14551     14553     14551     14553     14554
     14551     14553     14555     14554     14553     14555     14553     14555     14556
     14553     14555     14557     14553     14555     14558     14556     14555     14557
     14556     14555     14558     14557     14555     14558     14555     14558     14559
     14555     14558     14560     14555     14558     14561     14559     14558     14560
     14559     14558     14561     14560     14558     14561     14558     14561     14562
     14558     14561     14563     14558     14561     14564     14562     14561     14563
     14562     14561     14564     14563     14561     14564     14561     14564     14565
     14561     14564     14566     14561     14564     14567     14565     14564     14566
     14565     14564     14567     14566     14564     14567     14564     14567     14568
     14564     14567     14569     14564     14567     14570     14568     14567     14569
     14568     14567     14570     14569     14567     14570     14567     14570     14571
     14567     14570     14572     14567     14570     14573     14571     14570     14572
     14571     14570     14573     14572     14570     14573     14570     14573     14574
     14570     14573     14575     14570     14573     14576     14574     14573     14575
     14574     14573     14576     14575     14573     14576     14573     14576     14577
     14573     14576     14578     14573     14576     14579     14577     14576     14578
     14577     14576     14579     14578     14576     14579     14530     14580     14581
     14530     14580     14582     14530     14580     14583     14581     14580     14582
     14581     14580     14583     14582     14580     14583     14580     14583     14584
     14580     14583     14585     14580     14583     14586     14584     14583     14585
     14584     14583     14586     14585     14583     14586     14583     14586     14587
     14583     14586     14588     14583     14586     14589     14587     14586     14588
     14587     14586     14589     14588     14586     14589     14586     14589     14590
     14586     14589     14591     14586     14589     14592     14590     14589     14591
     14590     14589     14592     14591     14589     14592     14589     14592     14593
     14589     14592     14594     14589     14592     14595     14593     14592     14594
     14593     14592     14595     14594     14592     14595     14592     14595     14596
     14592     14595     14597     14592     14595     14598     14596     14595     14597
     14596     14595     14598     14597     14595     14598     14595     14598     14599
     14595     14598     14600     14595     14598     14601     14599     14598     14600
     14599     14598     14601     14600     14598     14601     14598     14601     14602
     14598     14601     14603     14598     14601     14604     14602     14601     14603
     14602     14601     14604     14603     14601     14604     14601     14604     14605
     14601     14604     14606     14601     14604     14607     14605     14604     14606
     14605     14604     14607     14606     14604     14607     14604     14607     14608
     14604     14607     14609     14604     14607     14610     14608     14607     14609
     14608     14607     14610     14609     14607     14610     14607     14610     14611
     14607     14610     14612     14607     14610     14613     14611     14610     14612
     14611     14610     14613     14612     14610     14613     14610     14613     14614
     14610     14613     14615     14610     14613     14616     14614     14613     14615
     14614     14613     14616     14615     14613     14616     14613     14616     14617
     14613     14616     14618     14613     14616     14619     14617     14616     14618
     14617     14616     14619     14618     14616     14619     14616     14619     14620
     14616     14619     14621     14616     14619     14622     14620     14619     14621
     14620     14619     14622     14621     14619     14622     14624     14623     14627
     14624     14623     14631     14624     14623     14635     14627     14623     14631
     14627     14623     14635     14631     14623     14635     14623     14624     14625
     14623     14624     14626     14623     14624     14639     14625     14624     14626
     14625     14624     14639     14626     14624     14639     14623     14627     14628
     14623     14627     14629     14623     14627     14630     14628     14627     14629
     14628     14627     14630     14629     14627     14630     14623     14631     14632
     14623     14631     14633     14623     14631     14634     14632     14631     14633
     14632     14631     14634     14633     14631     14634     14623     14635     14636
     14623     14635     14637     14623     14635     14638     14636     14635     14637
     14636     14635     14638     14637     14635     14638     14624     14639     14640
     14624     14639     14641     14624     14639     14645     14640     14639     14641
     14640     14639     14645     14641     14639     14645     14643     14642     14644
     14643     14642     14645     14643     14642     14646     14644     14642     14645
     14644     14642     14646     14645     14642     14646     14639     14645     14642
     14642     14646     14647     14646     14647     14648     14646     14647     14649
     14646     14647     14650     14648     14647     14649     14648     14647     14650
     14649     14647     14650     14647     14650     14651     14647     14650     14652
     14647     14650     14658     14651     14650     14652     14651     14650     14658
     14652     14650     14658     14650     14652     14653     14652     14653     14654
     14652     14653     14655     14654     14653     14655     14653     14655     14656
     14653     14655     14657     14653     14655     14667     14656     14655     14657
     14656     14655     14667     14657     14655     14667     14650     14658     14659
     14650     14658     14660     14650     14658     14661     14659     14658     14660
     14659     14658     14661     14660     14658     14661     14658     14661     14662
     14661     14662     14663     14661     14662     14664     14663     14662     14664
     14662     14664     14665     14662     14664     14666     14662     14664     14714
     14665     14664     14666     14665     14664     14714     14666     14664     14714
     14655     14667     14668     14655     14667     14669     14655     14667     14670
     14668     14667     14669     14668     14667     14670     14669     14667     14670
     14667     14670     14671     14667     14670     14672     14667     14670     14673
     14671     14670     14672     14671     14670     14673     14672     14670     14673
     14670     14673     14674     14670     14673     14675     14670     14673     14676
     14674     14673     14675     14674     14673     14676     14675     14673     14676
     14673     14676     14677     14673     14676     14678     14673     14676     14679
     14677     14676     14678     14677     14676     14679     14678     14676     14679
     14676     14679     14680     14676     14679     14681     14676     14679     14682
     14680     14679     14681     14680     14679     14682     14681     14679     14682
     14679     14682     14683     14679     14682     14684     14679     14682     14685
     14683     14682     14684     14683     14682     14685     14684     14682     14685
     14682     14685     14686     14682     14685     14687     14686     14685     14687
     14685     14687     14688     14685     14687     14689     14688     14687     14689
     14687     14689     14690     14687     14689     14691     14687     14689     14692
     14690     14689     14691     14690     14689     14692     14691     14689     14692
     14689     14692     14693     14689     14692     14694     14689     14692     14695
     14693     14692     14694     14693     14692     14695     14694     14692     14695
     14692     14695     14696     14692     14695     14697     14692     14695     14698
     14696     14695     14697     14696     14695     14698     14697     14695     14698
     14695     14698     14699     14695     14698     14700     14695     14698     14701
     14699     14698     14700     14699     14698     14701     14700     14698     14701
     14698     14701     14702     14698     14701     14703     14698     14701     14704
     14702     14701     14703     14702     14701     14704     14703     14701     14704
     14701     14704     14705     14701     14704     14706     14701     14704     14707
     14705     14704     14706     14705     14704     14707     14706     14704     14707
     14704     14707     14708     14704     14707     14709     14704     14707     14710
     14708     14707     14709     14708     14707     14710     14709     14707     14710
     14707     14710     14711     14707     14710     14712     14707     14710     14713
     14711     14710     14712     14711     14710     14713     14712     14710     14713
     14664     14714     14715     14664     14714     14716     14664     14714     14717
     14715     14714     14716     14715     14714     14717     14716     14714     14717
     14714     14717     14718     14714     14717     14719     14714     14717     14720
     14718     14717     14719     14718     14717     14720     14719     14717     14720
     14717     14720     14721     14717     14720     14722     14717     14720     14723
     14721     14720     14722     14721     14720     14723     14722     14720     14723
     14720     14723     14724     14720     14723     14725     14720     14723     14726
     14724     14723     14725     14724     14723     14726     14725     14723     14726
     14723     14726     14727     14723     14726     14728     14723     14726     14729
     14727     14726     14728     14727     14726     14729     14728     14726     14729
     14726     14729     14730     14726     14729     14731     14726     14729     14732
     14730     14729     14731     14730     14729     14732     14731     14729     14732
     14729     14732     14733     14729     14732     14734     14729     14732     14735
     14733     14732     14734     14733     14732     14735     14734     14732     14735
     14732     14735     14736     14732     14735     14737     14732     14735     14738
     14736     14735     14737     14736     14735     14738     14737     14735     14738
     14735     14738     14739     14735     14738     14740     14735     14738     14741
     14739     14738     14740     14739     14738     14741     14740     14738     14741
     14738     14741     14742     14738     14741     14743     14738     14741     14744
     14742     14741     14743     14742     14741     14744     14743     14741     14744
     14741     14744     14745     14741     14744     14746     14741     14744     14747
     14745     14744     14746     14745     14744     14747     14746     14744     14747
     14744     14747     14748     14744     14747     14749     14744     14747     14750
     14748     14747     14749     14748     14747     14750     14749     14747     14750
     14747     14750     14751     14747     14750     14752     14747     14750     14753
     14751     14750     14752     14751     14750     14753     14752     14750     14753
     14750     14753     14754     14750     14753     14755     14750     14753     14756
     14754     14753     14755     14754     14753     14756     14755     14753     14756
      2972      2971      2973      2972      2971      2974      2972      2971      2975
      2973      2971      2974      2973      2971      2975      2974      2971      2975
      2971      2975      2976      2971      2975      2977      2971      2975      2978
      2976      2975      2977      2976      2975      2978      2977      2975      2978
      2975      2978      2979      2975      2978      2980      2975      2978      2985
      2979      2978      2980      2979      2978      2985      2980      2978      2985
      2982      2981      2983      2982      2981      2984      2982      2981      2985
      2983      2981      2984      2983      2981      2985      2984      2981      2985
      2981      2984      2986      2978      2985      2981      2984      2986      2987
      2984      2986      2988      2984      2986      2989      2987      2986      2988
      2987      2986      2989      2988      2986      2989      2986      2989      2990
      2986      2989      2991      2986      2989      2997      2990      2989      2991
      2990      2989      2997      2991      2989      2997      2989      2991      2992
      2991      2992      2993      2991      2992      2994      2993      2992      2994
      2992      2994      2995      2992      2994      2996      2992      2994      3006
      2995      2994      2996      2995      2994      3006      2996      2994      3006
      2989      2997      2998      2989      2997      2999      2989      2997      3000
      2998      2997      2999      2998      2997      3000      2999      2997      3000
      2997      3000      3001      3000      3001      3002      3000      3001      3003
      3002      3001      3003      3001      3003      3004      3001      3003      3005
      3001      3003      3053      3004      3003      3005      3004      3003      3053
      3005      3003      3053      2994      3006      3007      2994      3006      3008
      2994      3006      3009      3007      3006      3008      3007      3006      3009
      3008      3006      3009      3006      3009      3010      3006      3009      3011
      3006      3009      3012      3010      3009      3011      3010      3009      3012
      3011      3009      3012      3009      3012      3013      3009      3012      3014
      3009      3012      3015      3013      3012      3014      3013      3012      3015
      3014      3012      3015      3012      3015      3016      3012      3015      3017
      3012      3015      3018      3016      3015      3017      3016      3015      3018
      3017      3015      3018      3015      3018      3019      3015      3018      3020
      3015      3018      3021      3019      3018      3020      3019      3018      3021
      3020      3018      3021      3018      3021      3022      3018      3021      3023
      3018      3021      3024      3022      3021      3023      3022      3021      3024
      3023      3021      3024      3021      3024      3025      3021      3024      3026
      3025      3024      3026      3024      3026      3027      3024      3026      3028
      3027      3026      3028      3026      3028      3029      3026      3028      3030
      3026      3028      3031      3029      3028      3030      3029      3028      3031
      3030      3028      3031      3028      3031      3032      3028      3031      3033
      3028      3031      3034      3032      3031      3033      3032      3031      3034
      3033      3031      3034      3031      3034      3035      3031      3034      3036
      3031      3034      3037      3035      3034      3036      3035      3034      3037
      3036      3034      3037      3034      3037      3038      3034      3037      3039
      3034      3037      3040      3038      3037      3039      3038      3037      3040
      3039      3037      3040      3037      3040      3041      3037      3040      3042
      3037      3040      3043      3041      3040      3042      3041      3040      3043
      3042      3040      3043      3040      3043      3044      3040      3043      3045
      3040      3043      3046      3044      3043      3045      3044      3043      3046
      3045      3043      3046      3043      3046      3047      3043      3046      3048
      3043      3046      3049      3047      3046      3048      3047      3046      3049
      3048      3046      3049      3046      3049      3050      3046      3049      3051
      3046      3049      3052      3050      3049      3051      3050      3049      3052
      3051      3049      3052      3003      3053      3054      3003      3053      3055
      3003      3053      3056      3054      3053      3055      3054      3053      3056
      3055      3053      3056      3053      3056      3057      3053      3056      3058
      3053      3056      3059      3057      3056      3058      3057      3056      3059
      3058      3056      3059      3056      3059      3060      3056      3059      3061
      3056      3059      3062      3060      3059      3061      3060      3059      3062
      3061      3059      3062      3059      3062      3063      3059      3062      3064
      3059      3062      3065      3063      3062      3064      3063      3062      3065
      3064      3062      3065      3062      3065      3066      3062      3065      3067
      3062      3065      3068      3066      3065      3067      3066      3065      3068
      3067      3065      3068      3065      3068      3069      3065      3068      3070
      3065      3068      3071      3069      3068      3070      3069      3068      3071
      3070      3068      3071      3068      3071      3072      3068      3071      3073
      3068      3071      3074      3072      3071      3073      3072      3071      3074
      3073      3071      3074      3071      3074      3075      3071      3074      3076
      3071      3074      3077      3075      3074      3076      3075      3074      3077
      3076      3074      3077      3074      3077      3078      3074      3077      3079
      3074      3077      3080      3078      3077      3079      3078      3077      3080
      3079      3077      3080      3077      3080      3081      3077      3080      3082
      3077      3080      3083      3081      3080      3082      3081      3080      3083
      3082      3080      3083      3080      3083      3084      3080      3083      3085
      3080      3083      3086      3084      3083      3085      3084      3083      3086
      3085      3083      3086      3083      3086      3087      3083      3086      3088
      3083      3086      3089      3087      3086      3088      3087      3086      3089
      3088      3086      3089      3086      3089      3090      3086      3089      3091
      3086      3089      3092      3090      3089      3091      3090      3089      3092
      3091      3089      3092      3089      3092      3093      3089      3092      3094
      3089      3092      3095      3093      3092      3094      3093      3092      3095
      3094      3092      3095       446       445       447       446       445       449
       446       445       491       447       445       449       447       445       491
       449       445       491       445       447       448       445       449       450
       445       449       451       445       449       452       450       449       451
       450       449       452       451       449       452       449       452       453
       449       452       483       453       452       483       452       453       454
       452       453       455       454       453       455       453       455       456
       453       455       457       453       455       458       456       455       457
       456       455       458       457       455       458       455       458       459
       455       458       460       455       458       481       459       458       460
       459       458       481       460       458       481       458       460       461
       458       460       462       458       460       470       461       460       462
       461       460       470       462       460       470       460       462       463
       460       462       464       460       462       465       463       462       464
       463       462       465       464       462       465       462       465       466
       462       465       467       462       465       468       466       465       467
       466       465       468       467       465       468       465       468       469
       465       468       470       465       468       494       469       468       470
       469       468       494       470       468       494       460       470       468
       460       470       471       460       470       475       468       470       471
       468       470       475       471       470       475       470       471       472
       470       471       473       470       471       474       472       471       473
       472       471       474       473       471       474       470       475       476
       470       475       477       470       475       478       476       475       477
       476       475       478       477       475       478       475       478       479
       475       478       480       475       478       481       479       478       480
       479       478       481       480       478       481       458       481       478
       458       481       482       458       481       483       478       481       482
       478       481       483       482       481       483       452       483       481
       452       483       484       452       483       488       481       483       484
       481       483       488       484       483       488       483       484       485
       483       484       486       483       484       487       485       484       486
       485       484       487       486       484       487       483       488       489
       483       488       490       483       488       491       489       488       490
       489       488       491       490       488       491       445       491       488
       445       491       492       445       491       493       488       491       492
       488       491       493       492       491       493       468       494       495
       468       494       496       468       494       500       495       494       496
       495       494       500       496       494       500       494       496       497
       494       496       498       494       496       499       497       496       498
       497       496       499       498       496       499       494       500       501
       494       500       502       494       500       503       501       500       502
       501       500       503       502       500       503       500       503       504
       500       503       505       500       503       506       504       503       505
       504       503       506       505       503       506       503       506       507
       503       506       508       503       506       509       507       506       508
       507       506       509       508       506       509       506       509       510
       506       509       511       506       509       515       510       509       511
       510       509       515       511       509       515       509       511       512
       509       511       513       509       511       514       512       511       513
       512       511       514       513       511       514       509       515       516
       509       515       517       509       515       518       516       515       517
       516       515       518       517       515       518      3097      3096      3098
      3097      3096      3099      3097      3096      3100      3098      3096      3099
      3098      3096      3100      3099      3096      3100      3096      3100      3101
      3096      3100      3102      3096      3100      3103      3101      3100      3102
      3101      3100      3103      3102      3100      3103      3100      3103      3104
      3100      3103      3105      3100      3103      3110      3104      3103      3105
      3104      3103      3110      3105      3103      3110      3107      3106      3108
      3107      3106      3109      3107      3106      3110      3108      3106      3109
      3108      3106      3110      3109      3106      3110      3106      3109      3111
      3103      3110      3106      3109      3111      3112      3109      3111      3113
      3109      3111      3114      3112      3111      3113      3112      3111      3114
      3113      3111      3114      3111      3114      3115      3111      3114      3116
      3111      3114      3122      3115      3114      3116      3115      3114      3122
      3116      3114      3122      3114      3116      3117      3116      3117      3118
      3116      3117      3119      3118      3117      3119      3117      3119      3120
      3117      3119      3121      3117      3119      3131      3120      3119      3121
      3120      3119      3131      3121      3119      3131      3114      3122      3123
      3114      3122      3124      3114      3122      3125      3123      3122      3124
      3123      3122      3125      3124      3122      3125      3122      3125      3126
      3125      3126      3127      3125      3126      3128      3127      3126      3128
      3126      3128      3129      3126      3128      3130      3126      3128      3178
      3129      3128      3130      3129      3128      3178      3130      3128      3178
      3119      3131      3132      3119      3131      3133      3119      3131      3134
      3132      3131      3133      3132      3131      3134      3133      3131      3134
      3131      3134      3135      3131      3134      3136      3131      3134      3137
      3135      3134      3136      3135      3134      3137      3136      3134      3137
      3134      3137      3138      3134      3137      3139      3134      3137      3140
      3138      3137      3139      3138      3137      3140      3139      3137      3140
      3137      3140      3141      3137      3140      3142      3137      3140      3143
      3141      3140      3142      3141      3140      3143      3142      3140      3143
      3140      3143      3144      3140      3143      3145      3140      3143      3146
      3144      3143      3145      3144      3143      3146      3145      3143      3146
      3143      3146      3147      3143      3146      3148      3143      3146      3149
      3147      3146      3148      3147      3146      3149      3148      3146      3149
      3146      3149      3150      3146      3149      3151      3150      3149      3151
      3149      3151      3152      3149      3151      3153      3152      3151      3153
      3151      3153      3154      3151      3153      3155      3151      3153      3156
      3154      3153      3155      3154      3153      3156      3155      3153      3156
      3153      3156      3157      3153      3156      3158      3153      3156      3159
      3157      3156      3158      3157      3156      3159      3158      3156      3159
      3156      3159      3160      3156      3159      3161      3156      3159      3162
      3160      3159      3161      3160      3159      3162      3161      3159      3162
      3159      3162      3163      3159      3162      3164      3159      3162      3165
      3163      3162      3164      3163      3162      3165      3164      3162      3165
      3162      3165      3166      3162      3165      3167      3162      3165      3168
      3166      3165      3167      3166      3165      3168      3167      3165      3168
      3165      3168      3169      3165      3168      3170      3165      3168      3171
      3169      3168      3170      3169      3168      3171      3170      3168      3171
      3168      3171      3172      3168      3171      3173      3168      3171      3174
      3172      3171      3173      3172      3171      3174      3173      3171      3174
      3171      3174      3175      3171      3174      3176      3171      3174      3177
      3175      3174      3176      3175      3174      3177      3176      3174      3177
      3128      3178      3179      3128      3178      3180      3128      3178      3181
      3179      3178      3180      3179      3178      3181      3180      3178      3181
      3178      3181      3182      3178      3181      3183      3178      3181      3184
      3182      3181      3183      3182      3181      3184      3183      3181      3184
      3181      3184      3185      3181      3184      3186      3181      3184      3187
      3185      3184      3186      3185      3184      3187      3186      3184      3187
      3184      3187      3188      3184      3187      3189      3184      3187      3190
      3188      3187      3189      3188      3187      3190      3189      3187      3190
      3187      3190      3191      3187      3190      3192      3187      3190      3193
      3191      3190      3192      3191      3190      3193      3192      3190      3193
      3190      3193      3194      3190      3193      3195      3190      3193      3196
      3194      3193      3195      3194      3193      3196      3195      3193      3196
      3193      3196      3197      3193      3196      3198      3193      3196      3199
      3197      3196      3198      3197      3196      3199      3198      3196      3199
      3196      3199      3200      3196      3199      3201      3196      3199      3202
      3200      3199      3201      3200      3199      3202      3201      3199      3202
      3199      3202      3203      3199      3202      3204      3199      3202      3205
      3203      3202      3204      3203      3202      3205      3204      3202      3205
      3202      3205      3206      3202      3205      3207      3202      3205      3208
      3206      3205      3207      3206      3205      3208      3207      3205      3208
      3205      3208      3209      3205      3208      3210      3205      3208      3211
      3209      3208      3210      3209      3208      3211      3210      3208      3211
      3208      3211      3212      3208      3211      3213      3208      3211      3214
      3212      3211      3213      3212      3211      3214      3213      3211      3214
      3211      3214      3215      3211      3214      3216      3211      3214      3217
      3215      3214      3216      3215      3214      3217      3216      3214      3217
      3214      3217      3218      3214      3217      3219      3214      3217      3220
      3218      3217      3219      3218      3217      3220      3219      3217      3220
      9234      9233      9235      9234      9233      9236      9234      9233      9237
      9235      9233      9236      9235      9233      9237      9236      9233      9237
      9233      9237      9238      9233      9237      9239      9233      9237      9242
      9238      9237      9239      9238      9237      9242      9239      9237      9242
      9237      9239      9240      9237      9239      9241      9240      9239      9241
      9237      9242      9243      9237      9242      9244      9237      9242      9248
      9243      9242      9244      9243      9242      9248      9244      9242      9248
      9246      9245      9247      9246      9245      9248      9246      9245      9249
      9247      9245      9248      9247      9245      9249      9248      9245      9249
      9242      9248      9245      9245      9249      9250      9249      9250      9251
      9249      9250      9252      9249      9250      9253      9251      9250      9252
      9251      9250      9253      9252      9250      9253      9250      9253      9254
      9250      9253      9255      9250      9253      9261      9254      9253      9255
      9254      9253      9261      9255      9253      9261      9253      9255      9256
      9255      9256      9257      9255      9256      9258      9257      9256      9258
      9256      9258      9259      9256      9258      9260      9256      9258      9270
      9259      9258      9260      9259      9258      9270      9260      9258      9270
      9253      9261      9262      9253      9261      9263      9253      9261      9264
      9262      9261      9263      9262      9261      9264      9263      9261      9264
      9261      9264      9265      9264      9265      9266      9264      9265      9267
      9266      9265      9267      9265      9267      9268      9265      9267      9269
      9265      9267      9317      9268      9267      9269      9268      9267      9317
      9269      9267      9317      9258      9270      9271      9258      9270      9272
      9258      9270      9273      9271      9270      9272      9271      9270      9273
      9272      9270      9273      9270      9273      9274      9270      9273      9275
      9270      9273      9276      9274      9273      9275      9274      9273      9276
      9275      9273      9276      9273      9276      9277      9273      9276      9278
      9273      9276      9279      9277      9276      9278      9277      9276      9279
      9278      9276      9279      9276      9279      9280      9276      9279      9281
      9276      9279      9282      9280      9279      9281      9280      9279      9282
      9281      9279      9282      9279      9282      9283      9279      9282      9284
      9279      9282      9285      9283      9282      9284      9283      9282      9285
      9284      9282      9285      9282      9285      9286      9282      9285      9287
      9282      9285      9288      9286      9285      9287      9286      9285      9288
      9287      9285      9288      9285      9288      9289      9285      9288      9290
      9289      9288      9290      9288      9290      9291      9288      9290      9292
      9291      9290      9292      9290      9292      9293      9290      9292      9294
      9290      9292      9295      9293      9292      9294      9293      9292      9295
      9294      9292      9295      9292      9295      9296      9292      9295      9297
      9292      9295      9298      9296      9295      9297      9296      9295      9298
      9297      9295      9298      9295      9298      9299      9295      9298      9300
      9295      9298      9301      9299      9298      9300      9299      9298      9301
      9300      9298      9301      9298      9301      9302      9298      9301      9303
      9298      9301      9304      9302      9301      9303      9302      9301      9304
      9303      9301      9304      9301      9304      9305      9301      9304      9306
      9301      9304      9307      9305      9304      9306      9305      9304      9307
      9306      9304      9307      9304      9307      9308      9304      9307      9309
      9304      9307      9310      9308      9307      9309      9308      9307      9310
      9309      9307      9310      9307      9310      9311      9307      9310      9312
      9307      9310      9313      9311      9310      9312      9311      9310      9313
      9312      9310      9313      9310      9313      9314      9310      9313      9315
      9310      9313      9316      9314      9313      9315      9314      9313      9316
      9315      9313      9316      9267      9317      9318      9267      9317      9319
      9267      9317      9320      9318      9317      9319      9318      9317      9320
      9319      9317      9320      9317      9320      9321      9317      9320      9322
      9317      9320      9323      9321      9320      9322      9321      9320      9323
      9322      9320      9323      9320      9323      9324      9320      9323      9325
      9320      9323      9326      9324      9323      9325      9324      9323      9326
      9325      9323      9326      9323      9326      9327      9323      9326      9328
      9323      9326      9329      9327      9326      9328      9327      9326      9329
      9328      9326      9329      9326      9329      9330      9326      9329      9331
      9326      9329      9332      9330      9329      9331      9330      9329      9332
      9331      9329      9332      9329      9332      9333      9329      9332      9334
      9329      9332      9335      9333      9332      9334      9333      9332      9335
      9334      9332      9335      9332      9335      9336      9332      9335      9337
      9332      9335      9338      9336      9335      9337      9336      9335      9338
      9337      9335      9338      9335      9338      9339      9335      9338      9340
      9335      9338      9341      9339      9338      9340      9339      9338      9341
      9340      9338      9341      9338      9341      9342      9338      9341      9343
      9338      9341      9344      9342      9341      9343      9342      9341      9344
      9343      9341      9344      9341      9344      9345      9341      9344      9346
      9341      9344      9347      9345      9344      9346      9345      9344      9347
      9346      9344      9347      9344      9347      9348      9344      9347      9349
      9344      9347      9350      9348      9347      9349      9348      9347      9350
      9349      9347      9350      9347      9350      9351      9347      9350      9352
      9347      9350      9353      9351      9350      9352      9351      9350      9353
      9352      9350      9353      9350      9353      9354      9350      9353      9355
      9350      9353      9356      9354      9353      9355      9354      9353      9356
      9355      9353      9356      9353      9356      9357      9353      9356      9358
      9353      9356      9359      9357      9356      9358      9357      9356      9359
      9358      9356      9359      3222      3221      3223      3222      3221      3224
      3222      3221      3225      3223      3221      3224      3223      3221      3225
      3224      3221      3225      3221      3225      3226      3221      3225      3227
      3221      3225      3228      3226      3225      3227      3226      3225      3228
      3227      3225      3228      3225      3228      3229      3225      3228      3230
      3225      3228      3235      3229      3228      3230      3229      3228      3235
      3230      3228      3235      3232      3231      3233      3232      3231      3234
      3232      3231      3235      3233      3231      3234      3233      3231      3235
      3234      3231      3235      3231      3234      3236      3228      3235      3231
      3234      3236      3237      3234      3236      3238      3234      3236      3239
      3237      3236      3238      3237      3236      3239      3238      3236      3239
      3236      3239      3240      3236      3239      3241      3236      3239      3247
      3240      3239      3241      3240      3239      3247      3241      3239      3247
      3239      3241      3242      3241      3242      3243      3241      3242      3244
      3243      3242      3244      3242      3244      3245      3242      3244      3246
      3242      3244      3256      3245      3244      3246      3245      3244      3256
      3246      3244      3256      3239      3247      3248      3239      3247      3249
      3239      3247      3250      3248      3247      3249      3248      3247      3250
      3249      3247      3250      3247      3250      3251      3250      3251      3252
      3250      3251      3253      3252      3251      3253      3251      3253      3254
      3251      3253      3255      3251      3253      3303      3254      3253      3255
      3254      3253      3303      3255      3253      3303      3244      3256      3257
      3244      3256      3258      3244      3256      3259      3257      3256      3258
      3257      3256      3259      3258      3256      3259      3256      3259      3260
      3256      3259      3261      3256      3259      3262      3260      3259      3261
      3260      3259      3262      3261      3259      3262      3259      3262      3263
      3259      3262      3264      3259      3262      3265      3263      3262      3264
      3263      3262      3265      3264      3262      3265      3262      3265      3266
      3262      3265      3267      3262      3265      3268      3266      3265      3267
      3266      3265      3268      3267      3265      3268      3265      3268      3269
      3265      3268      3270      3265      3268      3271      3269      3268      3270
      3269      3268      3271      3270      3268      3271      3268      3271      3272
      3268      3271      3273      3268      3271      3274      3272      3271      3273
      3272      3271      3274      3273      3271      3274      3271      3274      3275
      3271      3274      3276      3275      3274      3276      3274      3276      3277
      3274      3276      3278      3277      3276      3278      3276      3278      3279
      3276      3278      3280      3276      3278      3281      3279      3278      3280
      3279      3278      3281      3280      3278      3281      3278      3281      3282
      3278      3281      3283      3278      3281      3284      3282      3281      3283
      3282      3281      3284      3283      3281      3284      3281      3284      3285
      3281      3284      3286      3281      3284      3287      3285      3284      3286
      3285      3284      3287      3286      3284      3287      3284      3287      3288
      3284      3287      3289      3284      3287      3290      3288      3287      3289
      3288      3287      3290      3289      3287      3290      3287      3290      3291
      3287      3290      3292      3287      3290      3293      3291      3290      3292
      3291      3290      3293      3292      3290      3293      3290      3293      3294
      3290      3293      3295      3290      3293      3296      3294      3293      3295
      3294      3293      3296      3295      3293      3296      3293      3296      3297
      3293      3296      3298      3293      3296      3299      3297      3296      3298
      3297      3296      3299      3298      3296      3299      3296      3299      3300
      3296      3299      3301      3296      3299      3302      3300      3299      3301
      3300      3299      3302      3301      3299      3302      3253      3303      3304
      3253      3303      3305      3253      3303      3306      3304      3303      3305
      3304      3303      3306      3305      3303      3306      3303      3306      3307
      3303      3306      3308      3303      3306      3309      3307      3306      3308
      3307      3306      3309      3308      3306      3309      3306      3309      3310
      3306      3309      3311      3306      3309      3312      3310      3309      3311
      3310      3309      3312      3311      3309      3312      3309      3312      3313
      3309      3312      3314      3309      3312      3315      3313      3312      3314
      3313      3312      3315      3314      3312      3315      3312      3315      3316
      3312      3315      3317      3312      3315      3318      3316      3315      3317
      3316      3315      3318      3317      3315      3318      3315      3318      3319
      3315      3318      3320      3315      3318      3321      3319      3318      3320
      3319      3318      3321      3320      3318      3321      3318      3321      3322
      3318      3321      3323      3318      3321      3324      3322      3321      3323
      3322      3321      3324      3323      3321      3324      3321      3324      3325
      3321      3324      3326      3321      3324      3327      3325      3324      3326
      3325      3324      3327      3326      3324      3327      3324      3327      3328
      3324      3327      3329      3324      3327      3330      3328      3327      3329
      3328      3327      3330      3329      3327      3330      3327      3330      3331
      3327      3330      3332      3327      3330      3333      3331      3330      3332
      3331      3330      3333      3332      3330      3333      3330      3333      3334
      3330      3333      3335      3330      3333      3336      3334      3333      3335
      3334      3333      3336      3335      3333      3336      3333      3336      3337
      3333      3336      3338      3333      3336      3339      3337      3336      3338
      3337      3336      3339      3338      3336      3339      3336      3339      3340
      3336      3339      3341      3336      3339      3342      3340      3339      3341
      3340      3339      3342      3341      3339      3342      3339      3342      3343
      3339      3342      3344      3339      3342      3345      3343      3342      3344
      3343      3342      3345      3344      3342      3345       520       519       521
       520       519       523       520       519       565       521       519       523
       521       519       565       523       519       565       519       521       522
       519       523       524       519       523       525       519       523       526
       524       523       525       524       523       526       525       523       526
       523       526       527       523       526       557       527       526       557
       526       527       528       526       527       529       528       527       529
       527       529       530       527       529       531       527       529       532
       530       529       531       530       529       532       531       529       532
       529       532       533       529       532       534       529       532       555
       533       532       534       533       532       555       534       532       555
       532       534       535       532       534       536       532       534       544
       535       534       536       535       534       544       536       534       544
       534       536       537       534       536       538       534       536       539
       537       536       538       537       536       539       538       536       539
       536       539       540       536       539       541       536       539       542
       540       539       541       540       539       542       541       539       542
       539       542       543       539       542       544       539       542       568
       543       542       544       543       542       568       544       542       568
       534       544       542       534       544       545       534       544       549
       542       544       545       542       544       549       545       544       549
       544       545       546       544       545       547       544       545       548
       546       545       547       546       545       548       547       545       548
       544       549       550       544       549       551       544       549       552
       550       549       551       550       549       552       551       549       552
       549       552       553       549       552       554       549       552       555
       553       552       554       553       552       555       554       552       555
       532       555       552       532       555       556       532       555       557
       552       555       556       552       555       557       556       555       557
       526       557       555       526       557       558       526       557       562
       555       557       558       555       557       562       558       557       562
       557       558       559       557       558       560       557       558       561
       559       558       560       559       558       561       560       558       561
       557       562       563       557       562       564       557       562       565
       563       562       564       563       562       565       564       562       565
       519       565       562       519       565       566       519       565       567
       562       565       566       562       565       567       566       565       567
       542       568       569       542       568       570       542       568       574
       569       568       570       569       568       574       570       568       574
       568       570       571       568       570       572       568       570       573
       571       570       572       571       570       573       572       570       573
       568       574       575       568       574       576       568       574       577
       575       574       576       575       574       577       576       574       577
       574       577       578       574       577       579       574       577       580
       578       577       579       578       577       580       579       577       580
       577       580       581       577       580       582       577       580       583
       581       580       582       581       580       583       582       580       583
       580       583       584       580       583       585       580       583       589
       584       583       585       584       583       589       585       583       589
       583       585       586       583       585       587       583       585       588
       586       585       587       586       585       588       587       585       588
       583       589       590       583       589       591       583       589       592
       590       589       591       590       589       592       591       589       592
      3347      3346      3348      3347      3346      3349      3347      3346      3350
      3348      3346      3349      3348      3346      3350      3349      3346      3350
      3346      3350      3351      3346      3350      3352      3346      3350      3353
      3351      3350      3352      3351      3350      3353      3352      3350      3353
      3350      3353      3354      3350      3353      3355      3350      3353      3360
      3354      3353      3355      3354      3353      3360      3355      3353      3360
      3357      3356      3358      3357      3356      3359      3357      3356      3360
      3358      3356      3359      3358      3356      3360      3359      3356      3360
      3356      3359      3361      3353      3360      3356      3359      3361      3362
      3359      3361      3363      3359      3361      3364      3362      3361      3363
      3362      3361      3364      3363      3361      3364      3361      3364      3365
      3361      3364      3366      3361      3364      3372      3365      3364      3366
      3365      3364      3372      3366      3364      3372      3364      3366      3367
      3366      3367      3368      3366      3367      3369      3368      3367      3369
      3367      3369      3370      3367      3369      3371      3367      3369      3381
      3370      3369      3371      3370      3369      3381      3371      3369      3381
      3364      3372      3373      3364      3372      3374      3364      3372      3375
      3373      3372      3374      3373      3372      3375      3374      3372      3375
      3372      3375      3376      3375      3376      3377      3375      3376      3378
      3377      3376      3378      3376      3378      3379      3376      3378      3380
      3376      3378      3428      3379      3378      3380      3379      3378      3428
      3380      3378      3428      3369      3381      3382      3369      3381      3383
      3369      3381      3384      3382      3381      3383      3382      3381      3384
      3383      3381      3384      3381      3384      3385      3381      3384      3386
      3381      3384      3387      3385      3384      3386      3385      3384      3387
      3386      3384      3387      3384      3387      3388      3384      3387      3389
      3384      3387      3390      3388      3387      3389      3388      3387      3390
      3389      3387      3390      3387      3390      3391      3387      3390      3392
      3387      3390      3393      3391      3390      3392      3391      3390      3393
      3392      3390      3393      3390      3393      3394      3390      3393      3395
      3390      3393      3396      3394      3393      3395      3394      3393      3396
      3395      3393      3396      3393      3396      3397      3393      3396      3398
      3393      3396      3399      3397      3396      3398      3397      3396      3399
      3398      3396      3399      3396      3399      3400      3396      3399      3401
      3400      3399      3401      3399      3401      3402      3399      3401      3403
      3402      3401      3403      3401      3403      3404      3401      3403      3405
      3401      3403      3406      3404      3403      3405      3404      3403      3406
      3405      3403      3406      3403      3406      3407      3403      3406      3408
      3403      3406      3409      3407      3406      3408      3407      3406      3409
      3408      3406      3409      3406      3409      3410      3406      3409      3411
      3406      3409      3412      3410      3409      3411      3410      3409      3412
      3411      3409      3412      3409      3412      3413      3409      3412      3414
      3409      3412      3415      3413      3412      3414      3413      3412      3415
      3414      3412      3415      3412      3415      3416      3412      3415      3417
      3412      3415      3418      3416      3415      3417      3416      3415      3418
      3417      3415      3418      3415      3418      3419      3415      3418      3420
      3415      3418      3421      3419      3418      3420      3419      3418      3421
      3420      3418      3421      3418      3421      3422      3418      3421      3423
      3418      3421      3424      3422      3421      3423      3422      3421      3424
      3423      3421      3424      3421      3424      3425      3421      3424      3426
      3421      3424      3427      3425      3424      3426      3425      3424      3427
      3426      3424      3427      3378      3428      3429      3378      3428      3430
      3378      3428      3431      3429      3428      3430      3429      3428      3431
      3430      3428      3431      3428      3431      3432      3428      3431      3433
      3428      3431      3434      3432      3431      3433      3432      3431      3434
      3433      3431      3434      3431      3434      3435      3431      3434      3436
      3431      3434      3437      3435      3434      3436      3435      3434      3437
      3436      3434      3437      3434      3437      3438      3434      3437      3439
      3434      3437      3440      3438      3437      3439      3438      3437      3440
      3439      3437      3440      3437      3440      3441      3437      3440      3442
      3437      3440      3443      3441      3440      3442      3441      3440      3443
      3442      3440      3443      3440      3443      3444      3440      3443      3445
      3440      3443      3446      3444      3443      3445      3444      3443      3446
      3445      3443      3446      3443      3446      3447      3443      3446      3448
      3443      3446      3449      3447      3446      3448      3447      3446      3449
      3448      3446      3449      3446      3449      3450      3446      3449      3451
      3446      3449      3452      3450      3449      3451      3450      3449      3452
      3451      3449      3452      3449      3452      3453      3449      3452      3454
      3449      3452      3455      3453      3452      3454      3453      3452      3455
      3454      3452      3455      3452      3455      3456      3452      3455      3457
      3452      3455      3458      3456      3455      3457      3456      3455      3458
      3457      3455      3458      3455      3458      3459      3455      3458      3460
      3455      3458      3461      3459      3458      3460      3459      3458      3461
      3460      3458      3461      3458      3461      3462      3458      3461      3463
      3458      3461      3464      3462      3461      3463      3462      3461      3464
      3463      3461      3464      3461      3464      3465      3461      3464      3466
      3461      3464      3467      3465      3464      3466      3465      3464      3467
      3466      3464      3467      3464      3467      3468      3464      3467      3469
      3464      3467      3470      3468      3467      3469      3468      3467      3470
      3469      3467      3470     14758     14757     14761     14758     14757     14765
     14758     14757     14769     14761     14757     14765     14761     14757     14769
     14765     14757     14769     14757     14758     14759     14757     14758     14760
     14757     14758     14773     14759     14758     14760     14759     14758     14773
     14760     14758     14773     14757     14761     14762     14757     14761     14763
     14757     14761     14764     14762     14761     14763     14762     14761     14764
     14763     14761     14764     14757     14765     14766     14757     14765     14767
     14757     14765     14768     14766     14765     14767     14766     14765     14768
     14767     14765     14768     14757     14769     14770     14757     14769     14771
     14757     14769     14772     14770     14769     14771     14770     14769     14772
     14771     14769     14772     14758     14773     14774     14758     14773     14775
     14758     14773     14779     14774     14773     14775     14774     14773     14779
     14775     14773     14779     14777     14776     14778     14777     14776     14779
     14777     14776     14780     14778     14776     14779     14778     14776     14780
     14779     14776     14780     14773     14779     14776     14776     14780     14781
     14780     14781     14782     14780     14781     14783     14780     14781     14784
     14782     14781     14783     14782     14781     14784     14783     14781     14784
     14781     14784     14785     14781     14784     14786     14781     14784     14792
     14785     14784     14786     14785     14784     14792     14786     14784     14792
     14784     14786     14787     14786     14787     14788     14786     14787     14789
     14788     14787     14789     14787     14789     14790     14787     14789     14791
     14787     14789     14801     14790     14789     14791     14790     14789     14801
     14791     14789     14801     14784     14792     14793     14784     14792     14794
     14784     14792     14795     14793     14792     14794     14793     14792     14795
     14794     14792     14795     14792     14795     14796     14795     14796     14797
     14795     14796     14798     14797     14796     14798     14796     14798     14799
     14796     14798     14800     14796     14798     14848     14799     14798     14800
     14799     14798     14848     14800     14798     14848     14789     14801     14802
     14789     14801     14803     14789     14801     14804     14802     14801     14803
     14802     14801     14804     14803     14801     14804     14801     14804     14805
     14801     14804     14806     14801     14804     14807     14805     14804     14806
     14805     14804     14807     14806     14804     14807     14804     14807     14808
     14804     14807     14809     14804     14807     14810     14808     14807     14809
     14808     14807     14810     14809     14807     14810     14807     14810     14811
     14807     14810     14812     14807     14810     14813     14811     14810     14812
     14811     14810     14813     14812     14810     14813     14810     14813     14814
     14810     14813     14815     14810     14813     14816     14814     14813     14815
     14814     14813     14816     14815     14813     14816     14813     14816     14817
     14813     14816     14818     14813     14816     14819     14817     14816     14818
     14817     14816     14819     14818     14816     14819     14816     14819     14820
     14816     14819     14821     14820     14819     14821     14819     14821     14822
     14819     14821     14823     14822     14821     14823     14821     14823     14824
     14821     14823     14825     14821     14823     14826     14824     14823     14825
     14824     14823     14826     14825     14823     14826     14823     14826     14827
     14823     14826     14828     14823     14826     14829     14827     14826     14828
     14827     14826     14829     14828     14826     14829     14826     14829     14830
     14826     14829     14831     14826     14829     14832     14830     14829     14831
     14830     14829     14832     14831     14829     14832     14829     14832     14833
     14829     14832     14834     14829     14832     14835     14833     14832     14834
     14833     14832     14835     14834     14832     14835     14832     14835     14836
     14832     14835     14837     14832     14835     14838     14836     14835     14837
     14836     14835     14838     14837     14835     14838     14835     14838     14839
     14835     14838     14840     14835     14838     14841     14839     14838     14840
     14839     14838     14841     14840     14838     14841     14838     14841     14842
     14838     14841     14843     14838     14841     14844     14842     14841     14843
     14842     14841     14844     14843     14841     14844     14841     14844     14845
     14841     14844     14846     14841     14844     14847     14845     14844     14846
     14845     14844     14847     14846     14844     14847     14798     14848     14849
     14798     14848     14850     14798     14848     14851     14849     14848     14850
     14849     14848     14851     14850     14848     14851     14848     14851     14852
     14848     14851     14853     14848     14851     14854     14852     14851     14853
     14852     14851     14854     14853     14851     14854     14851     14854     14855
     14851     14854     14856     14851     14854     14857     14855     14854     14856
     14855     14854     14857     14856     14854     14857     14854     14857     14858
     14854     14857     14859     14854     14857     14860     14858     14857     14859
     14858     14857     14860     14859     14857     14860     14857     14860     14861
     14857     14860     14862     14857     14860     14863     14861     14860     14862
     14861     14860     14863     14862     14860     14863     14860     14863     14864
     14860     14863     14865     14860     14863     14866     14864     14863     14865
     14864     14863     14866     14865     14863     14866     14863     14866     14867
     14863     14866     14868     14863     14866     14869     14867     14866     14868
     14867     14866     14869     14868     14866     14869     14866     14869     14870
     14866     14869     14871     14866     14869     14872     14870     14869     14871
     14870     14869     14872     14871     14869     14872     14869     14872     14873
     14869     14872     14874     14869     14872     14875     14873     14872     14874
     14873     14872     14875     14874     14872     14875     14872     14875     14876
     14872     14875     14877     14872     14875     14878     14876     14875     14877
     14876     14875     14878     14877     14875     14878     14875     14878     14879
     14875     14878     14880     14875     14878     14881     14879     14878     14880
     14879     14878     14881     14880     14878     14881     14878     14881     14882
     14878     14881     14883     14878     14881     14884     14882     14881     14883
     14882     14881     14884     14883     14881     14884     14881     14884     14885
     14881     14884     14886     14881     14884     14887     14885     14884     14886
     14885     14884     14887     14886     14884     14887     14884     14887     14888
     14884     14887     14889     14884     14887     14890     14888     14887     14889
     14888     14887     14890     14889     14887     14890     14892     14891     14895
     14892     14891     14899     14892     14891     14903     14895     14891     14899
     14895     14891     14903     14899     14891     14903     14891     14892     14893
     14891     14892     14894     14891     14892     14907     14893     14892     14894
     14893     14892     14907     14894     14892     14907     14891     14895     14896
     14891     14895     14897     14891     14895     14898     14896     14895     14897
     14896     14895     14898     14897     14895     14898     14891     14899     14900
     14891     14899     14901     14891     14899     14902     14900     14899     14901
     14900     14899     14902     14901     14899     14902     14891     14903     14904
     14891     14903     14905     14891     14903     14906     14904     14903     14905
     14904     14903     14906     14905     14903     14906     14892     14907     14908
     14892     14907     14909     14892     14907     14913     14908     14907     14909
     14908     14907     14913     14909     14907     14913     14911     14910     14912
     14911     14910     14913     14911     14910     14914     14912     14910     14913
     14912     14910     14914     14913     14910     14914     14907     14913     14910
     14910     14914     14915     14914     14915     14916     14914     14915     14917
     14914     14915     14918     14916     14915     14917     14916     14915     14918
     14917     14915     14918     14915     14918     14919     14915     14918     14920
     14915     14918     14926     14919     14918     14920     14919     14918     14926
     14920     14918     14926     14918     14920     14921     14920     14921     14922
     14920     14921     14923     14922     14921     14923     14921     14923     14924
     14921     14923     14925     14921     14923     14935     14924     14923     14925
     14924     14923     14935     14925     14923     14935     14918     14926     14927
     14918     14926     14928     14918     14926     14929     14927     14926     14928
     14927     14926     14929     14928     14926     14929     14926     14929     14930
     14929     14930     14931     14929     14930     14932     14931     14930     14932
     14930     14932     14933     14930     14932     14934     14930     14932     14982
     14933     14932     14934     14933     14932     14982     14934     14932     14982
     14923     14935     14936     14923     14935     14937     14923     14935     14938
     14936     14935     14937     14936     14935     14938     14937     14935     14938
     14935     14938     14939     14935     14938     14940     14935     14938     14941
     14939     14938     14940     14939     14938     14941     14940     14938     14941
     14938     14941     14942     14938     14941     14943     14938     14941     14944
     14942     14941     14943     14942     14941     14944     14943     14941     14944
     14941     14944     14945     14941     14944     14946     14941     14944     14947
     14945     14944     14946     14945     14944     14947     14946     14944     14947
     14944     14947     14948     14944     14947     14949     14944     14947     14950
     14948     14947     14949     14948     14947     14950     14949     14947     14950
     14947     14950     14951     14947     14950     14952     14947     14950     14953
     14951     14950     14952     14951     14950     14953     14952     14950     14953
     14950     14953     14954     14950     14953     14955     14954     14953     14955
     14953     14955     14956     14953     14955     14957     14956     14955     14957
     14955     14957     14958     14955     14957     14959     14955     14957     14960
     14958     14957     14959     14958     14957     14960     14959     14957     14960
     14957     14960     14961     14957     14960     14962     14957     14960     14963
     14961     14960     14962     14961     14960     14963     14962     14960     14963
     14960     14963     14964     14960     14963     14965     14960     14963     14966
     14964     14963     14965     14964     14963     14966     14965     14963     14966
     14963     14966     14967     14963     14966     14968     14963     14966     14969
     14967     14966     14968     14967     14966     14969     14968     14966     14969
     14966     14969     14970     14966     14969     14971     14966     14969     14972
     14970     14969     14971     14970     14969     14972     14971     14969     14972
     14969     14972     14973     14969     14972     14974     14969     14972     14975
     14973     14972     14974     14973     14972     14975     14974     14972     14975
     14972     14975     14976     14972     14975     14977     14972     14975     14978
     14976     14975     14977     14976     14975     14978     14977     14975     14978
     14975     14978     14979     14975     14978     14980     14975     14978     14981
     14979     14978     14980     14979     14978     14981     14980     14978     14981
     14932     14982     14983     14932     14982     14984     14932     14982     14985
     14983     14982     14984     14983     14982     14985     14984     14982     14985
     14982     14985     14986     14982     14985     14987     14982     14985     14988
     14986     14985     14987     14986     14985     14988     14987     14985     14988
     14985     14988     14989     14985     14988     14990     14985     14988     14991
     14989     14988     14990     14989     14988     14991     14990     14988     14991
     14988     14991     14992     14988     14991     14993     14988     14991     14994
     14992     14991     14993     14992     14991     14994     14993     14991     14994
     14991     14994     14995     14991     14994     14996     14991     14994     14997
     14995     14994     14996     14995     14994     14997     14996     14994     14997
     14994     14997     14998     14994     14997     14999     14994     14997     15000
     14998     14997     14999     14998     14997     15000     14999     14997     15000
     14997     15000     15001     14997     15000     15002     14997     15000     15003
     15001     15000     15002     15001     15000     15003     15002     15000     15003
     15000     15003     15004     15000     15003     15005     15000     15003     15006
     15004     15003     15005     15004     15003     15006     15005     15003     15006
     15003     15006     15007     15003     15006     15008     15003     15006     15009
     15007     15006     15008     15007     15006     15009     15008     15006     15009
     15006     15009     15010     15006     15009     15011     15006     15009     15012
     15010     15009     15011     15010     15009     15012     15011     15009     15012
     15009     15012     15013     15009     15012     15014     15009     15012     15015
     15013     15012     15014     15013     15012     15015     15014     15012     15015
     15012     15015     15016     15012     15015     15017     15012     15015     15018
     15016     15015     15017     15016     15015     15018     15017     15015     15018
     15015     15018     15019     15015     15018     15020     15015     15018     15021
     15019     15018     15020     15019     15018     15021     15020     15018     15021
     15018     15021     15022     15018     15021     15023     15018     15021     15024
     15022     15021     15023     15022     15021     15024     15023     15021     15024
     15026     15025     15029     15026     15025     15033     15026     15025     15037
     15029     15025     15033     15029     15025     15037     15033     15025     15037
     15025     15026     15027     15025     15026     15028     15025     15026     15041
     15027     15026     15028     15027     15026     15041     15028     15026     15041
     15025     15029     15030     15025     15029     15031     15025     15029     15032
     15030     15029     15031     15030     15029     15032     15031     15029     15032
     15025     15033     15034     15025     15033     15035     15025     15033     15036
     15034     15033     15035     15034     15033     15036     15035     15033     15036
     15025     15037     15038     15025     15037     15039     15025     15037     15040
     15038     15037     15039     15038     15037     15040     15039     15037     15040
     15026     15041     15042     15026     15041     15043     15026     15041     15047
     15042     15041     15043     15042     15041     15047     15043     15041     15047
     15045     15044     15046     15045     15044     15047     15045     15044     15048
     15046     15044     15047     15046     15044     15048     15047     15044     15048
     15041     15047     15044     15044     15048     15049     15048     15049     15050
     15048     15049     15051     15048     15049     15052     15050     15049     15051
     15050     15049     15052     15051     15049     15052     15049     15052     15053
     15049     15052     15054     15049     15052     15060     15053     15052     15054
     15053     15052     15060     15054     15052     15060     15052     15054     15055
     15054     15055     15056     15054     15055     15057     15056     15055     15057
     15055     15057     15058     15055     15057     15059     15055     15057     15069
     15058     15057     15059     15058     15057     15069     15059     15057     15069
     15052     15060     15061     15052     15060     15062     15052     15060     15063
     15061     15060     15062     15061     15060     15063     15062     15060     15063
     15060     15063     15064     15063     15064     15065     15063     15064     15066
     15065     15064     15066     15064     15066     15067     15064     15066     15068
     15064     15066     15116     15067     15066     15068     15067     15066     15116
     15068     15066     15116     15057     15069     15070     15057     15069     15071
     15057     15069     15072     15070     15069     15071     15070     15069     15072
     15071     15069     15072     15069     15072     15073     15069     15072     15074
     15069     15072     15075     15073     15072     15074     15073     15072     15075
     15074     15072     15075     15072     15075     15076     15072     15075     15077
     15072     15075     15078     15076     15075     15077     15076     15075     15078
     15077     15075     15078     15075     15078     15079     15075     15078     15080
     15075     15078     15081     15079     15078     15080     15079     15078     15081
     15080     15078     15081     15078     15081     15082     15078     15081     15083
     15078     15081     15084     15082     15081     15083     15082     15081     15084
     15083     15081     15084     15081     15084     15085     15081     15084     15086
     15081     15084     15087     15085     15084     15086     15085     15084     15087
     15086     15084     15087     15084     15087     15088     15084     15087     15089
     15088     15087     15089     15087     15089     15090     15087     15089     15091
     15090     15089     15091     15089     15091     15092     15089     15091     15093
     15089     15091     15094     15092     15091     15093     15092     15091     15094
     15093     15091     15094     15091     15094     15095     15091     15094     15096
     15091     15094     15097     15095     15094     15096     15095     15094     15097
     15096     15094     15097     15094     15097     15098     15094     15097     15099
     15094     15097     15100     15098     15097     15099     15098     15097     15100
     15099     15097     15100     15097     15100     15101     15097     15100     15102
     15097     15100     15103     15101     15100     15102     15101     15100     15103
     15102     15100     15103     15100     15103     15104     15100     15103     15105
     15100     15103     15106     15104     15103     15105     15104     15103     15106
     15105     15103     15106     15103     15106     15107     15103     15106     15108
     15103     15106     15109     15107     15106     15108     15107     15106     15109
     15108     15106     15109     15106     15109     15110     15106     15109     15111
     15106     15109     15112     15110     15109     15111     15110     15109     15112
     15111     15109     15112     15109     15112     15113     15109     15112     15114
     15109     15112     15115     15113     15112     15114     15113     15112     15115
     15114     15112     15115     15066     15116     15117     15066     15116     15118
     15066     15116     15119     15117     15116     15118     15117     15116     15119
     15118     15116     15119     15116     15119     15120     15116     15119     15121
     15116     15119     15122     15120     15119     15121     15120     15119     15122
     15121     15119     15122     15119     15122     15123     15119     15122     15124
     15119     15122     15125     15123     15122     15124     15123     15122     15125
     15124     15122     15125     15122     15125     15126     15122     15125     15127
     15122     15125     15128     15126     15125     15127     15126     15125     15128
     15127     15125     15128     15125     15128     15129     15125     15128     15130
     15125     15128     15131     15129     15128     15130     15129     15128     15131
     15130     15128     15131     15128     15131     15132     15128     15131     15133
     15128     15131     15134     15132     15131     15133     15132     15131     15134
     15133     15131     15134     15131     15134     15135     15131     15134     15136
     15131     15134     15137     15135     15134     15136     15135     15134     15137
     15136     15134     15137     15134     15137     15138     15134     15137     15139
     15134     15137     15140     15138     15137     15139     15138     15137     15140
     15139     15137     15140     15137     15140     15141     15137     15140     15142
     15137     15140     15143     15141     15140     15142     15141     15140     15143
     15142     15140     15143     15140     15143     15144     15140     15143     15145
     15140     15143     15146     15144     15143     15145     15144     15143     15146
     15145     15143     15146     15143     15146     15147     15143     15146     15148
     15143     15146     15149     15147     15146     15148     15147     15146     15149
     15148     15146     15149     15146     15149     15150     15146     15149     15151
     15146     15149     15152     15150     15149     15151     15150     15149     15152
     15151     15149     15152     15149     15152     15153     15149     15152     15154
     15149     15152     15155     15153     15152     15154     15153     15152     15155
     15154     15152     15155     15152     15155     15156     15152     15155     15157
     15152     15155     15158     15156     15155     15157     15156     15155     15158
     15157     15155     15158      9361      9360      9362      9361      9360      9363
      9361      9360      9364      9362      9360      9363      9362      9360      9364
      9363      9360      9364      9360      9364      9365      9360      9364      9366
      9360      9364      9369      9365      9364      9366      9365      9364      9369
      9366      9364      9369      9364      9366      9367      9364      9366      9368
      9367      9366      9368      9364      9369      9370      9364      9369      9371
      9364      9369      9375      9370      9369      9371      9370      9369      9375
      9371      9369      9375      9373      9372      9374      9373      9372      9375
      9373      9372      9376      9374      9372      9375      9374      9372      9376
      9375      9372      9376      9369      9375      9372      9372      9376      9377
      9376      9377      9378      9376      9377      9379      9376      9377      9380
      9378      9377      9379      9378      9377      9380      9379      9377      9380
      9377      9380      9381      9377      9380      9382      9377      9380      9388
      9381      9380      9382      9381      9380      9388      9382      9380      9388
      9380      9382      9383      9382      9383      9384      9382      9383      9385
      9384      9383      9385      9383      9385      9386      9383      9385      9387
      9383      9385      9397      9386      9385      9387      9386      9385      9397
      9387      9385      9397      9380      9388      9389      9380      9388      9390
      9380      9388      9391      9389      9388      9390      9389      9388      9391
      9390      9388      9391      9388      9391      9392      9391      9392      9393
      9391      9392      9394      9393      9392      9394      9392      9394      9395
      9392      9394      9396      9392      9394      9444      9395      9394      9396
      9395      9394      9444      9396      9394      9444      9385      9397      9398
      9385      9397      9399      9385      9397      9400      9398      9397      9399
      9398      9397      9400      9399      9397      9400      9397      9400      9401
      9397      9400      9402      9397      9400      9403      9401      9400      9402
      9401      9400      9403      9402      9400      9403      9400      9403      9404
      9400      9403      9405      9400      9403      9406      9404      9403      9405
      9404      9403      9406      9405      9403      9406      9403      9406      9407
      9403      9406      9408      9403      9406      9409      9407      9406      9408
      9407      9406      9409      9408      9406      9409      9406      9409      9410
      9406      9409      9411      9406      9409      9412      9410      9409      9411
      9410      9409      9412      9411      9409      9412      9409      9412      9413
      9409      9412      9414      9409      9412      9415      9413      9412      9414
      9413      9412      9415      9414      9412      9415      9412      9415      9416
      9412      9415      9417      9416      9415      9417      9415      9417      9418
      9415      9417      9419      9418      9417      9419      9417      9419      9420
      9417      9419      9421      9417      9419      9422      9420      9419      9421
      9420      9419      9422      9421      9419      9422      9419      9422      9423
      9419      9422      9424      9419      9422      9425      9423      9422      9424
      9423      9422      9425      9424      9422      9425      9422      9425      9426
      9422      9425      9427      9422      9425      9428      9426      9425      9427
      9426      9425      9428      9427      9425      9428      9425      9428      9429
      9425      9428      9430      9425      9428      9431      9429      9428      9430
      9429      9428      9431      9430      9428      9431      9428      9431      9432
      9428      9431      9433      9428      9431      9434      9432      9431      9433
      9432      9431      9434      9433      9431      9434      9431      9434      9435
      9431      9434      9436      9431      9434      9437      9435      9434      9436
      9435      9434      9437      9436      9434      9437      9434      9437      9438
      9434      9437      9439      9434      9437      9440      9438      9437      9439
      9438      9437      9440      9439      9437      9440      9437      9440      9441
      9437      9440      9442      9437      9440      9443      9441      9440      9442
      9441      9440      9443      9442      9440      9443      9394      9444      9445
      9394      9444      9446      9394      9444      9447      9445      9444      9446
      9445      9444      9447      9446      9444      9447      9444      9447      9448
      9444      9447      9449      9444      9447      9450      9448      9447      9449
      9448      9447      9450      9449      9447      9450      9447      9450      9451
      9447      9450      9452      9447      9450      9453      9451      9450      9452
      9451      9450      9453      9452      9450      9453      9450      9453      9454
      9450      9453      9455      9450      9453      9456      9454      9453      9455
      9454      9453      9456      9455      9453      9456      9453      9456      9457
      9453      9456      9458      9453      9456      9459      9457      9456      9458
      9457      9456      9459      9458      9456      9459      9456      9459      9460
      9456      9459      9461      9456      9459      9462      9460      9459      9461
      9460      9459      9462      9461      9459      9462      9459      9462      9463
      9459      9462      9464      9459      9462      9465      9463      9462      9464
      9463      9462      9465      9464      9462      9465      9462      9465      9466
      9462      9465      9467      9462      9465      9468      9466      9465      9467
      9466      9465      9468      9467      9465      9468      9465      9468      9469
      9465      9468      9470      9465      9468      9471      9469      9468      9470
      9469      9468      9471      9470      9468      9471      9468      9471      9472
      9468      9471      9473      9468      9471      9474      9472      9471      9473
      9472      9471      9474      9473      9471      9474      9471      9474      9475
      9471      9474      9476      9471      9474      9477      9475      9474      9476
      9475      9474      9477      9476      9474      9477      9474      9477      9478
      9474      9477      9479      9474      9477      9480      9478      9477      9479
      9478      9477      9480      9479      9477      9480      9477      9480      9481
      9477      9480      9482      9477      9480      9483      9481      9480      9482
      9481      9480      9483      9482      9480      9483      9480      9483      9484
      9480      9483      9485      9480      9483      9486      9484      9483      9485
      9484      9483      9486      9485      9483      9486       594       593       595
       594       593       597       594       593       639       595       593       597
       595       593       639       597       593       639       593       595       596
       593       597       598       593       597       599       593       597       600
       598       597       599       598       597       600       599       597       600
       597       600       601       597       600       631       601       600       631
       600       601       602       600       601       603       602       601       603
       601       603       604       601       603       605       601       603       606
       604       603       605       604       603       606       605       603       606
       603       606       607       603       606       608       603       606       629
       607       606       608       607       606       629       608       606       629
       606       608       609       606       608       610       606       608       618
       609       608       610       609       608       618       610       608       618
       608       610       611       608       610       612       608       610       613
       611       610       612       611       610       613       612       610       613
       610       613       614       610       613       615       610       613       616
       614       613       615       614       613       616       615       613       616
       613       616       617       613       616       618       613       616       642
       617       616       618       617       616       642       618       616       642
       608       618       616       608       618       619       608       618       623
       616       618       619       616       618       623       619       618       623
       618       619       620       618       619       621       618       619       622
       620       619       621       620       619       622       621       619       622
       618       623       624       618       623       625       618       623       626
       624       623       625       624       623       626       625       623       626
       623       626       627       623       626       628       623       626       629
       627       626       628       627       626       629       628       626       629
       606       629       626       606       629       630       606       629       631
       626       629       630       626       629       631       630       629       631
       600       631       629       600       631       632       600       631       636
       629       631       632       629       631       636       632       631       636
       631       632       633       631       632       634       631       632       635
       633       632       634       633       632       635       634       632       635
       631       636       637       631       636       638       631       636       639
       637       636       638       637       636       639       638       636       639
       593       639       636       593       639       640       593       639       641
       636       639       640       636       639       641       640       639       641
       616       642       643       616       642       644       616       642       648
       643       642       644       643       642       648       644       642       648
       642       644       645       642       644       646       642       644       647
       645       644       646       645       644       647       646       644       647
       642       648       649       642       648       650       642       648       651
       649       648       650       649       648       651       650       648       651
       648       651       652       648       651       653       648       651       654
       652       651       653       652       651       654       653       651       654
       651       654       655       651       654       656       651       654       657
       655       654       656       655       654       657       656       654       657
       654       657       658       654       657       659       654       657       663
       658       657       659       658       657       663       659       657       663
       657       659       660       657       659       661       657       659       662
       660       659       661       660       659       662       661       659       662
       657       663       664       657       663       665       657       663       666
       664       663       665       664       663       666       665       663       666
     23216     23215     23220     23216     23215     23224     23216     23215     23228
     23220     23215     23224     23220     23215     23228     23224     23215     23228
     23215     23216     23217     23215     23216     23218     23215     23216     23219
     23217     23216     23218     23217     23216     23219     23218     23216     23219
     23215     23220     23221     23215     23220     23222     23215     23220     23223
     23221     23220     23222     23221     23220     23223     23222     23220     23223
     23215     23224     23225     23215     23224     23226     23215     23224     23227
     23225     23224     23226     23225     23224     23227     23226     23224     23227
     23215     23228     23229     23215     23228     23230     23215     23228     23231
     23229     23228     23230     23229     23228     23231     23230     23228     23231
     23228     23231     23232     23228     23231     23233     23228     23231     23238
     23232     23231     23233     23232     23231     23238     23233     23231     23238
     23235     23234     23236     23235     23234     23237     23235     23234     23238
     23236     23234     23237     23236     23234     23238     23237     23234     23238
     23234     23237     23239     23231     23238     23234     23237     23239     23240
     23237     23239     23241     23237     23239     23244     23240     23239     23241
     23240     23239     23244     23241     23239     23244     23243     23242     23244
     23243     23242     23294     23244     23242     23294     23239     23244     23242
     23239     23244     23245     23239     23244     23246     23242     23244     23245
     23242     23244     23246     23245     23244     23246     23244     23246     23247
     23244     23246     23248     23244     23246     23250     23247     23246     23248
     23247     23246     23250     23248     23246     23250     23246     23248     23249
     23246     23250     23251     23246     23250     23252     23251     23250     23252
     23250     23252     23253     23250     23252     23254     23253     23252     23254
     23252     23254     23255     23252     23254     23256     23252     23254     23257
     23255     23254     23256     23255     23254     23257     23256     23254     23257
     23254     23257     23258     23254     23257     23259     23254     23257     23260
     23258     23257     23259     23258     23257     23260     23259     23257     23260
     23257     23260     23261     23257     23260     23262     23257     23260     23263
     23261     23260     23262     23261     23260     23263     23262     23260     23263
     23260     23263     23264     23260     23263     23265     23260     23263     23266
     23264     23263     23265     23264     23263     23266     23265     23263     23266
     23263     23266     23267     23263     23266     23268     23263     23266     23269
     23267     23266     23268     23267     23266     23269     23268     23266     23269
     23266     23269     23270     23266     23269     23271     23266     23269     23272
     23270     23269     23271     23270     23269     23272     23271     23269     23272
     23269     23272     23273     23269     23272     23274     23269     23272     23275
     23273     23272     23274     23273     23272     23275     23274     23272     23275
     23272     23275     23276     23272     23275     23277     23272     23275     23278
     23276     23275     23277     23276     23275     23278     23277     23275     23278
     23275     23278     23279     23275     23278     23280     23275     23278     23281
     23279     23278     23280     23279     23278     23281     23280     23278     23281
     23278     23281     23282     23278     23281     23283     23278     23281     23284
     23282     23281     23283     23282     23281     23284     23283     23281     23284
     23281     23284     23285     23281     23284     23286     23281     23284     23287
     23285     23284     23286     23285     23284     23287     23286     23284     23287
     23284     23287     23288     23284     23287     23289     23284     23287     23290
     23288     23287     23289     23288     23287     23290     23289     23287     23290
     23287     23290     23291     23287     23290     23292     23287     23290     23293
     23291     23290     23292     23291     23290     23293     23292     23290     23293
     23242     23294     23295     23242     23294     23296     23295     23294     23296
     23294     23296     23297     23294     23296     23298     23294     23296     23299
     23297     23296     23298     23297     23296     23299     23298     23296     23299
     23296     23299     23300     23296     23299     23301     23296     23299     23302
     23300     23299     23301     23300     23299     23302     23301     23299     23302
     23299     23302     23303     23299     23302     23304     23299     23302     23305
     23303     23302     23304     23303     23302     23305     23304     23302     23305
     23302     23305     23306     23302     23305     23307     23302     23305     23308
     23306     23305     23307     23306     23305     23308     23307     23305     23308
     23305     23308     23309     23305     23308     23310     23305     23308     23311
     23309     23308     23310     23309     23308     23311     23310     23308     23311
     23308     23311     23312     23308     23311     23313     23308     23311     23314
     23312     23311     23313     23312     23311     23314     23313     23311     23314
     23311     23314     23315     23311     23314     23316     23311     23314     23317
     23315     23314     23316     23315     23314     23317     23316     23314     23317
     23314     23317     23318     23314     23317     23319     23314     23317     23320
     23318     23317     23319     23318     23317     23320     23319     23317     23320
     23317     23320     23321     23317     23320     23322     23317     23320     23323
     23321     23320     23322     23321     23320     23323     23322     23320     23323
     23320     23323     23324     23320     23323     23325     23320     23323     23326
     23324     23323     23325     23324     23323     23326     23325     23323     23326
     23323     23326     23327     23323     23326     23328     23323     23326     23329
     23327     23326     23328     23327     23326     23329     23328     23326     23329
     23326     23329     23330     23326     23329     23331     23326     23329     23332
     23330     23329     23331     23330     23329     23332     23331     23329     23332
     23329     23332     23333     23329     23332     23334     23329     23332     23335
     23333     23332     23334     23333     23332     23335     23334     23332     23335
     23332     23335     23336     23332     23335     23337     23332     23335     23338
     23336     23335     23337     23336     23335     23338     23337     23335     23338
     23335     23338     23339     23335     23338     23340     23335     23338     23341
     23339     23338     23340     23339     23338     23341     23340     23338     23341
      9488      9487      9489      9488      9487      9490      9488      9487      9491
      9489      9487      9490      9489      9487      9491      9490      9487      9491
      9487      9491      9492      9487      9491      9493      9487      9491      9496
      9492      9491      9493      9492      9491      9496      9493      9491      9496
      9491      9493      9494      9491      9493      9495      9494      9493      9495
      9491      9496      9497      9491      9496      9498      9491      9496      9502
      9497      9496      9498      9497      9496      9502      9498      9496      9502
      9500      9499      9501      9500      9499      9502      9500      9499      9503
      9501      9499      9502      9501      9499      9503      9502      9499      9503
      9496      9502      9499      9499      9503      9504      9503      9504      9505
      9503      9504      9506      9503      9504      9507      9505      9504      9506
      9505      9504      9507      9506      9504      9507      9504      9507      9508
      9504      9507      9509      9504      9507      9515      9508      9507      9509
      9508      9507      9515      9509      9507      9515      9507      9509      9510
      9509      9510      9511      9509      9510      9512      9511      9510      9512
      9510      9512      9513      9510      9512      9514      9510      9512      9524
      9513      9512      9514      9513      9512      9524      9514      9512      9524
      9507      9515      9516      9507      9515      9517      9507      9515      9518
      9516      9515      9517      9516      9515      9518      9517      9515      9518
      9515      9518      9519      9518      9519      9520      9518      9519      9521
      9520      9519      9521      9519      9521      9522      9519      9521      9523
      9519      9521      9571      9522      9521      9523      9522      9521      9571
      9523      9521      9571      9512      9524      9525      9512      9524      9526
      9512      9524      9527      9525      9524      9526      9525      9524      9527
      9526      9524      9527      9524      9527      9528      9524      9527      9529
      9524      9527      9530      9528      9527      9529      9528      9527      9530
      9529      9527      9530      9527      9530      9531      9527      9530      9532
      9527      9530      9533      9531      9530      9532      9531      9530      9533
      9532      9530      9533      9530      9533      9534      9530      9533      9535
      9530      9533      9536      9534      9533      9535      9534      9533      9536
      9535      9533      9536      9533      9536      9537      9533      9536      9538
      9533      9536      9539      9537      9536      9538      9537      9536      9539
      9538      9536      9539      9536      9539      9540      9536      9539      9541
      9536      9539      9542      9540      9539      9541      9540      9539      9542
      9541      9539      9542      9539      9542      9543      9539      9542      9544
      9543      9542      9544      9542      9544      9545      9542      9544      9546
      9545      9544      9546      9544      9546      9547      9544      9546      9548
      9544      9546      9549      9547      9546      9548      9547      9546      9549
      9548      9546      9549      9546      9549      9550      9546      9549      9551
      9546      9549      9552      9550      9549      9551      9550      9549      9552
      9551      9549      9552      9549      9552      9553      9549      9552      9554
      9549      9552      9555      9553      9552      9554      9553      9552      9555
      9554      9552      9555      9552      9555      9556      9552      9555      9557
      9552      9555      9558      9556      9555      9557      9556      9555      9558
      9557      9555      9558      9555      9558      9559      9555      9558      9560
      9555      9558      9561      9559      9558      9560      9559      9558      9561
      9560      9558      9561      9558      9561      9562      9558      9561      9563
      9558      9561      9564      9562      9561      9563      9562      9561      9564
      9563      9561      9564      9561      9564      9565      9561      9564      9566
      9561      9564      9567      9565      9564      9566      9565      9564      9567
      9566      9564      9567      9564      9567      9568      9564      9567      9569
      9564      9567      9570      9568      9567      9569      9568      9567      9570
      9569      9567      9570      9521      9571      9572      9521      9571      9573
      9521      9571      9574      9572      9571      9573      9572      9571      9574
      9573      9571      9574      9571      9574      9575      9571      9574      9576
      9571      9574      9577      9575      9574      9576      9575      9574      9577
      9576      9574      9577      9574      9577      9578      9574      9577      9579
      9574      9577      9580      9578      9577      9579      9578      9577      9580
      9579      9577      9580      9577      9580      9581      9577      9580      9582
      9577      9580      9583      9581      9580      9582      9581      9580      9583
      9582      9580      9583      9580      9583      9584      9580      9583      9585
      9580      9583      9586      9584      9583      9585      9584      9583      9586
      9585      9583      9586      9583      9586      9587      9583      9586      9588
      9583      9586      9589      9587      9586      9588      9587      9586      9589
      9588      9586      9589      9586      9589      9590      9586      9589      9591
      9586      9589      9592      9590      9589      9591      9590      9589      9592
      9591      9589      9592      9589      9592      9593      9589      9592      9594
      9589      9592      9595      9593      9592      9594      9593      9592      9595
      9594      9592      9595      9592      9595      9596      9592      9595      9597
      9592      9595      9598      9596      9595      9597      9596      9595      9598
      9597      9595      9598      9595      9598      9599      9595      9598      9600
      9595      9598      9601      9599      9598      9600      9599      9598      9601
      9600      9598      9601      9598      9601      9602      9598      9601      9603
      9598      9601      9604      9602      9601      9603      9602      9601      9604
      9603      9601      9604      9601      9604      9605      9601      9604      9606
      9601      9604      9607      9605      9604      9606      9605      9604      9607
      9606      9604      9607      9604      9607      9608      9604      9607      9609
      9604      9607      9610      9608      9607      9609      9608      9607      9610
      9609      9607      9610      9607      9610      9611      9607      9610      9612
      9607      9610      9613      9611      9610      9612      9611      9610      9613
      9612      9610      9613       668       667       669       668       667       671
       668       667       713       669       667       671       669       667       713
       671       667       713       667       669       670       667       671       672
       667       671       673       667       671       674       672       671       673
       672       671       674       673       671       674       671       674       675
       671       674       705       675       674       705       674       675       676
       674       675       677       676       675       677       675       677       678
       675       677       679       675       677       680       678       677       679
       678       677       680       679       677       680       677       680       681
       677       680       682       677       680       703       681       680       682
       681       680       703       682       680       703       680       682       683
       680       682       684       680       682       692       683       682       684
       683       682       692       684       682       692       682       684       685
       682       684       686       682       684       687       685       684       686
       685       684       687       686       684       687       684       687       688
       684       687       689       684       687       690       688       687       689
       688       687       690       689       687       690       687       690       691
       687       690       692       687       690       716       691       690       692
       691       690       716       692       690       716       682       692       690
       682       692       693       682       692       697       690       692       693
       690       692       697       693       692       697       692       693       694
       692       693       695       692       693       696       694       693       695
       694       693       696       695       693       696       692       697       698
       692       697       699       692       697       700       698       697       699
       698       697       700       699       697       700       697       700       701
       697       700       702       697       700       703       701       700       702
       701       700       703       702       700       703       680       703       700
       680       703       704       680       703       705       700       703       704
       700       703       705       704       703       705       674       705       703
       674       705       706       674       705       710       703       705       706
       703       705       710       706       705       710       705       706       707
       705       706       708       705       706       709       707       706       708
       707       706       709       708       706       709       705       710       711
       705       710       712       705       710       713       711       710       712
       711       710       713       712       710       713       667       713       710
       667       713       714       667       713       715       710       713       714
       710       713       715       714       713       715       690       716       717
       690       716       718       690       716       722       717       716       718
       717       716       722       718       716       722       716       718       719
       716       718       720       716       718       721       719       718       720
       719       718       721       720       718       721       716       722       723
       716       722       724       716       722       725       723       722       724
       723       722       725       724       722       725       722       725       726
       722       725       727       722       725       728       726       725       727
       726       725       728       727       725       728       725       728       729
       725       728       730       725       728       731       729       728       730
       729       728       731       730       728       731       728       731       732
       728       731       733       728       731       737       732       731       733
       732       731       737       733       731       737       731       733       734
       731       733       735       731       733       736       734       733       735
       734       733       736       735       733       736       731       737       738
       731       737       739       731       737       740       738       737       739
       738       737       740       739       737       740     15160     15159     15163
     15160     15159     15167     15160     15159     15171     15163     15159     15167
     15163     15159     15171     15167     15159     15171     15159     15160     15161
     15159     15160     15162     15159     15160     15175     15161     15160     15162
     15161     15160     15175     15162     15160     15175     15159     15163     15164
     15159     15163     15165     15159     15163     15166     15164     15163     15165
     15164     15163     15166     15165     15163     15166     15159     15167     15168
     15159     15167     15169     15159     15167     15170     15168     15167     15169
     15168     15167     15170     15169     15167     15170     15159     15171     15172
     15159     15171     15173     15159     15171     15174     15172     15171     15173
     15172     15171     15174     15173     15171     15174     15160     15175     15176
     15160     15175     15177     15160     15175     15181     15176     15175     15177
     15176     15175     15181     15177     15175     15181     15179     15178     15180
     15179     15178     15181     15179     15178     15182     15180     15178     15181
     15180     15178     15182     15181     15178     15182     15175     15181     15178
     15178     15182     15183     15182     15183     15184     15182     15183     15185
     15182     15183     15186     15184     15183     15185     15184     15183     15186
     15185     15183     15186     15183     15186     15187     15183     15186     15188
     15183     15186     15194     15187     15186     15188     15187     15186     15194
     15188     15186     15194     15186     15188     15189     15188     15189     15190
     15188     15189     15191     15190     15189     15191     15189     15191     15192
     15189     15191     15193     15189     15191     15203     15192     15191     15193
     15192     15191     15203     15193     15191     15203     15186     15194     15195
     15186     15194     15196     15186     15194     15197     15195     15194     15196
     15195     15194     15197     15196     15194     15197     15194     15197     15198
     15197     15198     15199     15197     15198     15200     15199     15198     15200
     15198     15200     15201     15198     15200     15202     15198     15200     15250
     15201     15200     15202     15201     15200     15250     15202     15200     15250
     15191     15203     15204     15191     15203     15205     15191     15203     15206
     15204     15203     15205     15204     15203     15206     15205     15203     15206
     15203     15206     15207     15203     15206     15208     15203     15206     15209
     15207     15206     15208     15207     15206     15209     15208     15206     15209
     15206     15209     15210     15206     15209     15211     15206     15209     15212
     15210     15209     15211     15210     15209     15212     15211     15209     15212
     15209     15212     15213     15209     15212     15214     15209     15212     15215
     15213     15212     15214     15213     15212     15215     15214     15212     15215
     15212     15215     15216     15212     15215     15217     15212     15215     15218
     15216     15215     15217     15216     15215     15218     15217     15215     15218
     15215     15218     15219     15215     15218     15220     15215     15218     15221
     15219     15218     15220     15219     15218     15221     15220     15218     15221
     15218     15221     15222     15218     15221     15223     15222     15221     15223
     15221     15223     15224     15221     15223     15225     15224     15223     15225
     15223     15225     15226     15223     15225     15227     15223     15225     15228
     15226     15225     15227     15226     15225     15228     15227     15225     15228
     15225     15228     15229     15225     15228     15230     15225     15228     15231
     15229     15228     15230     15229     15228     15231     15230     15228     15231
     15228     15231     15232     15228     15231     15233     15228     15231     15234
     15232     15231     15233     15232     15231     15234     15233     15231     15234
     15231     15234     15235     15231     15234     15236     15231     15234     15237
     15235     15234     15236     15235     15234     15237     15236     15234     15237
     15234     15237     15238     15234     15237     15239     15234     15237     15240
     15238     15237     15239     15238     15237     15240     15239     15237     15240
     15237     15240     15241     15237     15240     15242     15237     15240     15243
     15241     15240     15242     15241     15240     15243     15242     15240     15243
     15240     15243     15244     15240     15243     15245     15240     15243     15246
     15244     15243     15245     15244     15243     15246     15245     15243     15246
     15243     15246     15247     15243     15246     15248     15243     15246     15249
     15247     15246     15248     15247     15246     15249     15248     15246     15249
     15200     15250     15251     15200     15250     15252     15200     15250     15253
     15251     15250     15252     15251     15250     15253     15252     15250     15253
     15250     15253     15254     15250     15253     15255     15250     15253     15256
     15254     15253     15255     15254     15253     15256     15255     15253     15256
     15253     15256     15257     15253     15256     15258     15253     15256     15259
     15257     15256     15258     15257     15256     15259     15258     15256     15259
     15256     15259     15260     15256     15259     15261     15256     15259     15262
     15260     15259     15261     15260     15259     15262     15261     15259     15262
     15259     15262     15263     15259     15262     15264     15259     15262     15265
     15263     15262     15264     15263     15262     15265     15264     15262     15265
     15262     15265     15266     15262     15265     15267     15262     15265     15268
     15266     15265     15267     15266     15265     15268     15267     15265     15268
     15265     15268     15269     15265     15268     15270     15265     15268     15271
     15269     15268     15270     15269     15268     15271     15270     15268     15271
     15268     15271     15272     15268     15271     15273     15268     15271     15274
     15272     15271     15273     15272     15271     15274     15273     15271     15274
     15271     15274     15275     15271     15274     15276     15271     15274     15277
     15275     15274     15276     15275     15274     15277     15276     15274     15277
     15274     15277     15278     15274     15277     15279     15274     15277     15280
     15278     15277     15279     15278     15277     15280     15279     15277     15280
     15277     15280     15281     15277     15280     15282     15277     15280     15283
     15281     15280     15282     15281     15280     15283     15282     15280     15283
     15280     15283     15284     15280     15283     15285     15280     15283     15286
     15284     15283     15285     15284     15283     15286     15285     15283     15286
     15283     15286     15287     15283     15286     15288     15283     15286     15289
     15287     15286     15288     15287     15286     15289     15288     15286     15289
     15286     15289     15290     15286     15289     15291     15286     15289     15292
     15290     15289     15291     15290     15289     15292     15291     15289     15292
     15294     15293     15297     15294     15293     15301     15294     15293     15305
     15297     15293     15301     15297     15293     15305     15301     15293     15305
     15293     15294     15295     15293     15294     15296     15293     15294     15309
     15295     15294     15296     15295     15294     15309     15296     15294     15309
     15293     15297     15298     15293     15297     15299     15293     15297     15300
     15298     15297     15299     15298     15297     15300     15299     15297     15300
     15293     15301     15302     15293     15301     15303     15293     15301     15304
     15302     15301     15303     15302     15301     15304     15303     15301     15304
     15293     15305     15306     15293     15305     15307     15293     15305     15308
     15306     15305     15307     15306     15305     15308     15307     15305     15308
     15294     15309     15310     15294     15309     15311     15294     15309     15315
     15310     15309     15311     15310     15309     15315     15311     15309     15315
     15313     15312     15314     15313     15312     15315     15313     15312     15316
     15314     15312     15315     15314     15312     15316     15315     15312     15316
     15309     15315     15312     15312     15316     15317     15316     15317     15318
     15316     15317     15319     15316     15317     15320     15318     15317     15319
     15318     15317     15320     15319     15317     15320     15317     15320     15321
     15317     15320     15322     15317     15320     15328     15321     15320     15322
     15321     15320     15328     15322     15320     15328     15320     15322     15323
     15322     15323     15324     15322     15323     15325     15324     15323     15325
     15323     15325     15326     15323     15325     15327     15323     15325     15337
     15326     15325     15327     15326     15325     15337     15327     15325     15337
     15320     15328     15329     15320     15328     15330     15320     15328     15331
     15329     15328     15330     15329     15328     15331     15330     15328     15331
     15328     15331     15332     15331     15332     15333     15331     15332     15334
     15333     15332     15334     15332     15334     15335     15332     15334     15336
     15332     15334     15384     15335     15334     15336     15335     15334     15384
     15336     15334     15384     15325     15337     15338     15325     15337     15339
     15325     15337     15340     15338     15337     15339     15338     15337     15340
     15339     15337     15340     15337     15340     15341     15337     15340     15342
     15337     15340     15343     15341     15340     15342     15341     15340     15343
     15342     15340     15343     15340     15343     15344     15340     15343     15345
     15340     15343     15346     15344     15343     15345     15344     15343     15346
     15345     15343     15346     15343     15346     15347     15343     15346     15348
     15343     15346     15349     15347     15346     15348     15347     15346     15349
     15348     15346     15349     15346     15349     15350     15346     15349     15351
     15346     15349     15352     15350     15349     15351     15350     15349     15352
     15351     15349     15352     15349     15352     15353     15349     15352     15354
     15349     15352     15355     15353     15352     15354     15353     15352     15355
     15354     15352     15355     15352     15355     15356     15352     15355     15357
     15356     15355     15357     15355     15357     15358     15355     15357     15359
     15358     15357     15359     15357     15359     15360     15357     15359     15361
     15357     15359     15362     15360     15359     15361     15360     15359     15362
     15361     15359     15362     15359     15362     15363     15359     15362     15364
     15359     15362     15365     15363     15362     15364     15363     15362     15365
     15364     15362     15365     15362     15365     15366     15362     15365     15367
     15362     15365     15368     15366     15365     15367     15366     15365     15368
     15367     15365     15368     15365     15368     15369     15365     15368     15370
     15365     15368     15371     15369     15368     15370     15369     15368     15371
     15370     15368     15371     15368     15371     15372     15368     15371     15373
     15368     15371     15374     15372     15371     15373     15372     15371     15374
     15373     15371     15374     15371     15374     15375     15371     15374     15376
     15371     15374     15377     15375     15374     15376     15375     15374     15377
     15376     15374     15377     15374     15377     15378     15374     15377     15379
     15374     15377     15380     15378     15377     15379     15378     15377     15380
     15379     15377     15380     15377     15380     15381     15377     15380     15382
     15377     15380     15383     15381     15380     15382     15381     15380     15383
     15382     15380     15383     15334     15384     15385     15334     15384     15386
     15334     15384     15387     15385     15384     15386     15385     15384     15387
     15386     15384     15387     15384     15387     15388     15384     15387     15389
     15384     15387     15390     15388     15387     15389     15388     15387     15390
     15389     15387     15390     15387     15390     15391     15387     15390     15392
     15387     15390     15393     15391     15390     15392     15391     15390     15393
     15392     15390     15393     15390     15393     15394     15390     15393     15395
     15390     15393     15396     15394     15393     15395     15394     15393     15396
     15395     15393     15396     15393     15396     15397     15393     15396     15398
     15393     15396     15399     15397     15396     15398     15397     15396     15399
     15398     15396     15399     15396     15399     15400     15396     15399     15401
     15396     15399     15402     15400     15399     15401     15400     15399     15402
     15401     15399     15402     15399     15402     15403     15399     15402     15404
     15399     15402     15405     15403     15402     15404     15403     15402     15405
     15404     15402     15405     15402     15405     15406     15402     15405     15407
     15402     15405     15408     15406     15405     15407     15406     15405     15408
     15407     15405     15408     15405     15408     15409     15405     15408     15410
     15405     15408     15411     15409     15408     15410     15409     15408     15411
     15410     15408     15411     15408     15411     15412     15408     15411     15413
     15408     15411     15414     15412     15411     15413     15412     15411     15414
     15413     15411     15414     15411     15414     15415     15411     15414     15416
     15411     15414     15417     15415     15414     15416     15415     15414     15417
     15416     15414     15417     15414     15417     15418     15414     15417     15419
     15414     15417     15420     15418     15417     15419     15418     15417     15420
     15419     15417     15420     15417     15420     15421     15417     15420     15422
     15417     15420     15423     15421     15420     15422     15421     15420     15423
     15422     15420     15423     15420     15423     15424     15420     15423     15425
     15420     15423     15426     15424     15423     15425     15424     15423     15426
     15425     15423     15426      3472      3471      3473      3472      3471      3474
      3472      3471      3475      3473      3471      3474      3473      3471      3475
      3474      3471      3475      3471      3475      3476      3471      3475      3477
      3471      3475      3478      3476      3475      3477      3476      3475      3478
      3477      3475      3478      3475      3478      3479      3475      3478      3480
      3475      3478      3485      3479      3478      3480      3479      3478      3485
      3480      3478      3485      3482      3481      3483      3482      3481      3484
      3482      3481      3485      3483      3481      3484      3483      3481      3485
      3484      3481      3485      3481      3484      3486      3478      3485      3481
      3484      3486      3487      3484      3486      3488      3484      3486      3489
      3487      3486      3488      3487      3486      3489      3488      3486      3489
      3486      3489      3490      3486      3489      3491      3486      3489      3497
      3490      3489      3491      3490      3489      3497      3491      3489      3497
      3489      3491      3492      3491      3492      3493      3491      3492      3494
      3493      3492      3494      3492      3494      3495      3492      3494      3496
      3492      3494      3506      3495      3494      3496      3495      3494      3506
      3496      3494      3506      3489      3497      3498      3489      3497      3499
      3489      3497      3500      3498      3497      3499      3498      3497      3500
      3499      3497      3500      3497      3500      3501      3500      3501      3502
      3500      3501      3503      3502      3501      3503      3501      3503      3504
      3501      3503      3505      3501      3503      3553      3504      3503      3505
      3504      3503      3553      3505      3503      3553      3494      3506      3507
      3494      3506      3508      3494      3506      3509      3507      3506      3508
      3507      3506      3509      3508      3506      3509      3506      3509      3510
      3506      3509      3511      3506      3509      3512      3510      3509      3511
      3510      3509      3512      3511      3509      3512      3509      3512      3513
      3509      3512      3514      3509      3512      3515      3513      3512      3514
      3513      3512      3515      3514      3512      3515      3512      3515      3516
      3512      3515      3517      3512      3515      3518      3516      3515      3517
      3516      3515      3518      3517      3515      3518      3515      3518      3519
      3515      3518      3520      3515      3518      3521      3519      3518      3520
      3519      3518      3521      3520      3518      3521      3518      3521      3522
      3518      3521      3523      3518      3521      3524      3522      3521      3523
      3522      3521      3524      3523      3521      3524      3521      3524      3525
      3521      3524      3526      3525      3524      3526      3524      3526      3527
      3524      3526      3528      3527      3526      3528      3526      3528      3529
      3526      3528      3530      3526      3528      3531      3529      3528      3530
      3529      3528      3531      3530      3528      3531      3528      3531      3532
      3528      3531      3533      3528      3531      3534      3532      3531      3533
      3532      3531      3534      3533      3531      3534      3531      3534      3535
      3531      3534      3536      3531      3534      3537      3535      3534      3536
      3535      3534      3537      3536      3534      3537      3534      3537      3538
      3534      3537      3539      3534      3537      3540      3538      3537      3539
      3538      3537      3540      3539      3537      3540      3537      3540      3541
      3537      3540      3542      3537      3540      3543      3541      3540      3542
      3541      3540      3543      3542      3540      3543      3540      3543      3544
      3540      3543      3545      3540      3543      3546      3544      3543      3545
      3544      3543      3546      3545      3543      3546      3543      3546      3547
      3543      3546      3548      3543      3546      3549      3547      3546      3548
      3547      3546      3549      3548      3546      3549      3546      3549      3550
      3546      3549      3551      3546      3549      3552      3550      3549      3551
      3550      3549      3552      3551      3549      3552      3503      3553      3554
      3503      3553      3555      3503      3553      3556      3554      3553      3555
      3554      3553      3556      3555      3553      3556      3553      3556      3557
      3553      3556      3558      3553      3556      3559      3557      3556      3558
      3557      3556      3559      3558      3556      3559      3556      3559      3560
      3556      3559      3561      3556      3559      3562      3560      3559      3561
      3560      3559      3562      3561      3559      3562      3559      3562      3563
      3559      3562      3564      3559      3562      3565      3563      3562      3564
      3563      3562      3565      3564      3562      3565      3562      3565      3566
      3562      3565      3567      3562      3565      3568      3566      3565      3567
      3566      3565      3568      3567      3565      3568      3565      3568      3569
      3565      3568      3570      3565      3568      3571      3569      3568      3570
      3569      3568      3571      3570      3568      3571      3568      3571      3572
      3568      3571      3573      3568      3571      3574      3572      3571      3573
      3572      3571      3574      3573      3571      3574      3571      3574      3575
      3571      3574      3576      3571      3574      3577      3575      3574      3576
      3575      3574      3577      3576      3574      3577      3574      3577      3578
      3574      3577      3579      3574      3577      3580      3578      3577      3579
      3578      3577      3580      3579      3577      3580      3577      3580      3581
      3577      3580      3582      3577      3580      3583      3581      3580      3582
      3581      3580      3583      3582      3580      3583      3580      3583      3584
      3580      3583      3585      3580      3583      3586      3584      3583      3585
      3584      3583      3586      3585      3583      3586      3583      3586      3587
      3583      3586      3588      3583      3586      3589      3587      3586      3588
      3587      3586      3589      3588      3586      3589      3586      3589      3590
      3586      3589      3591      3586      3589      3592      3590      3589      3591
      3590      3589      3592      3591      3589      3592      3589      3592      3593
      3589      3592      3594      3589      3592      3595      3593      3592      3594
      3593      3592      3595      3594      3592      3595      3597      3596      3598
      3597      3596      3599      3597      3596      3600      3598      3596      3599
      3598      3596      3600      3599      3596      3600      3596      3600      3601
      3596      3600      3602      3596      3600      3603      3601      3600      3602
      3601      3600      3603      3602      3600      3603      3600      3603      3604
      3600      3603      3605      3600      3603      3610      3604      3603      3605
      3604      3603      3610      3605      3603      3610      3607      3606      3608
      3607      3606      3609      3607      3606      3610      3608      3606      3609
      3608      3606      3610      3609      3606      3610      3606      3609      3611
      3603      3610      3606      3609      3611      3612      3609      3611      3613
      3609      3611      3614      3612      3611      3613      3612      3611      3614
      3613      3611      3614      3611      3614      3615      3611      3614      3616
      3611      3614      3622      3615      3614      3616      3615      3614      3622
      3616      3614      3622      3614      3616      3617      3616      3617      3618
      3616      3617      3619      3618      3617      3619      3617      3619      3620
      3617      3619      3621      3617      3619      3631      3620      3619      3621
      3620      3619      3631      3621      3619      3631      3614      3622      3623
      3614      3622      3624      3614      3622      3625      3623      3622      3624
      3623      3622      3625      3624      3622      3625      3622      3625      3626
      3625      3626      3627      3625      3626      3628      3627      3626      3628
      3626      3628      3629      3626      3628      3630      3626      3628      3678
      3629      3628      3630      3629      3628      3678      3630      3628      3678
      3619      3631      3632      3619      3631      3633      3619      3631      3634
      3632      3631      3633      3632      3631      3634      3633      3631      3634
      3631      3634      3635      3631      3634      3636      3631      3634      3637
      3635      3634      3636      3635      3634      3637      3636      3634      3637
      3634      3637      3638      3634      3637      3639      3634      3637      3640
      3638      3637      3639      3638      3637      3640      3639      3637      3640
      3637      3640      3641      3637      3640      3642      3637      3640      3643
      3641      3640      3642      3641      3640      3643      3642      3640      3643
      3640      3643      3644      3640      3643      3645      3640      3643      3646
      3644      3643      3645      3644      3643      3646      3645      3643      3646
      3643      3646      3647      3643      3646      3648      3643      3646      3649
      3647      3646      3648      3647      3646      3649      3648      3646      3649
      3646      3649      3650      3646      3649      3651      3650      3649      3651
      3649      3651      3652      3649      3651      3653      3652      3651      3653
      3651      3653      3654      3651      3653      3655      3651      3653      3656
      3654      3653      3655      3654      3653      3656      3655      3653      3656
      3653      3656      3657      3653      3656      3658      3653      3656      3659
      3657      3656      3658      3657      3656      3659      3658      3656      3659
      3656      3659      3660      3656      3659      3661      3656      3659      3662
      3660      3659      3661      3660      3659      3662      3661      3659      3662
      3659      3662      3663      3659      3662      3664      3659      3662      3665
      3663      3662      3664      3663      3662      3665      3664      3662      3665
      3662      3665      3666      3662      3665      3667      3662      3665      3668
      3666      3665      3667      3666      3665      3668      3667      3665      3668
      3665      3668      3669      3665      3668      3670      3665      3668      3671
      3669      3668      3670      3669      3668      3671      3670      3668      3671
      3668      3671      3672      3668      3671      3673      3668      3671      3674
      3672      3671      3673      3672      3671      3674      3673      3671      3674
      3671      3674      3675      3671      3674      3676      3671      3674      3677
      3675      3674      3676      3675      3674      3677      3676      3674      3677
      3628      3678      3679      3628      3678      3680      3628      3678      3681
      3679      3678      3680      3679      3678      3681      3680      3678      3681
      3678      3681      3682      3678      3681      3683      3678      3681      3684
      3682      3681      3683      3682      3681      3684      3683      3681      3684
      3681      3684      3685      3681      3684      3686      3681      3684      3687
      3685      3684      3686      3685      3684      3687      3686      3684      3687
      3684      3687      3688      3684      3687      3689      3684      3687      3690
      3688      3687      3689      3688      3687      3690      3689      3687      3690
      3687      3690      3691      3687      3690      3692      3687      3690      3693
      3691      3690      3692      3691      3690      3693      3692      3690      3693
      3690      3693      3694      3690      3693      3695      3690      3693      3696
      3694      3693      3695      3694      3693      3696      3695      3693      3696
      3693      3696      3697      3693      3696      3698      3693      3696      3699
      3697      3696      3698      3697      3696      3699      3698      3696      3699
      3696      3699      3700      3696      3699      3701      3696      3699      3702
      3700      3699      3701      3700      3699      3702      3701      3699      3702
      3699      3702      3703      3699      3702      3704      3699      3702      3705
      3703      3702      3704      3703      3702      3705      3704      3702      3705
      3702      3705      3706      3702      3705      3707      3702      3705      3708
      3706      3705      3707      3706      3705      3708      3707      3705      3708
      3705      3708      3709      3705      3708      3710      3705      3708      3711
      3709      3708      3710      3709      3708      3711      3710      3708      3711
      3708      3711      3712      3708      3711      3713      3708      3711      3714
      3712      3711      3713      3712      3711      3714      3713      3711      3714
      3711      3714      3715      3711      3714      3716      3711      3714      3717
      3715      3714      3716      3715      3714      3717      3716      3714      3717
      3714      3717      3718      3714      3717      3719      3714      3717      3720
      3718      3717      3719      3718      3717      3720      3719      3717      3720
     23343     23342     23347     23343     23342     23351     23343     23342     23355
     23347     23342     23351     23347     23342     23355     23351     23342     23355
     23342     23343     23344     23342     23343     23345     23342     23343     23346
     23344     23343     23345     23344     23343     23346     23345     23343     23346
     23342     23347     23348     23342     23347     23349     23342     23347     23350
     23348     23347     23349     23348     23347     23350     23349     23347     23350
     23342     23351     23352     23342     23351     23353     23342     23351     23354
     23352     23351     23353     23352     23351     23354     23353     23351     23354
     23342     23355     23356     23342     23355     23357     23342     23355     23358
     23356     23355     23357     23356     23355     23358     23357     23355     23358
     23355     23358     23359     23355     23358     23360     23355     23358     23365
     23359     23358     23360     23359     23358     23365     23360     23358     23365
     23362     23361     23363     23362     23361     23364     23362     23361     23365
     23363     23361     23364     23363     23361     23365     23364     23361     23365
     23361     23364     23366     23358     23365     23361     23364     23366     23367
     23364     23366     23368     23364     23366     23371     23367     23366     23368
     23367     23366     23371     23368     23366     23371     23370     23369     23371
     23370     23369     23421     23371     23369     23421     23366     23371     23369
     23366     23371     23372     23366     23371     23373     23369     23371     23372
     23369     23371     23373     23372     23371     23373     23371     23373     23374
     23371     23373     23375     23371     23373     23377     23374     23373     23375
     23374     23373     23377     23375     23373     23377     23373     23375     23376
     23373     23377     23378     23373     23377     23379     23378     23377     23379
     23377     23379     23380     23377     23379     23381     23380     23379     23381
     23379     23381     23382     23379     23381     23383     23379     23381     23384
     23382     23381     23383     23382     23381     23384     23383     23381     23384
     23381     23384     23385     23381     23384     23386     23381     23384     23387
     23385     23384     23386     23385     23384     23387     23386     23384     23387
     23384     23387     23388     23384     23387     23389     23384     23387     23390
     23388     23387     23389     23388     23387     23390     23389     23387     23390
     23387     23390     23391     23387     23390     23392     23387     23390     23393
     23391     23390     23392     23391     23390     23393     23392     23390     23393
     23390     23393     23394     23390     23393     23395     23390     23393     23396
     23394     23393     23395     23394     23393     23396     23395     23393     23396
     23393     23396     23397     23393     23396     23398     23393     23396     23399
     23397     23396     23398     23397     23396     23399     23398     23396     23399
     23396     23399     23400     23396     23399     23401     23396     23399     23402
     23400     23399     23401     23400     23399     23402     23401     23399     23402
     23399     23402     23403     23399     23402     23404     23399     23402     23405
     23403     23402     23404     23403     23402     23405     23404     23402     23405
     23402     23405     23406     23402     23405     23407     23402     23405     23408
     23406     23405     23407     23406     23405     23408     23407     23405     23408
     23405     23408     23409     23405     23408     23410     23405     23408     23411
     23409     23408     23410     23409     23408     23411     23410     23408     23411
     23408     23411     23412     23408     23411     23413     23408     23411     23414
     23412     23411     23413     23412     23411     23414     23413     23411     23414
     23411     23414     23415     23411     23414     23416     23411     23414     23417
     23415     23414     23416     23415     23414     23417     23416     23414     23417
     23414     23417     23418     23414     23417     23419     23414     23417     23420
     23418     23417     23419     23418     23417     23420     23419     23417     23420
     23369     23421     23422     23369     23421     23423     23422     23421     23423
     23421     23423     23424     23421     23423     23425     23421     23423     23426
     23424     23423     23425     23424     23423     23426     23425     23423     23426
     23423     23426     23427     23423     23426     23428     23423     23426     23429
     23427     23426     23428     23427     23426     23429     23428     23426     23429
     23426     23429     23430     23426     23429     23431     23426     23429     23432
     23430     23429     23431     23430     23429     23432     23431     23429     23432
     23429     23432     23433     23429     23432     23434     23429     23432     23435
     23433     23432     23434     23433     23432     23435     23434     23432     23435
     23432     23435     23436     23432     23435     23437     23432     23435     23438
     23436     23435     23437     23436     23435     23438     23437     23435     23438
     23435     23438     23439     23435     23438     23440     23435     23438     23441
     23439     23438     23440     23439     23438     23441     23440     23438     23441
     23438     23441     23442     23438     23441     23443     23438     23441     23444
     23442     23441     23443     23442     23441     23444     23443     23441     23444
     23441     23444     23445     23441     23444     23446     23441     23444     23447
     23445     23444     23446     23445     23444     23447     23446     23444     23447
     23444     23447     23448     23444     23447     23449     23444     23447     23450
     23448     23447     23449     23448     23447     23450     23449     23447     23450
     23447     23450     23451     23447     23450     23452     23447     23450     23453
     23451     23450     23452     23451     23450     23453     23452     23450     23453
     23450     23453     23454     23450     23453     23455     23450     23453     23456
     23454     23453     23455     23454     23453     23456     23455     23453     23456
     23453     23456     23457     23453     23456     23458     23453     23456     23459
     23457     23456     23458     23457     23456     23459     23458     23456     23459
     23456     23459     23460     23456     23459     23461     23456     23459     23462
     23460     23459     23461     23460     23459     23462     23461     23459     23462
     23459     23462     23463     23459     23462     23464     23459     23462     23465
     23463     23462     23464     23463     23462     23465     23464     23462     23465
     23462     23465     23466     23462     23465     23467     23462     23465     23468
     23466     23465     23467     23466     23465     23468     23467     23465     23468
     15428     15427     15431     15428     15427     15435     15428     15427     15439
     15431     15427     15435     15431     15427     15439     15435     15427     15439
     15427     15428     15429     15427     15428     15430     15427     15428     15443
     15429     15428     15430     15429     15428     15443     15430     15428     15443
     15427     15431     15432     15427     15431     15433     15427     15431     15434
     15432     15431     15433     15432     15431     15434     15433     15431     15434
     15427     15435     15436     15427     15435     15437     15427     15435     15438
     15436     15435     15437     15436     15435     15438     15437     15435     15438
     15427     15439     15440     15427     15439     15441     15427     15439     15442
     15440     15439     15441     15440     15439     15442     15441     15439     15442
     15428     15443     15444     15428     15443     15445     15428     15443     15449
     15444     15443     15445     15444     15443     15449     15445     15443     15449
     15447     15446     15448     15447     15446     15449     15447     15446     15450
     15448     15446     15449     15448     15446     15450     15449     15446     15450
     15443     15449     15446     15446     15450     15451     15450     15451     15452
     15450     15451     15453     15450     15451     15454     15452     15451     15453
     15452     15451     15454     15453     15451     15454     15451     15454     15455
     15451     15454     15456     15451     15454     15462     15455     15454     15456
     15455     15454     15462     15456     15454     15462     15454     15456     15457
     15456     15457     15458     15456     15457     15459     15458     15457     15459
     15457     15459     15460     15457     15459     15461     15457     15459     15471
     15460     15459     15461     15460     15459     15471     15461     15459     15471
     15454     15462     15463     15454     15462     15464     15454     15462     15465
     15463     15462     15464     15463     15462     15465     15464     15462     15465
     15462     15465     15466     15465     15466     15467     15465     15466     15468
     15467     15466     15468     15466     15468     15469     15466     15468     15470
     15466     15468     15518     15469     15468     15470     15469     15468     15518
     15470     15468     15518     15459     15471     15472     15459     15471     15473
     15459     15471     15474     15472     15471     15473     15472     15471     15474
     15473     15471     15474     15471     15474     15475     15471     15474     15476
     15471     15474     15477     15475     15474     15476     15475     15474     15477
     15476     15474     15477     15474     15477     15478     15474     15477     15479
     15474     15477     15480     15478     15477     15479     15478     15477     15480
     15479     15477     15480     15477     15480     15481     15477     15480     15482
     15477     15480     15483     15481     15480     15482     15481     15480     15483
     15482     15480     15483     15480     15483     15484     15480     15483     15485
     15480     15483     15486     15484     15483     15485     15484     15483     15486
     15485     15483     15486     15483     15486     15487     15483     15486     15488
     15483     15486     15489     15487     15486     15488     15487     15486     15489
     15488     15486     15489     15486     15489     15490     15486     15489     15491
     15490     15489     15491     15489     15491     15492     15489     15491     15493
     15492     15491     15493     15491     15493     15494     15491     15493     15495
     15491     15493     15496     15494     15493     15495     15494     15493     15496
     15495     15493     15496     15493     15496     15497     15493     15496     15498
     15493     15496     15499     15497     15496     15498     15497     15496     15499
     15498     15496     15499     15496     15499     15500     15496     15499     15501
     15496     15499     15502     15500     15499     15501     15500     15499     15502
     15501     15499     15502     15499     15502     15503     15499     15502     15504
     15499     15502     15505     15503     15502     15504     15503     15502     15505
     15504     15502     15505     15502     15505     15506     15502     15505     15507
     15502     15505     15508     15506     15505     15507     15506     15505     15508
     15507     15505     15508     15505     15508     15509     15505     15508     15510
     15505     15508     15511     15509     15508     15510     15509     15508     15511
     15510     15508     15511     15508     15511     15512     15508     15511     15513
     15508     15511     15514     15512     15511     15513     15512     15511     15514
     15513     15511     15514     15511     15514     15515     15511     15514     15516
     15511     15514     15517     15515     15514     15516     15515     15514     15517
     15516     15514     15517     15468     15518     15519     15468     15518     15520
     15468     15518     15521     15519     15518     15520     15519     15518     15521
     15520     15518     15521     15518     15521     15522     15518     15521     15523
     15518     15521     15524     15522     15521     15523     15522     15521     15524
     15523     15521     15524     15521     15524     15525     15521     15524     15526
     15521     15524     15527     15525     15524     15526     15525     15524     15527
     15526     15524     15527     15524     15527     15528     15524     15527     15529
     15524     15527     15530     15528     15527     15529     15528     15527     15530
     15529     15527     15530     15527     15530     15531     15527     15530     15532
     15527     15530     15533     15531     15530     15532     15531     15530     15533
     15532     15530     15533     15530     15533     15534     15530     15533     15535
     15530     15533     15536     15534     15533     15535     15534     15533     15536
     15535     15533     15536     15533     15536     15537     15533     15536     15538
     15533     15536     15539     15537     15536     15538     15537     15536     15539
     15538     15536     15539     15536     15539     15540     15536     15539     15541
     15536     15539     15542     15540     15539     15541     15540     15539     15542
     15541     15539     15542     15539     15542     15543     15539     15542     15544
     15539     15542     15545     15543     15542     15544     15543     15542     15545
     15544     15542     15545     15542     15545     15546     15542     15545     15547
     15542     15545     15548     15546     15545     15547     15546     15545     15548
     15547     15545     15548     15545     15548     15549     15545     15548     15550
     15545     15548     15551     15549     15548     15550     15549     15548     15551
     15550     15548     15551     15548     15551     15552     15548     15551     15553
     15548     15551     15554     15552     15551     15553     15552     15551     15554
     15553     15551     15554     15551     15554     15555     15551     15554     15556
     15551     15554     15557     15555     15554     15556     15555     15554     15557
     15556     15554     15557     15554     15557     15558     15554     15557     15559
     15554     15557     15560     15558     15557     15559     15558     15557     15560
     15559     15557     15560      3722      3721      3723      3722      3721      3724
      3722      3721      3725      3723      3721      3724      3723      3721      3725
      3724      3721      3725      3721      3725      3726      3721      3725      3727
      3721      3725      3728      3726      3725      3727      3726      3725      3728
      3727      3725      3728      3725      3728      3729      3725      3728      3730
      3725      3728      3735      3729      3728      3730      3729      3728      3735
      3730      3728      3735      3732      3731      3733      3732      3731      3734
      3732      3731      3735      3733      3731      3734      3733      3731      3735
      3734      3731      3735      3731      3734      3736      3728      3735      3731
      3734      3736      3737      3734      3736      3738      3734      3736      3739
      3737      3736      3738      3737      3736      3739      3738      3736      3739
      3736      3739      3740      3736      3739      3741      3736      3739      3747
      3740      3739      3741      3740      3739      3747      3741      3739      3747
      3739      3741      3742      3741      3742      3743      3741      3742      3744
      3743      3742      3744      3742      3744      3745      3742      3744      3746
      3742      3744      3756      3745      3744      3746      3745      3744      3756
      3746      3744      3756      3739      3747      3748      3739      3747      3749
      3739      3747      3750      3748      3747      3749      3748      3747      3750
      3749      3747      3750      3747      3750      3751      3750      3751      3752
      3750      3751      3753      3752      3751      3753      3751      3753      3754
      3751      3753      3755      3751      3753      3803      3754      3753      3755
      3754      3753      3803      3755      3753      3803      3744      3756      3757
      3744      3756      3758      3744      3756      3759      3757      3756      3758
      3757      3756      3759      3758      3756      3759      3756      3759      3760
      3756      3759      3761      3756      3759      3762      3760      3759      3761
      3760      3759      3762      3761      3759      3762      3759      3762      3763
      3759      3762      3764      3759      3762      3765      3763      3762      3764
      3763      3762      3765      3764      3762      3765      3762      3765      3766
      3762      3765      3767      3762      3765      3768      3766      3765      3767
      3766      3765      3768      3767      3765      3768      3765      3768      3769
      3765      3768      3770      3765      3768      3771      3769      3768      3770
      3769      3768      3771      3770      3768      3771      3768      3771      3772
      3768      3771      3773      3768      3771      3774      3772      3771      3773
      3772      3771      3774      3773      3771      3774      3771      3774      3775
      3771      3774      3776      3775      3774      3776      3774      3776      3777
      3774      3776      3778      3777      3776      3778      3776      3778      3779
      3776      3778      3780      3776      3778      3781      3779      3778      3780
      3779      3778      3781      3780      3778      3781      3778      3781      3782
      3778      3781      3783      3778      3781      3784      3782      3781      3783
      3782      3781      3784      3783      3781      3784      3781      3784      3785
      3781      3784      3786      3781      3784      3787      3785      3784      3786
      3785      3784      3787      3786      3784      3787      3784      3787      3788
      3784      3787      3789      3784      3787      3790      3788      3787      3789
      3788      3787      3790      3789      3787      3790      3787      3790      3791
      3787      3790      3792      3787      3790      3793      3791      3790      3792
      3791      3790      3793      3792      3790      3793      3790      3793      3794
      3790      3793      3795      3790      3793      3796      3794      3793      3795
      3794      3793      3796      3795      3793      3796      3793      3796      3797
      3793      3796      3798      3793      3796      3799      3797      3796      3798
      3797      3796      3799      3798      3796      3799      3796      3799      3800
      3796      3799      3801      3796      3799      3802      3800      3799      3801
      3800      3799      3802      3801      3799      3802      3753      3803      3804
      3753      3803      3805      3753      3803      3806      3804      3803      3805
      3804      3803      3806      3805      3803      3806      3803      3806      3807
      3803      3806      3808      3803      3806      3809      3807      3806      3808
      3807      3806      3809      3808      3806      3809      3806      3809      3810
      3806      3809      3811      3806      3809      3812      3810      3809      3811
      3810      3809      3812      3811      3809      3812      3809      3812      3813
      3809      3812      3814      3809      3812      3815      3813      3812      3814
      3813      3812      3815      3814      3812      3815      3812      3815      3816
      3812      3815      3817      3812      3815      3818      3816      3815      3817
      3816      3815      3818      3817      3815      3818      3815      3818      3819
      3815      3818      3820      3815      3818      3821      3819      3818      3820
      3819      3818      3821      3820      3818      3821      3818      3821      3822
      3818      3821      3823      3818      3821      3824      3822      3821      3823
      3822      3821      3824      3823      3821      3824      3821      3824      3825
      3821      3824      3826      3821      3824      3827      3825      3824      3826
      3825      3824      3827      3826      3824      3827      3824      3827      3828
      3824      3827      3829      3824      3827      3830      3828      3827      3829
      3828      3827      3830      3829      3827      3830      3827      3830      3831
      3827      3830      3832      3827      3830      3833      3831      3830      3832
      3831      3830      3833      3832      3830      3833      3830      3833      3834
      3830      3833      3835      3830      3833      3836      3834      3833      3835
      3834      3833      3836      3835      3833      3836      3833      3836      3837
      3833      3836      3838      3833      3836      3839      3837      3836      3838
      3837      3836      3839      3838      3836      3839      3836      3839      3840
      3836      3839      3841      3836      3839      3842      3840      3839      3841
      3840      3839      3842      3841      3839      3842      3839      3842      3843
      3839      3842      3844      3839      3842      3845      3843      3842      3844
      3843      3842      3845      3844      3842      3845     23470     23469     23474
     23470     23469     23478     23470     23469     23482     23474     23469     23478
     23474     23469     23482     23478     23469     23482     23469     23470     23471
     23469     23470     23472     23469     23470     23473     23471     23470     23472
     23471     23470     23473     23472     23470     23473     23469     23474     23475
     23469     23474     23476     23469     23474     23477     23475     23474     23476
     23475     23474     23477     23476     23474     23477     23469     23478     23479
     23469     23478     23480     23469     23478     23481     23479     23478     23480
     23479     23478     23481     23480     23478     23481     23469     23482     23483
     23469     23482     23484     23469     23482     23485     23483     23482     23484
     23483     23482     23485     23484     23482     23485     23482     23485     23486
     23482     23485     23487     23482     23485     23492     23486     23485     23487
     23486     23485     23492     23487     23485     23492     23489     23488     23490
     23489     23488     23491     23489     23488     23492     23490     23488     23491
     23490     23488     23492     23491     23488     23492     23488     23491     23493
     23485     23492     23488     23491     23493     23494     23491     23493     23495
     23491     23493     23498     23494     23493     23495     23494     23493     23498
     23495     23493     23498     23497     23496     23498     23497     23496     23548
     23498     23496     23548     23493     23498     23496     23493     23498     23499
     23493     23498     23500     23496     23498     23499     23496     23498     23500
     23499     23498     23500     23498     23500     23501     23498     23500     23502
     23498     23500     23504     23501     23500     23502     23501     23500     23504
     23502     23500     23504     23500     23502     23503     23500     23504     23505
     23500     23504     23506     23505     23504     23506     23504     23506     23507
     23504     23506     23508     23507     23506     23508     23506     23508     23509
     23506     23508     23510     23506     23508     23511     23509     23508     23510
     23509     23508     23511     23510     23508     23511     23508     23511     23512
     23508     23511     23513     23508     23511     23514     23512     23511     23513
     23512     23511     23514     23513     23511     23514     23511     23514     23515
     23511     23514     23516     23511     23514     23517     23515     23514     23516
     23515     23514     23517     23516     23514     23517     23514     23517     23518
     23514     23517     23519     23514     23517     23520     23518     23517     23519
     23518     23517     23520     23519     23517     23520     23517     23520     23521
     23517     23520     23522     23517     23520     23523     23521     23520     23522
     23521     23520     23523     23522     23520     23523     23520     23523     23524
     23520     23523     23525     23520     23523     23526     23524     23523     23525
     23524     23523     23526     23525     23523     23526     23523     23526     23527
     23523     23526     23528     23523     23526     23529     23527     23526     23528
     23527     23526     23529     23528     23526     23529     23526     23529     23530
     23526     23529     23531     23526     23529     23532     23530     23529     23531
     23530     23529     23532     23531     23529     23532     23529     23532     23533
     23529     23532     23534     23529     23532     23535     23533     23532     23534
     23533     23532     23535     23534     23532     23535     23532     23535     23536
     23532     23535     23537     23532     23535     23538     23536     23535     23537
     23536     23535     23538     23537     23535     23538     23535     23538     23539
     23535     23538     23540     23535     23538     23541     23539     23538     23540
     23539     23538     23541     23540     23538     23541     23538     23541     23542
     23538     23541     23543     23538     23541     23544     23542     23541     23543
     23542     23541     23544     23543     23541     23544     23541     23544     23545
     23541     23544     23546     23541     23544     23547     23545     23544     23546
     23545     23544     23547     23546     23544     23547     23496     23548     23549
     23496     23548     23550     23549     23548     23550     23548     23550     23551
     23548     23550     23552     23548     23550     23553     23551     23550     23552
     23551     23550     23553     23552     23550     23553     23550     23553     23554
     23550     23553     23555     23550     23553     23556     23554     23553     23555
     23554     23553     23556     23555     23553     23556     23553     23556     23557
     23553     23556     23558     23553     23556     23559     23557     23556     23558
     23557     23556     23559     23558     23556     23559     23556     23559     23560
     23556     23559     23561     23556     23559     23562     23560     23559     23561
     23560     23559     23562     23561     23559     23562     23559     23562     23563
     23559     23562     23564     23559     23562     23565     23563     23562     23564
     23563     23562     23565     23564     23562     23565     23562     23565     23566
     23562     23565     23567     23562     23565     23568     23566     23565     23567
     23566     23565     23568     23567     23565     23568     23565     23568     23569
     23565     23568     23570     23565     23568     23571     23569     23568     23570
     23569     23568     23571     23570     23568     23571     23568     23571     23572
     23568     23571     23573     23568     23571     23574     23572     23571     23573
     23572     23571     23574     23573     23571     23574     23571     23574     23575
     23571     23574     23576     23571     23574     23577     23575     23574     23576
     23575     23574     23577     23576     23574     23577     23574     23577     23578
     23574     23577     23579     23574     23577     23580     23578     23577     23579
     23578     23577     23580     23579     23577     23580     23577     23580     23581
     23577     23580     23582     23577     23580     23583     23581     23580     23582
     23581     23580     23583     23582     23580     23583     23580     23583     23584
     23580     23583     23585     23580     23583     23586     23584     23583     23585
     23584     23583     23586     23585     23583     23586     23583     23586     23587
     23583     23586     23588     23583     23586     23589     23587     23586     23588
     23587     23586     23589     23588     23586     23589     23586     23589     23590
     23586     23589     23591     23586     23589     23592     23590     23589     23591
     23590     23589     23592     23591     23589     23592     23589     23592     23593
     23589     23592     23594     23589     23592     23595     23593     23592     23594
     23593     23592     23595     23594     23592     23595      3847      3846      3848
      3847      3846      3849      3847      3846      3850      3848      3846      3849
      3848      3846      3850      3849      3846      3850      3846      3850      3851
      3846      3850      3852      3846      3850      3853      3851      3850      3852
      3851      3850      3853      3852      3850      3853      3850      3853      3854
      3850      3853      3855      3850      3853      3860      3854      3853      3855
      3854      3853      3860      3855      3853      3860      3857      3856      3858
      3857      3856      3859      3857      3856      3860      3858      3856      3859
      3858      3856      3860      3859      3856      3860      3856      3859      3861
      3853      3860      3856      3859      3861      3862      3859      3861      3863
      3859      3861      3864      3862      3861      3863      3862      3861      3864
      3863      3861      3864      3861      3864      3865      3861      3864      3866
      3861      3864      3872      3865      3864      3866      3865      3864      3872
      3866      3864      3872      3864      3866      3867      3866      3867      3868
      3866      3867      3869      3868      3867      3869      3867      3869      3870
      3867      3869      3871      3867      3869      3881      3870      3869      3871
      3870      3869      3881      3871      3869      3881      3864      3872      3873
      3864      3872      3874      3864      3872      3875      3873      3872      3874
      3873      3872      3875      3874      3872      3875      3872      3875      3876
      3875      3876      3877      3875      3876      3878      3877      3876      3878
      3876      3878      3879      3876      3878      3880      3876      3878      3928
      3879      3878      3880      3879      3878      3928      3880      3878      3928
      3869      3881      3882      3869      3881      3883      3869      3881      3884
      3882      3881      3883      3882      3881      3884      3883      3881      3884
      3881      3884      3885      3881      3884      3886      3881      3884      3887
      3885      3884      3886      3885      3884      3887      3886      3884      3887
      3884      3887      3888      3884      3887      3889      3884      3887      3890
      3888      3887      3889      3888      3887      3890      3889      3887      3890
      3887      3890      3891      3887      3890      3892      3887      3890      3893
      3891      3890      3892      3891      3890      3893      3892      3890      3893
      3890      3893      3894      3890      3893      3895      3890      3893      3896
      3894      3893      3895      3894      3893      3896      3895      3893      3896
      3893      3896      3897      3893      3896      3898      3893      3896      3899
      3897      3896      3898      3897      3896      3899      3898      3896      3899
      3896      3899      3900      3896      3899      3901      3900      3899      3901
      3899      3901      3902      3899      3901      3903      3902      3901      3903
      3901      3903      3904      3901      3903      3905      3901      3903      3906
      3904      3903      3905      3904      3903      3906      3905      3903      3906
      3903      3906      3907      3903      3906      3908      3903      3906      3909
      3907      3906      3908      3907      3906      3909      3908      3906      3909
      3906      3909      3910      3906      3909      3911      3906      3909      3912
      3910      3909      3911      3910      3909      3912      3911      3909      3912
      3909      3912      3913      3909      3912      3914      3909      3912      3915
      3913      3912      3914      3913      3912      3915      3914      3912      3915
      3912      3915      3916      3912      3915      3917      3912      3915      3918
      3916      3915      3917      3916      3915      3918      3917      3915      3918
      3915      3918      3919      3915      3918      3920      3915      3918      3921
      3919      3918      3920      3919      3918      3921      3920      3918      3921
      3918      3921      3922      3918      3921      3923      3918      3921      3924
      3922      3921      3923      3922      3921      3924      3923      3921      3924
      3921      3924      3925      3921      3924      3926      3921      3924      3927
      3925      3924      3926      3925      3924      3927      3926      3924      3927
      3878      3928      3929      3878      3928      3930      3878      3928      3931
      3929      3928      3930      3929      3928      3931      3930      3928      3931
      3928      3931      3932      3928      3931      3933      3928      3931      3934
      3932      3931      3933      3932      3931      3934      3933      3931      3934
      3931      3934      3935      3931      3934      3936      3931      3934      3937
      3935      3934      3936      3935      3934      3937      3936      3934      3937
      3934      3937      3938      3934      3937      3939      3934      3937      3940
      3938      3937      3939      3938      3937      3940      3939      3937      3940
      3937      3940      3941      3937      3940      3942      3937      3940      3943
      3941      3940      3942      3941      3940      3943      3942      3940      3943
      3940      3943      3944      3940      3943      3945      3940      3943      3946
      3944      3943      3945      3944      3943      3946      3945      3943      3946
      3943      3946      3947      3943      3946      3948      3943      3946      3949
      3947      3946      3948      3947      3946      3949      3948      3946      3949
      3946      3949      3950      3946      3949      3951      3946      3949      3952
      3950      3949      3951      3950      3949      3952      3951      3949      3952
      3949      3952      3953      3949      3952      3954      3949      3952      3955
      3953      3952      3954      3953      3952      3955      3954      3952      3955
      3952      3955      3956      3952      3955      3957      3952      3955      3958
      3956      3955      3957      3956      3955      3958      3957      3955      3958
      3955      3958      3959      3955      3958      3960      3955      3958      3961
      3959      3958      3960      3959      3958      3961      3960      3958      3961
      3958      3961      3962      3958      3961      3963      3958      3961      3964
      3962      3961      3963      3962      3961      3964      3963      3961      3964
      3961      3964      3965      3961      3964      3966      3961      3964      3967
      3965      3964      3966      3965      3964      3967      3966      3964      3967
      3964      3967      3968      3964      3967      3969      3964      3967      3970
      3968      3967      3969      3968      3967      3970      3969      3967      3970
      3972      3971      3973      3972      3971      3974      3972      3971      3975
      3973      3971      3974      3973      3971      3975      3974      3971      3975
      3971      3975      3976      3971      3975      3977      3971      3975      3978
      3976      3975      3977      3976      3975      3978      3977      3975      3978
      3975      3978      3979      3975      3978      3980      3975      3978      3985
      3979      3978      3980      3979      3978      3985      3980      3978      3985
      3982      3981      3983      3982      3981      3984      3982      3981      3985
      3983      3981      3984      3983      3981      3985      3984      3981      3985
      3981      3984      3986      3978      3985      3981      3984      3986      3987
      3984      3986      3988      3984      3986      3989      3987      3986      3988
      3987      3986      3989      3988      3986      3989      3986      3989      3990
      3986      3989      3991      3986      3989      3997      3990      3989      3991
      3990      3989      3997      3991      3989      3997      3989      3991      3992
      3991      3992      3993      3991      3992      3994      3993      3992      3994
      3992      3994      3995      3992      3994      3996      3992      3994      4006
      3995      3994      3996      3995      3994      4006      3996      3994      4006
      3989      3997      3998      3989      3997      3999      3989      3997      4000
      3998      3997      3999      3998      3997      4000      3999      3997      4000
      3997      4000      4001      4000      4001      4002      4000      4001      4003
      4002      4001      4003      4001      4003      4004      4001      4003      4005
      4001      4003      4053      4004      4003      4005      4004      4003      4053
      4005      4003      4053      3994      4006      4007      3994      4006      4008
      3994      4006      4009      4007      4006      4008      4007      4006      4009
      4008      4006      4009      4006      4009      4010      4006      4009      4011
      4006      4009      4012      4010      4009      4011      4010      4009      4012
      4011      4009      4012      4009      4012      4013      4009      4012      4014
      4009      4012      4015      4013      4012      4014      4013      4012      4015
      4014      4012      4015      4012      4015      4016      4012      4015      4017
      4012      4015      4018      4016      4015      4017      4016      4015      4018
      4017      4015      4018      4015      4018      4019      4015      4018      4020
      4015      4018      4021      4019      4018      4020      4019      4018      4021
      4020      4018      4021      4018      4021      4022      4018      4021      4023
      4018      4021      4024      4022      4021      4023      4022      4021      4024
      4023      4021      4024      4021      4024      4025      4021      4024      4026
      4025      4024      4026      4024      4026      4027      4024      4026      4028
      4027      4026      4028      4026      4028      4029      4026      4028      4030
      4026      4028      4031      4029      4028      4030      4029      4028      4031
      4030      4028      4031      4028      4031      4032      4028      4031      4033
      4028      4031      4034      4032      4031      4033      4032      4031      4034
      4033      4031      4034      4031      4034      4035      4031      4034      4036
      4031      4034      4037      4035      4034      4036      4035      4034      4037
      4036      4034      4037      4034      4037      4038      4034      4037      4039
      4034      4037      4040      4038      4037      4039      4038      4037      4040
      4039      4037      4040      4037      4040      4041      4037      4040      4042
      4037      4040      4043      4041      4040      4042      4041      4040      4043
      4042      4040      4043      4040      4043      4044      4040      4043      4045
      4040      4043      4046      4044      4043      4045      4044      4043      4046
      4045      4043      4046      4043      4046      4047      4043      4046      4048
      4043      4046      4049      4047      4046      4048      4047      4046      4049
      4048      4046      4049      4046      4049      4050      4046      4049      4051
      4046      4049      4052      4050      4049      4051      4050      4049      4052
      4051      4049      4052      4003      4053      4054      4003      4053      4055
      4003      4053      4056      4054      4053      4055      4054      4053      4056
      4055      4053      4056      4053      4056      4057      4053      4056      4058
      4053      4056      4059      4057      4056      4058      4057      4056      4059
      4058      4056      4059      4056      4059      4060      4056      4059      4061
      4056      4059      4062      4060      4059      4061      4060      4059      4062
      4061      4059      4062      4059      4062      4063      4059      4062      4064
      4059      4062      4065      4063      4062      4064      4063      4062      4065
      4064      4062      4065      4062      4065      4066      4062      4065      4067
      4062      4065      4068      4066      4065      4067      4066      4065      4068
      4067      4065      4068      4065      4068      4069      4065      4068      4070
      4065      4068      4071      4069      4068      4070      4069      4068      4071
      4070      4068      4071      4068      4071      4072      4068      4071      4073
      4068      4071      4074      4072      4071      4073      4072      4071      4074
      4073      4071      4074      4071      4074      4075      4071      4074      4076
      4071      4074      4077      4075      4074      4076      4075      4074      4077
      4076      4074      4077      4074      4077      4078      4074      4077      4079
      4074      4077      4080      4078      4077      4079      4078      4077      4080
      4079      4077      4080      4077      4080      4081      4077      4080      4082
      4077      4080      4083      4081      4080      4082      4081      4080      4083
      4082      4080      4083      4080      4083      4084      4080      4083      4085
      4080      4083      4086      4084      4083      4085      4084      4083      4086
      4085      4083      4086      4083      4086      4087      4083      4086      4088
      4083      4086      4089      4087      4086      4088      4087      4086      4089
      4088      4086      4089      4086      4089      4090      4086      4089      4091
      4086      4089      4092      4090      4089      4091      4090      4089      4092
      4091      4089      4092      4089      4092      4093      4089      4092      4094
      4089      4092      4095      4093      4092      4094      4093      4092      4095
      4094      4092      4095     15562     15561     15565     15562     15561     15569
     15562     15561     15573     15565     15561     15569     15565     15561     15573
     15569     15561     15573     15561     15562     15563     15561     15562     15564
     15561     15562     15577     15563     15562     15564     15563     15562     15577
     15564     15562     15577     15561     15565     15566     15561     15565     15567
     15561     15565     15568     15566     15565     15567     15566     15565     15568
     15567     15565     15568     15561     15569     15570     15561     15569     15571
     15561     15569     15572     15570     15569     15571     15570     15569     15572
     15571     15569     15572     15561     15573     15574     15561     15573     15575
     15561     15573     15576     15574     15573     15575     15574     15573     15576
     15575     15573     15576     15562     15577     15578     15562     15577     15579
     15562     15577     15583     15578     15577     15579     15578     15577     15583
     15579     15577     15583     15581     15580     15582     15581     15580     15583
     15581     15580     15584     15582     15580     15583     15582     15580     15584
     15583     15580     15584     15577     15583     15580     15580     15584     15585
     15584     15585     15586     15584     15585     15587     15584     15585     15588
     15586     15585     15587     15586     15585     15588     15587     15585     15588
     15585     15588     15589     15585     15588     15590     15585     15588     15596
     15589     15588     15590     15589     15588     15596     15590     15588     15596
     15588     15590     15591     15590     15591     15592     15590     15591     15593
     15592     15591     15593     15591     15593     15594     15591     15593     15595
     15591     15593     15605     15594     15593     15595     15594     15593     15605
     15595     15593     15605     15588     15596     15597     15588     15596     15598
     15588     15596     15599     15597     15596     15598     15597     15596     15599
     15598     15596     15599     15596     15599     15600     15599     15600     15601
     15599     15600     15602     15601     15600     15602     15600     15602     15603
     15600     15602     15604     15600     15602     15652     15603     15602     15604
     15603     15602     15652     15604     15602     15652     15593     15605     15606
     15593     15605     15607     15593     15605     15608     15606     15605     15607
     15606     15605     15608     15607     15605     15608     15605     15608     15609
     15605     15608     15610     15605     15608     15611     15609     15608     15610
     15609     15608     15611     15610     15608     15611     15608     15611     15612
     15608     15611     15613     15608     15611     15614     15612     15611     15613
     15612     15611     15614     15613     15611     15614     15611     15614     15615
     15611     15614     15616     15611     15614     15617     15615     15614     15616
     15615     15614     15617     15616     15614     15617     15614     15617     15618
     15614     15617     15619     15614     15617     15620     15618     15617     15619
     15618     15617     15620     15619     15617     15620     15617     15620     15621
     15617     15620     15622     15617     15620     15623     15621     15620     15622
     15621     15620     15623     15622     15620     15623     15620     15623     15624
     15620     15623     15625     15624     15623     15625     15623     15625     15626
     15623     15625     15627     15626     15625     15627     15625     15627     15628
     15625     15627     15629     15625     15627     15630     15628     15627     15629
     15628     15627     15630     15629     15627     15630     15627     15630     15631
     15627     15630     15632     15627     15630     15633     15631     15630     15632
     15631     15630     15633     15632     15630     15633     15630     15633     15634
     15630     15633     15635     15630     15633     15636     15634     15633     15635
     15634     15633     15636     15635     15633     15636     15633     15636     15637
     15633     15636     15638     15633     15636     15639     15637     15636     15638
     15637     15636     15639     15638     15636     15639     15636     15639     15640
     15636     15639     15641     15636     15639     15642     15640     15639     15641
     15640     15639     15642     15641     15639     15642     15639     15642     15643
     15639     15642     15644     15639     15642     15645     15643     15642     15644
     15643     15642     15645     15644     15642     15645     15642     15645     15646
     15642     15645     15647     15642     15645     15648     15646     15645     15647
     15646     15645     15648     15647     15645     15648     15645     15648     15649
     15645     15648     15650     15645     15648     15651     15649     15648     15650
     15649     15648     15651     15650     15648     15651     15602     15652     15653
     15602     15652     15654     15602     15652     15655     15653     15652     15654
     15653     15652     15655     15654     15652     15655     15652     15655     15656
     15652     15655     15657     15652     15655     15658     15656     15655     15657
     15656     15655     15658     15657     15655     15658     15655     15658     15659
     15655     15658     15660     15655     15658     15661     15659     15658     15660
     15659     15658     15661     15660     15658     15661     15658     15661     15662
     15658     15661     15663     15658     15661     15664     15662     15661     15663
     15662     15661     15664     15663     15661     15664     15661     15664     15665
     15661     15664     15666     15661     15664     15667     15665     15664     15666
     15665     15664     15667     15666     15664     15667     15664     15667     15668
     15664     15667     15669     15664     15667     15670     15668     15667     15669
     15668     15667     15670     15669     15667     15670     15667     15670     15671
     15667     15670     15672     15667     15670     15673     15671     15670     15672
     15671     15670     15673     15672     15670     15673     15670     15673     15674
     15670     15673     15675     15670     15673     15676     15674     15673     15675
     15674     15673     15676     15675     15673     15676     15673     15676     15677
     15673     15676     15678     15673     15676     15679     15677     15676     15678
     15677     15676     15679     15678     15676     15679     15676     15679     15680
     15676     15679     15681     15676     15679     15682     15680     15679     15681
     15680     15679     15682     15681     15679     15682     15679     15682     15683
     15679     15682     15684     15679     15682     15685     15683     15682     15684
     15683     15682     15685     15684     15682     15685     15682     15685     15686
     15682     15685     15687     15682     15685     15688     15686     15685     15687
     15686     15685     15688     15687     15685     15688     15685     15688     15689
     15685     15688     15690     15685     15688     15691     15689     15688     15690
     15689     15688     15691     15690     15688     15691     15688     15691     15692
     15688     15691     15693     15688     15691     15694     15692     15691     15693
     15692     15691     15694     15693     15691     15694     15696     15695     15699
     15696     15695     15703     15696     15695     15707     15699     15695     15703
     15699     15695     15707     15703     15695     15707     15695     15696     15697
     15695     15696     15698     15695     15696     15711     15697     15696     15698
     15697     15696     15711     15698     15696     15711     15695     15699     15700
     15695     15699     15701     15695     15699     15702     15700     15699     15701
     15700     15699     15702     15701     15699     15702     15695     15703     15704
     15695     15703     15705     15695     15703     15706     15704     15703     15705
     15704     15703     15706     15705     15703     15706     15695     15707     15708
     15695     15707     15709     15695     15707     15710     15708     15707     15709
     15708     15707     15710     15709     15707     15710     15696     15711     15712
     15696     15711     15713     15696     15711     15717     15712     15711     15713
     15712     15711     15717     15713     15711     15717     15715     15714     15716
     15715     15714     15717     15715     15714     15718     15716     15714     15717
     15716     15714     15718     15717     15714     15718     15711     15717     15714
     15714     15718     15719     15718     15719     15720     15718     15719     15721
     15718     15719     15722     15720     15719     15721     15720     15719     15722
     15721     15719     15722     15719     15722     15723     15719     15722     15724
     15719     15722     15730     15723     15722     15724     15723     15722     15730
     15724     15722     15730     15722     15724     15725     15724     15725     15726
     15724     15725     15727     15726     15725     15727     15725     15727     15728
     15725     15727     15729     15725     15727     15739     15728     15727     15729
     15728     15727     15739     15729     15727     15739     15722     15730     15731
     15722     15730     15732     15722     15730     15733     15731     15730     15732
     15731     15730     15733     15732     15730     15733     15730     15733     15734
     15733     15734     15735     15733     15734     15736     15735     15734     15736
     15734     15736     15737     15734     15736     15738     15734     15736     15786
     15737     15736     15738     15737     15736     15786     15738     15736     15786
     15727     15739     15740     15727     15739     15741     15727     15739     15742
     15740     15739     15741     15740     15739     15742     15741     15739     15742
     15739     15742     15743     15739     15742     15744     15739     15742     15745
     15743     15742     15744     15743     15742     15745     15744     15742     15745
     15742     15745     15746     15742     15745     15747     15742     15745     15748
     15746     15745     15747     15746     15745     15748     15747     15745     15748
     15745     15748     15749     15745     15748     15750     15745     15748     15751
     15749     15748     15750     15749     15748     15751     15750     15748     15751
     15748     15751     15752     15748     15751     15753     15748     15751     15754
     15752     15751     15753     15752     15751     15754     15753     15751     15754
     15751     15754     15755     15751     15754     15756     15751     15754     15757
     15755     15754     15756     15755     15754     15757     15756     15754     15757
     15754     15757     15758     15754     15757     15759     15758     15757     15759
     15757     15759     15760     15757     15759     15761     15760     15759     15761
     15759     15761     15762     15759     15761     15763     15759     15761     15764
     15762     15761     15763     15762     15761     15764     15763     15761     15764
     15761     15764     15765     15761     15764     15766     15761     15764     15767
     15765     15764     15766     15765     15764     15767     15766     15764     15767
     15764     15767     15768     15764     15767     15769     15764     15767     15770
     15768     15767     15769     15768     15767     15770     15769     15767     15770
     15767     15770     15771     15767     15770     15772     15767     15770     15773
     15771     15770     15772     15771     15770     15773     15772     15770     15773
     15770     15773     15774     15770     15773     15775     15770     15773     15776
     15774     15773     15775     15774     15773     15776     15775     15773     15776
     15773     15776     15777     15773     15776     15778     15773     15776     15779
     15777     15776     15778     15777     15776     15779     15778     15776     15779
     15776     15779     15780     15776     15779     15781     15776     15779     15782
     15780     15779     15781     15780     15779     15782     15781     15779     15782
     15779     15782     15783     15779     15782     15784     15779     15782     15785
     15783     15782     15784     15783     15782     15785     15784     15782     15785
     15736     15786     15787     15736     15786     15788     15736     15786     15789
     15787     15786     15788     15787     15786     15789     15788     15786     15789
     15786     15789     15790     15786     15789     15791     15786     15789     15792
     15790     15789     15791     15790     15789     15792     15791     15789     15792
     15789     15792     15793     15789     15792     15794     15789     15792     15795
     15793     15792     15794     15793     15792     15795     15794     15792     15795
     15792     15795     15796     15792     15795     15797     15792     15795     15798
     15796     15795     15797     15796     15795     15798     15797     15795     15798
     15795     15798     15799     15795     15798     15800     15795     15798     15801
     15799     15798     15800     15799     15798     15801     15800     15798     15801
     15798     15801     15802     15798     15801     15803     15798     15801     15804
     15802     15801     15803     15802     15801     15804     15803     15801     15804
     15801     15804     15805     15801     15804     15806     15801     15804     15807
     15805     15804     15806     15805     15804     15807     15806     15804     15807
     15804     15807     15808     15804     15807     15809     15804     15807     15810
     15808     15807     15809     15808     15807     15810     15809     15807     15810
     15807     15810     15811     15807     15810     15812     15807     15810     15813
     15811     15810     15812     15811     15810     15813     15812     15810     15813
     15810     15813     15814     15810     15813     15815     15810     15813     15816
     15814     15813     15815     15814     15813     15816     15815     15813     15816
     15813     15816     15817     15813     15816     15818     15813     15816     15819
     15817     15816     15818     15817     15816     15819     15818     15816     15819
     15816     15819     15820     15816     15819     15821     15816     15819     15822
     15820     15819     15821     15820     15819     15822     15821     15819     15822
     15819     15822     15823     15819     15822     15824     15819     15822     15825
     15823     15822     15824     15823     15822     15825     15824     15822     15825
     15822     15825     15826     15822     15825     15827     15822     15825     15828
     15826     15825     15827     15826     15825     15828     15827     15825     15828
     15830     15829     15833     15830     15829     15837     15830     15829     15841
     15833     15829     15837     15833     15829     15841     15837     15829     15841
     15829     15830     15831     15829     15830     15832     15829     15830     15845
     15831     15830     15832     15831     15830     15845     15832     15830     15845
     15829     15833     15834     15829     15833     15835     15829     15833     15836
     15834     15833     15835     15834     15833     15836     15835     15833     15836
     15829     15837     15838     15829     15837     15839     15829     15837     15840
     15838     15837     15839     15838     15837     15840     15839     15837     15840
     15829     15841     15842     15829     15841     15843     15829     15841     15844
     15842     15841     15843     15842     15841     15844     15843     15841     15844
     15830     15845     15846     15830     15845     15847     15830     15845     15851
     15846     15845     15847     15846     15845     15851     15847     15845     15851
     15849     15848     15850     15849     15848     15851     15849     15848     15852
     15850     15848     15851     15850     15848     15852     15851     15848     15852
     15845     15851     15848     15848     15852     15853     15852     15853     15854
     15852     15853     15855     15852     15853     15856     15854     15853     15855
     15854     15853     15856     15855     15853     15856     15853     15856     15857
     15853     15856     15858     15853     15856     15864     15857     15856     15858
     15857     15856     15864     15858     15856     15864     15856     15858     15859
     15858     15859     15860     15858     15859     15861     15860     15859     15861
     15859     15861     15862     15859     15861     15863     15859     15861     15873
     15862     15861     15863     15862     15861     15873     15863     15861     15873
     15856     15864     15865     15856     15864     15866     15856     15864     15867
     15865     15864     15866     15865     15864     15867     15866     15864     15867
     15864     15867     15868     15867     15868     15869     15867     15868     15870
     15869     15868     15870     15868     15870     15871     15868     15870     15872
     15868     15870     15920     15871     15870     15872     15871     15870     15920
     15872     15870     15920     15861     15873     15874     15861     15873     15875
     15861     15873     15876     15874     15873     15875     15874     15873     15876
     15875     15873     15876     15873     15876     15877     15873     15876     15878
     15873     15876     15879     15877     15876     15878     15877     15876     15879
     15878     15876     15879     15876     15879     15880     15876     15879     15881
     15876     15879     15882     15880     15879     15881     15880     15879     15882
     15881     15879     15882     15879     15882     15883     15879     15882     15884
     15879     15882     15885     15883     15882     15884     15883     15882     15885
     15884     15882     15885     15882     15885     15886     15882     15885     15887
     15882     15885     15888     15886     15885     15887     15886     15885     15888
     15887     15885     15888     15885     15888     15889     15885     15888     15890
     15885     15888     15891     15889     15888     15890     15889     15888     15891
     15890     15888     15891     15888     15891     15892     15888     15891     15893
     15892     15891     15893     15891     15893     15894     15891     15893     15895
     15894     15893     15895     15893     15895     15896     15893     15895     15897
     15893     15895     15898     15896     15895     15897     15896     15895     15898
     15897     15895     15898     15895     15898     15899     15895     15898     15900
     15895     15898     15901     15899     15898     15900     15899     15898     15901
     15900     15898     15901     15898     15901     15902     15898     15901     15903
     15898     15901     15904     15902     15901     15903     15902     15901     15904
     15903     15901     15904     15901     15904     15905     15901     15904     15906
     15901     15904     15907     15905     15904     15906     15905     15904     15907
     15906     15904     15907     15904     15907     15908     15904     15907     15909
     15904     15907     15910     15908     15907     15909     15908     15907     15910
     15909     15907     15910     15907     15910     15911     15907     15910     15912
     15907     15910     15913     15911     15910     15912     15911     15910     15913
     15912     15910     15913     15910     15913     15914     15910     15913     15915
     15910     15913     15916     15914     15913     15915     15914     15913     15916
     15915     15913     15916     15913     15916     15917     15913     15916     15918
     15913     15916     15919     15917     15916     15918     15917     15916     15919
     15918     15916     15919     15870     15920     15921     15870     15920     15922
     15870     15920     15923     15921     15920     15922     15921     15920     15923
     15922     15920     15923     15920     15923     15924     15920     15923     15925
     15920     15923     15926     15924     15923     15925     15924     15923     15926
     15925     15923     15926     15923     15926     15927     15923     15926     15928
     15923     15926     15929     15927     15926     15928     15927     15926     15929
     15928     15926     15929     15926     15929     15930     15926     15929     15931
     15926     15929     15932     15930     15929     15931     15930     15929     15932
     15931     15929     15932     15929     15932     15933     15929     15932     15934
     15929     15932     15935     15933     15932     15934     15933     15932     15935
     15934     15932     15935     15932     15935     15936     15932     15935     15937
     15932     15935     15938     15936     15935     15937     15936     15935     15938
     15937     15935     15938     15935     15938     15939     15935     15938     15940
     15935     15938     15941     15939     15938     15940     15939     15938     15941
     15940     15938     15941     15938     15941     15942     15938     15941     15943
     15938     15941     15944     15942     15941     15943     15942     15941     15944
     15943     15941     15944     15941     15944     15945     15941     15944     15946
     15941     15944     15947     15945     15944     15946     15945     15944     15947
     15946     15944     15947     15944     15947     15948     15944     15947     15949
     15944     15947     15950     15948     15947     15949     15948     15947     15950
     15949     15947     15950     15947     15950     15951     15947     15950     15952
     15947     15950     15953     15951     15950     15952     15951     15950     15953
     15952     15950     15953     15950     15953     15954     15950     15953     15955
     15950     15953     15956     15954     15953     15955     15954     15953     15956
     15955     15953     15956     15953     15956     15957     15953     15956     15958
     15953     15956     15959     15957     15956     15958     15957     15956     15959
     15958     15956     15959     15956     15959     15960     15956     15959     15961
     15956     15959     15962     15960     15959     15961     15960     15959     15962
     15961     15959     15962     21729     21728     21730     21729     21728     21732
     21729     21728     21748     21730     21728     21732     21730     21728     21748
     21732     21728     21748     21728     21730     21731     21728     21732     21733
     21728     21732     21734     21728     21732     21736     21733     21732     21734
     21733     21732     21736     21734     21732     21736     21732     21734     21735
     21732     21736     21737     21732     21736     21738     21732     21736     21740
     21737     21736     21738     21737     21736     21740     21738     21736     21740
     21736     21738     21739     21736     21740     21741     21736     21740     21742
     21736     21740     21744     21741     21740     21742     21741     21740     21744
     21742     21740     21744     21740     21742     21743     21740     21744     21745
     21740     21744     21746     21740     21744     21748     21745     21744     21746
     21745     21744     21748     21746     21744     21748     21744     21746     21747
     21728     21748     21744     21728     21748     21749     21728     21748     21753
     21744     21748     21749     21744     21748     21753     21749     21748     21753
     21751     21750     21752     21751     21750     21753     21751     21750     21754
     21752     21750     21753     21752     21750     21754     21753     21750     21754
     21748     21753     21750     21750     21754     21755     21754     21755     21756
     21754     21755     21757     21754     21755     21758     21756     21755     21757
     21756     21755     21758     21757     21755     21758     21755     21758     21759
     21755     21758     21760     21755     21758     21766     21759     21758     21760
     21759     21758     21766     21760     21758     21766     21758     21760     21761
     21760     21761     21762     21760     21761     21763     21762     21761     21763
     21761     21763     21764     21761     21763     21765     21761     21763     21775
     21764     21763     21765     21764     21763     21775     21765     21763     21775
     21758     21766     21767     21758     21766     21768     21758     21766     21769
     21767     21766     21768     21767     21766     21769     21768     21766     21769
     21766     21769     21770     21769     21770     21771     21769     21770     21772
     21771     21770     21772     21770     21772     21773     21770     21772     21774
     21770     21772     21822     21773     21772     21774     21773     21772     21822
     21774     21772     21822     21763     21775     21776     21763     21775     21777
     21763     21775     21778     21776     21775     21777     21776     21775     21778
     21777     21775     21778     21775     21778     21779     21775     21778     21780
     21775     21778     21781     21779     21778     21780     21779     21778     21781
     21780     21778     21781     21778     21781     21782     21778     21781     21783
     21778     21781     21784     21782     21781     21783     21782     21781     21784
     21783     21781     21784     21781     21784     21785     21781     21784     21786
     21781     21784     21787     21785     21784     21786     21785     21784     21787
     21786     21784     21787     21784     21787     21788     21784     21787     21789
     21784     21787     21790     21788     21787     21789     21788     21787     21790
     21789     21787     21790     21787     21790     21791     21787     21790     21792
     21787     21790     21793     21791     21790     21792     21791     21790     21793
     21792     21790     21793     21790     21793     21794     21790     21793     21795
     21794     21793     21795     21793     21795     21796     21793     21795     21797
     21796     21795     21797     21795     21797     21798     21795     21797     21799
     21795     21797     21800     21798     21797     21799     21798     21797     21800
     21799     21797     21800     21797     21800     21801     21797     21800     21802
     21797     21800     21803     21801     21800     21802     21801     21800     21803
     21802     21800     21803     21800     21803     21804     21800     21803     21805
     21800     21803     21806     21804     21803     21805     21804     21803     21806
     21805     21803     21806     21803     21806     21807     21803     21806     21808
     21803     21806     21809     21807     21806     21808     21807     21806     21809
     21808     21806     21809     21806     21809     21810     21806     21809     21811
     21806     21809     21812     21810     21809     21811     21810     21809     21812
     21811     21809     21812     21809     21812     21813     21809     21812     21814
     21809     21812     21815     21813     21812     21814     21813     21812     21815
     21814     21812     21815     21812     21815     21816     21812     21815     21817
     21812     21815     21818     21816     21815     21817     21816     21815     21818
     21817     21815     21818     21815     21818     21819     21815     21818     21820
     21815     21818     21821     21819     21818     21820     21819     21818     21821
     21820     21818     21821     21772     21822     21823     21772     21822     21824
     21772     21822     21825     21823     21822     21824     21823     21822     21825
     21824     21822     21825     21822     21825     21826     21822     21825     21827
     21822     21825     21828     21826     21825     21827     21826     21825     21828
     21827     21825     21828     21825     21828     21829     21825     21828     21830
     21825     21828     21831     21829     21828     21830     21829     21828     21831
     21830     21828     21831     21828     21831     21832     21828     21831     21833
     21828     21831     21834     21832     21831     21833     21832     21831     21834
     21833     21831     21834     21831     21834     21835     21831     21834     21836
     21831     21834     21837     21835     21834     21836     21835     21834     21837
     21836     21834     21837     21834     21837     21838     21834     21837     21839
     21834     21837     21840     21838     21837     21839     21838     21837     21840
     21839     21837     21840     21837     21840     21841     21837     21840     21842
     21837     21840     21843     21841     21840     21842     21841     21840     21843
     21842     21840     21843     21840     21843     21844     21840     21843     21845
     21840     21843     21846     21844     21843     21845     21844     21843     21846
     21845     21843     21846     21843     21846     21847     21843     21846     21848
     21843     21846     21849     21847     21846     21848     21847     21846     21849
     21848     21846     21849     21846     21849     21850     21846     21849     21851
     21846     21849     21852     21850     21849     21851     21850     21849     21852
     21851     21849     21852     21849     21852     21853     21849     21852     21854
     21849     21852     21855     21853     21852     21854     21853     21852     21855
     21854     21852     21855     21852     21855     21856     21852     21855     21857
     21852     21855     21858     21856     21855     21857     21856     21855     21858
     21857     21855     21858     21855     21858     21859     21855     21858     21860
     21855     21858     21861     21859     21858     21860     21859     21858     21861
     21860     21858     21861     21858     21861     21862     21858     21861     21863
     21858     21861     21864     21862     21861     21863     21862     21861     21864
     21863     21861     21864      9615      9614      9616      9615      9614      9617
      9615      9614      9618      9616      9614      9617      9616      9614      9618
      9617      9614      9618      9614      9618      9619      9614      9618      9620
      9614      9618      9623      9619      9618      9620      9619      9618      9623
      9620      9618      9623      9618      9620      9621      9618      9620      9622
      9621      9620      9622      9618      9623      9624      9618      9623      9625
      9618      9623      9629      9624      9623      9625      9624      9623      9629
      9625      9623      9629      9627      9626      9628      9627      9626      9629
      9627      9626      9630      9628      9626      9629      9628      9626      9630
      9629      9626      9630      9623      9629      9626      9626      9630      9631
      9630      9631      9632      9630      9631      9633      9630      9631      9634
      9632      9631      9633      9632      9631      9634      9633      9631      9634
      9631      9634      9635      9631      9634      9636      9631      9634      9642
      9635      9634      9636      9635      9634      9642      9636      9634      9642
      9634      9636      9637      9636      9637      9638      9636      9637      9639
      9638      9637      9639      9637      9639      9640      9637      9639      9641
      9637      9639      9651      9640      9639      9641      9640      9639      9651
      9641      9639      9651      9634      9642      9643      9634      9642      9644
      9634      9642      9645      9643      9642      9644      9643      9642      9645
      9644      9642      9645      9642      9645      9646      9645      9646      9647
      9645      9646      9648      9647      9646      9648      9646      9648      9649
      9646      9648      9650      9646      9648      9698      9649      9648      9650
      9649      9648      9698      9650      9648      9698      9639      9651      9652
      9639      9651      9653      9639      9651      9654      9652      9651      9653
      9652      9651      9654      9653      9651      9654      9651      9654      9655
      9651      9654      9656      9651      9654      9657      9655      9654      9656
      9655      9654      9657      9656      9654      9657      9654      9657      9658
      9654      9657      9659      9654      9657      9660      9658      9657      9659
      9658      9657      9660      9659      9657      9660      9657      9660      9661
      9657      9660      9662      9657      9660      9663      9661      9660      9662
      9661      9660      9663      9662      9660      9663      9660      9663      9664
      9660      9663      9665      9660      9663      9666      9664      9663      9665
      9664      9663      9666      9665      9663      9666      9663      9666      9667
      9663      9666      9668      9663      9666      9669      9667      9666      9668
      9667      9666      9669      9668      9666      9669      9666      9669      9670
      9666      9669      9671      9670      9669      9671      9669      9671      9672
      9669      9671      9673      9672      9671      9673      9671      9673      9674
      9671      9673      9675      9671      9673      9676      9674      9673      9675
      9674      9673      9676      9675      9673      9676      9673      9676      9677
      9673      9676      9678      9673      9676      9679      9677      9676      9678
      9677      9676      9679      9678      9676      9679      9676      9679      9680
      9676      9679      9681      9676      9679      9682      9680      9679      9681
      9680      9679      9682      9681      9679      9682      9679      9682      9683
      9679      9682      9684      9679      9682      9685      9683      9682      9684
      9683      9682      9685      9684      9682      9685      9682      9685      9686
      9682      9685      9687      9682      9685      9688      9686      9685      9687
      9686      9685      9688      9687      9685      9688      9685      9688      9689
      9685      9688      9690      9685      9688      9691      9689      9688      9690
      9689      9688      9691      9690      9688      9691      9688      9691      9692
      9688      9691      9693      9688      9691      9694      9692      9691      9693
      9692      9691      9694      9693      9691      9694      9691      9694      9695
      9691      9694      9696      9691      9694      9697      9695      9694      9696
      9695      9694      9697      9696      9694      9697      9648      9698      9699
      9648      9698      9700      9648      9698      9701      9699      9698      9700
      9699      9698      9701      9700      9698      9701      9698      9701      9702
      9698      9701      9703      9698      9701      9704      9702      9701      9703
      9702      9701      9704      9703      9701      9704      9701      9704      9705
      9701      9704      9706      9701      9704      9707      9705      9704      9706
      9705      9704      9707      9706      9704      9707      9704      9707      9708
      9704      9707      9709      9704      9707      9710      9708      9707      9709
      9708      9707      9710      9709      9707      9710      9707      9710      9711
      9707      9710      9712      9707      9710      9713      9711      9710      9712
      9711      9710      9713      9712      9710      9713      9710      9713      9714
      9710      9713      9715      9710      9713      9716      9714      9713      9715
      9714      9713      9716      9715      9713      9716      9713      9716      9717
      9713      9716      9718      9713      9716      9719      9717      9716      9718
      9717      9716      9719      9718      9716      9719      9716      9719      9720
      9716      9719      9721      9716      9719      9722      9720      9719      9721
      9720      9719      9722      9721      9719      9722      9719      9722      9723
      9719      9722      9724      9719      9722      9725      9723      9722      9724
      9723      9722      9725      9724      9722      9725      9722      9725      9726
      9722      9725      9727      9722      9725      9728      9726      9725      9727
      9726      9725      9728      9727      9725      9728      9725      9728      9729
      9725      9728      9730      9725      9728      9731      9729      9728      9730
      9729      9728      9731      9730      9728      9731      9728      9731      9732
      9728      9731      9733      9728      9731      9734      9732      9731      9733
      9732      9731      9734      9733      9731      9734      9731      9734      9735
      9731      9734      9736      9731      9734      9737      9735      9734      9736
      9735      9734      9737      9736      9734      9737      9734      9737      9738
      9734      9737      9739      9734      9737      9740      9738      9737      9739
      9738      9737      9740      9739      9737      9740       742       741       743
       742       741       745       742       741       787       743       741       745
       743       741       787       745       741       787       741       743       744
       741       745       746       741       745       747       741       745       748
       746       745       747       746       745       748       747       745       748
       745       748       749       745       748       779       749       748       779
       748       749       750       748       749       751       750       749       751
       749       751       752       749       751       753       749       751       754
       752       751       753       752       751       754       753       751       754
       751       754       755       751       754       756       751       754       777
       755       754       756       755       754       777       756       754       777
       754       756       757       754       756       758       754       756       766
       757       756       758       757       756       766       758       756       766
       756       758       759       756       758       760       756       758       761
       759       758       760       759       758       761       760       758       761
       758       761       762       758       761       763       758       761       764
       762       761       763       762       761       764       763       761       764
       761       764       765       761       764       766       761       764       790
       765       764       766       765       764       790       766       764       790
       756       766       764       756       766       767       756       766       771
       764       766       767       764       766       771       767       766       771
       766       767       768       766       767       769       766       767       770
       768       767       769       768       767       770       769       767       770
       766       771       772       766       771       773       766       771       774
       772       771       773       772       771       774       773       771       774
       771       774       775       771       774       776       771       774       777
       775       774       776       775       774       777       776       774       777
       754       777       774       754       777       778       754       777       779
       774       777       778       774       777       779       778       777       779
       748       779       777       748       779       780       748       779       784
       777       779       780       777       779       784       780       779       784
       779       780       781       779       780       782       779       780       783
       781       780       782       781       780       783       782       780       783
       779       784       785       779       784       786       779       784       787
       785       784       786       785       784       787       786       784       787
       741       787       784       741       787       788       741       787       789
       784       787       788       784       787       789       788       787       789
       764       790       791       764       790       792       764       790       796
       791       790       792       791       790       796       792       790       796
       790       792       793       790       792       794       790       792       795
       793       792       794       793       792       795       794       792       795
       790       796       797       790       796       798       790       796       799
       797       796       798       797       796       799       798       796       799
       796       799       800       796       799       801       796       799       802
       800       799       801       800       799       802       801       799       802
       799       802       803       799       802       804       799       802       805
       803       802       804       803       802       805       804       802       805
       802       805       806       802       805       807       802       805       811
       806       805       807       806       805       811       807       805       811
       805       807       808       805       807       809       805       807       810
       808       807       809       808       807       810       809       807       810
       805       811       812       805       811       813       805       811       814
       812       811       813       812       811       814       813       811       814
      4097      4096      4098      4097      4096      4099      4097      4096      4100
      4098      4096      4099      4098      4096      4100      4099      4096      4100
      4096      4100      4101      4096      4100      4102      4096      4100      4103
      4101      4100      4102      4101      4100      4103      4102      4100      4103
      4100      4103      4104      4100      4103      4105      4100      4103      4110
      4104      4103      4105      4104      4103      4110      4105      4103      4110
      4107      4106      4108      4107      4106      4109      4107      4106      4110
      4108      4106      4109      4108      4106      4110      4109      4106      4110
      4106      4109      4111      4103      4110      4106      4109      4111      4112
      4109      4111      4113      4109      4111      4114      4112      4111      4113
      4112      4111      4114      4113      4111      4114      4111      4114      4115
      4111      4114      4116      4111      4114      4122      4115      4114      4116
      4115      4114      4122      4116      4114      4122      4114      4116      4117
      4116      4117      4118      4116      4117      4119      4118      4117      4119
      4117      4119      4120      4117      4119      4121      4117      4119      4131
      4120      4119      4121      4120      4119      4131      4121      4119      4131
      4114      4122      4123      4114      4122      4124      4114      4122      4125
      4123      4122      4124      4123      4122      4125      4124      4122      4125
      4122      4125      4126      4125      4126      4127      4125      4126      4128
      4127      4126      4128      4126      4128      4129      4126      4128      4130
      4126      4128      4178      4129      4128      4130      4129      4128      4178
      4130      4128      4178      4119      4131      4132      4119      4131      4133
      4119      4131      4134      4132      4131      4133      4132      4131      4134
      4133      4131      4134      4131      4134      4135      4131      4134      4136
      4131      4134      4137      4135      4134      4136      4135      4134      4137
      4136      4134      4137      4134      4137      4138      4134      4137      4139
      4134      4137      4140      4138      4137      4139      4138      4137      4140
      4139      4137      4140      4137      4140      4141      4137      4140      4142
      4137      4140      4143      4141      4140      4142      4141      4140      4143
      4142      4140      4143      4140      4143      4144      4140      4143      4145
      4140      4143      4146      4144      4143      4145      4144      4143      4146
      4145      4143      4146      4143      4146      4147      4143      4146      4148
      4143      4146      4149      4147      4146      4148      4147      4146      4149
      4148      4146      4149      4146      4149      4150      4146      4149      4151
      4150      4149      4151      4149      4151      4152      4149      4151      4153
      4152      4151      4153      4151      4153      4154      4151      4153      4155
      4151      4153      4156      4154      4153      4155      4154      4153      4156
      4155      4153      4156      4153      4156      4157      4153      4156      4158
      4153      4156      4159      4157      4156      4158      4157      4156      4159
      4158      4156      4159      4156      4159      4160      4156      4159      4161
      4156      4159      4162      4160      4159      4161      4160      4159      4162
      4161      4159      4162      4159      4162      4163      4159      4162      4164
      4159      4162      4165      4163      4162      4164      4163      4162      4165
      4164      4162      4165      4162      4165      4166      4162      4165      4167
      4162      4165      4168      4166      4165      4167      4166      4165      4168
      4167      4165      4168      4165      4168      4169      4165      4168      4170
      4165      4168      4171      4169      4168      4170      4169      4168      4171
      4170      4168      4171      4168      4171      4172      4168      4171      4173
      4168      4171      4174      4172      4171      4173      4172      4171      4174
      4173      4171      4174      4171      4174      4175      4171      4174      4176
      4171      4174      4177      4175      4174      4176      4175      4174      4177
      4176      4174      4177      4128      4178      4179      4128      4178      4180
      4128      4178      4181      4179      4178      4180      4179      4178      4181
      4180      4178      4181      4178      4181      4182      4178      4181      4183
      4178      4181      4184      4182      4181      4183      4182      4181      4184
      4183      4181      4184      4181      4184      4185      4181      4184      4186
      4181      4184      4187      4185      4184      4186      4185      4184      4187
      4186      4184      4187      4184      4187      4188      4184      4187      4189
      4184      4187      4190      4188      4187      4189      4188      4187      4190
      4189      4187      4190      4187      4190      4191      4187      4190      4192
      4187      4190      4193      4191      4190      4192      4191      4190      4193
      4192      4190      4193      4190      4193      4194      4190      4193      4195
      4190      4193      4196      4194      4193      4195      4194      4193      4196
      4195      4193      4196      4193      4196      4197      4193      4196      4198
      4193      4196      4199      4197      4196      4198      4197      4196      4199
      4198      4196      4199      4196      4199      4200      4196      4199      4201
      4196      4199      4202      4200      4199      4201      4200      4199      4202
      4201      4199      4202      4199      4202      4203      4199      4202      4204
      4199      4202      4205      4203      4202      4204      4203      4202      4205
      4204      4202      4205      4202      4205      4206      4202      4205      4207
      4202      4205      4208      4206      4205      4207      4206      4205      4208
      4207      4205      4208      4205      4208      4209      4205      4208      4210
      4205      4208      4211      4209      4208      4210      4209      4208      4211
      4210      4208      4211      4208      4211      4212      4208      4211      4213
      4208      4211      4214      4212      4211      4213      4212      4211      4214
      4213      4211      4214      4211      4214      4215      4211      4214      4216
      4211      4214      4217      4215      4214      4216      4215      4214      4217
      4216      4214      4217      4214      4217      4218      4214      4217      4219
      4214      4217      4220      4218      4217      4219      4218      4217      4220
      4219      4217      4220      4222      4221      4223      4222      4221      4224
      4222      4221      4225      4223      4221      4224      4223      4221      4225
      4224      4221      4225      4221      4225      4226      4221      4225      4227
      4221      4225      4228      4226      4225      4227      4226      4225      4228
      4227      4225      4228      4225      4228      4229      4225      4228      4230
      4225      4228      4235      4229      4228      4230      4229      4228      4235
      4230      4228      4235      4232      4231      4233      4232      4231      4234
      4232      4231      4235      4233      4231      4234      4233      4231      4235
      4234      4231      4235      4231      4234      4236      4228      4235      4231
      4234      4236      4237      4234      4236      4238      4234      4236      4239
      4237      4236      4238      4237      4236      4239      4238      4236      4239
      4236      4239      4240      4236      4239      4241      4236      4239      4247
      4240      4239      4241      4240      4239      4247      4241      4239      4247
      4239      4241      4242      4241      4242      4243      4241      4242      4244
      4243      4242      4244      4242      4244      4245      4242      4244      4246
      4242      4244      4256      4245      4244      4246      4245      4244      4256
      4246      4244      4256      4239      4247      4248      4239      4247      4249
      4239      4247      4250      4248      4247      4249      4248      4247      4250
      4249      4247      4250      4247      4250      4251      4250      4251      4252
      4250      4251      4253      4252      4251      4253      4251      4253      4254
      4251      4253      4255      4251      4253      4303      4254      4253      4255
      4254      4253      4303      4255      4253      4303      4244      4256      4257
      4244      4256      4258      4244      4256      4259      4257      4256      4258
      4257      4256      4259      4258      4256      4259      4256      4259      4260
      4256      4259      4261      4256      4259      4262      4260      4259      4261
      4260      4259      4262      4261      4259      4262      4259      4262      4263
      4259      4262      4264      4259      4262      4265      4263      4262      4264
      4263      4262      4265      4264      4262      4265      4262      4265      4266
      4262      4265      4267      4262      4265      4268      4266      4265      4267
      4266      4265      4268      4267      4265      4268      4265      4268      4269
      4265      4268      4270      4265      4268      4271      4269      4268      4270
      4269      4268      4271      4270      4268      4271      4268      4271      4272
      4268      4271      4273      4268      4271      4274      4272      4271      4273
      4272      4271      4274      4273      4271      4274      4271      4274      4275
      4271      4274      4276      4275      4274      4276      4274      4276      4277
      4274      4276      4278      4277      4276      4278      4276      4278      4279
      4276      4278      4280      4276      4278      4281      4279      4278      4280
      4279      4278      4281      4280      4278      4281      4278      4281      4282
      4278      4281      4283      4278      4281      4284      4282      4281      4283
      4282      4281      4284      4283      4281      4284      4281      4284      4285
      4281      4284      4286      4281      4284      4287      4285      4284      4286
      4285      4284      4287      4286      4284      4287      4284      4287      4288
      4284      4287      4289      4284      4287      4290      4288      4287      4289
      4288      4287      4290      4289      4287      4290      4287      4290      4291
      4287      4290      4292      4287      4290      4293      4291      4290      4292
      4291      4290      4293      4292      4290      4293      4290      4293      4294
      4290      4293      4295      4290      4293      4296      4294      4293      4295
      4294      4293      4296      4295      4293      4296      4293      4296      4297
      4293      4296      4298      4293      4296      4299      4297      4296      4298
      4297      4296      4299      4298      4296      4299      4296      4299      4300
      4296      4299      4301      4296      4299      4302      4300      4299      4301
      4300      4299      4302      4301      4299      4302      4253      4303      4304
      4253      4303      4305      4253      4303      4306      4304      4303      4305
      4304      4303      4306      4305      4303      4306      4303      4306      4307
      4303      4306      4308      4303      4306      4309      4307      4306      4308
      4307      4306      4309      4308      4306      4309      4306      4309      4310
      4306      4309      4311      4306      4309      4312      4310      4309      4311
      4310      4309      4312      4311      4309      4312      4309      4312      4313
      4309      4312      4314      4309      4312      4315      4313      4312      4314
      4313      4312      4315      4314      4312      4315      4312      4315      4316
      4312      4315      4317      4312      4315      4318      4316      4315      4317
      4316      4315      4318      4317      4315      4318      4315      4318      4319
      4315      4318      4320      4315      4318      4321      4319      4318      4320
      4319      4318      4321      4320      4318      4321      4318      4321      4322
      4318      4321      4323      4318      4321      4324      4322      4321      4323
      4322      4321      4324      4323      4321      4324      4321      4324      4325
      4321      4324      4326      4321      4324      4327      4325      4324      4326
      4325      4324      4327      4326      4324      4327      4324      4327      4328
      4324      4327      4329      4324      4327      4330      4328      4327      4329
      4328      4327      4330      4329      4327      4330      4327      4330      4331
      4327      4330      4332      4327      4330      4333      4331      4330      4332
      4331      4330      4333      4332      4330      4333      4330      4333      4334
      4330      4333      4335      4330      4333      4336      4334      4333      4335
      4334      4333      4336      4335      4333      4336      4333      4336      4337
      4333      4336      4338      4333      4336      4339      4337      4336      4338
      4337      4336      4339      4338      4336      4339      4336      4339      4340
      4336      4339      4341      4336      4339      4342      4340      4339      4341
      4340      4339      4342      4341      4339      4342      4339      4342      4343
      4339      4342      4344      4339      4342      4345      4343      4342      4344
      4343      4342      4345      4344      4342      4345      4347      4346      4348
      4347      4346      4349      4347      4346      4350      4348      4346      4349
      4348      4346      4350      4349      4346      4350      4346      4350      4351
      4346      4350      4352      4346      4350      4353      4351      4350      4352
      4351      4350      4353      4352      4350      4353      4350      4353      4354
      4350      4353      4355      4350      4353      4360      4354      4353      4355
      4354      4353      4360      4355      4353      4360      4357      4356      4358
      4357      4356      4359      4357      4356      4360      4358      4356      4359
      4358      4356      4360      4359      4356      4360      4356      4359      4361
      4353      4360      4356      4359      4361      4362      4359      4361      4363
      4359      4361      4364      4362      4361      4363      4362      4361      4364
      4363      4361      4364      4361      4364      4365      4361      4364      4366
      4361      4364      4372      4365      4364      4366      4365      4364      4372
      4366      4364      4372      4364      4366      4367      4366      4367      4368
      4366      4367      4369      4368      4367      4369      4367      4369      4370
      4367      4369      4371      4367      4369      4381      4370      4369      4371
      4370      4369      4381      4371      4369      4381      4364      4372      4373
      4364      4372      4374      4364      4372      4375      4373      4372      4374
      4373      4372      4375      4374      4372      4375      4372      4375      4376
      4375      4376      4377      4375      4376      4378      4377      4376      4378
      4376      4378      4379      4376      4378      4380      4376      4378      4428
      4379      4378      4380      4379      4378      4428      4380      4378      4428
      4369      4381      4382      4369      4381      4383      4369      4381      4384
      4382      4381      4383      4382      4381      4384      4383      4381      4384
      4381      4384      4385      4381      4384      4386      4381      4384      4387
      4385      4384      4386      4385      4384      4387      4386      4384      4387
      4384      4387      4388      4384      4387      4389      4384      4387      4390
      4388      4387      4389      4388      4387      4390      4389      4387      4390
      4387      4390      4391      4387      4390      4392      4387      4390      4393
      4391      4390      4392      4391      4390      4393      4392      4390      4393
      4390      4393      4394      4390      4393      4395      4390      4393      4396
      4394      4393      4395      4394      4393      4396      4395      4393      4396
      4393      4396      4397      4393      4396      4398      4393      4396      4399
      4397      4396      4398      4397      4396      4399      4398      4396      4399
      4396      4399      4400      4396      4399      4401      4400      4399      4401
      4399      4401      4402      4399      4401      4403      4402      4401      4403
      4401      4403      4404      4401      4403      4405      4401      4403      4406
      4404      4403      4405      4404      4403      4406      4405      4403      4406
      4403      4406      4407      4403      4406      4408      4403      4406      4409
      4407      4406      4408      4407      4406      4409      4408      4406      4409
      4406      4409      4410      4406      4409      4411      4406      4409      4412
      4410      4409      4411      4410      4409      4412      4411      4409      4412
      4409      4412      4413      4409      4412      4414      4409      4412      4415
      4413      4412      4414      4413      4412      4415      4414      4412      4415
      4412      4415      4416      4412      4415      4417      4412      4415      4418
      4416      4415      4417      4416      4415      4418      4417      4415      4418
      4415      4418      4419      4415      4418      4420      4415      4418      4421
      4419      4418      4420      4419      4418      4421      4420      4418      4421
      4418      4421      4422      4418      4421      4423      4418      4421      4424
      4422      4421      4423      4422      4421      4424      4423      4421      4424
      4421      4424      4425      4421      4424      4426      4421      4424      4427
      4425      4424      4426      4425      4424      4427      4426      4424      4427
      4378      4428      4429      4378      4428      4430      4378      4428      4431
      4429      4428      4430      4429      4428      4431      4430      4428      4431
      4428      4431      4432      4428      4431      4433      4428      4431      4434
      4432      4431      4433      4432      4431      4434      4433      4431      4434
      4431      4434      4435      4431      4434      4436      4431      4434      4437
      4435      4434      4436      4435      4434      4437      4436      4434      4437
      4434      4437      4438      4434      4437      4439      4434      4437      4440
      4438      4437      4439      4438      4437      4440      4439      4437      4440
      4437      4440      4441      4437      4440      4442      4437      4440      4443
      4441      4440      4442      4441      4440      4443      4442      4440      4443
      4440      4443      4444      4440      4443      4445      4440      4443      4446
      4444      4443      4445      4444      4443      4446      4445      4443      4446
      4443      4446      4447      4443      4446      4448      4443      4446      4449
      4447      4446      4448      4447      4446      4449      4448      4446      4449
      4446      4449      4450      4446      4449      4451      4446      4449      4452
      4450      4449      4451      4450      4449      4452      4451      4449      4452
      4449      4452      4453      4449      4452      4454      4449      4452      4455
      4453      4452      4454      4453      4452      4455      4454      4452      4455
      4452      4455      4456      4452      4455      4457      4452      4455      4458
      4456      4455      4457      4456      4455      4458      4457      4455      4458
      4455      4458      4459      4455      4458      4460      4455      4458      4461
      4459      4458      4460      4459      4458      4461      4460      4458      4461
      4458      4461      4462      4458      4461      4463      4458      4461      4464
      4462      4461      4463      4462      4461      4464      4463      4461      4464
      4461      4464      4465      4461      4464      4466      4461      4464      4467
      4465      4464      4466      4465      4464      4467      4466      4464      4467
      4464      4467      4468      4464      4467      4469      4464      4467      4470
      4468      4467      4469      4468      4467      4470      4469      4467      4470
      9742      9741      9743      9742      9741      9744      9742      9741      9745
      9743      9741      9744      9743      9741      9745      9744      9741      9745
      9741      9745      9746      9741      9745      9747      9741      9745      9750
      9746      9745      9747      9746      9745      9750      9747      9745      9750
      9745      9747      9748      9745      9747      9749      9748      9747      9749
      9745      9750      9751      9745      9750      9752      9745      9750      9756
      9751      9750      9752      9751      9750      9756      9752      9750      9756
      9754      9753      9755      9754      9753      9756      9754      9753      9757
      9755      9753      9756      9755      9753      9757      9756      9753      9757
      9750      9756      9753      9753      9757      9758      9757      9758      9759
      9757      9758      9760      9757      9758      9761      9759      9758      9760
      9759      9758      9761      9760      9758      9761      9758      9761      9762
      9758      9761      9763      9758      9761      9769      9762      9761      9763
      9762      9761      9769      9763      9761      9769      9761      9763      9764
      9763      9764      9765      9763      9764      9766      9765      9764      9766
      9764      9766      9767      9764      9766      9768      9764      9766      9778
      9767      9766      9768      9767      9766      9778      9768      9766      9778
      9761      9769      9770      9761      9769      9771      9761      9769      9772
      9770      9769      9771      9770      9769      9772      9771      9769      9772
      9769      9772      9773      9772      9773      9774      9772      9773      9775
      9774      9773      9775      9773      9775      9776      9773      9775      9777
      9773      9775      9825      9776      9775      9777      9776      9775      9825
      9777      9775      9825      9766      9778      9779      9766      9778      9780
      9766      9778      9781      9779      9778      9780      9779      9778      9781
      9780      9778      9781      9778      9781      9782      9778      9781      9783
      9778      9781      9784      9782      9781      9783      9782      9781      9784
      9783      9781      9784      9781      9784      9785      9781      9784      9786
      9781      9784      9787      9785      9784      9786      9785      9784      9787
      9786      9784      9787      9784      9787      9788      9784      9787      9789
      9784      9787      9790      9788      9787      9789      9788      9787      9790
      9789      9787      9790      9787      9790      9791      9787      9790      9792
      9787      9790      9793      9791      9790      9792      9791      9790      9793
      9792      9790      9793      9790      9793      9794      9790      9793      9795
      9790      9793      9796      9794      9793      9795      9794      9793      9796
      9795      9793      9796      9793      9796      9797      9793      9796      9798
      9797      9796      9798      9796      9798      9799      9796      9798      9800
      9799      9798      9800      9798      9800      9801      9798      9800      9802
      9798      9800      9803      9801      9800      9802      9801      9800      9803
      9802      9800      9803      9800      9803      9804      9800      9803      9805
      9800      9803      9806      9804      9803      9805      9804      9803      9806
      9805      9803      9806      9803      9806      9807      9803      9806      9808
      9803      9806      9809      9807      9806      9808      9807      9806      9809
      9808      9806      9809      9806      9809      9810      9806      9809      9811
      9806      9809      9812      9810      9809      9811      9810      9809      9812
      9811      9809      9812      9809      9812      9813      9809      9812      9814
      9809      9812      9815      9813      9812      9814      9813      9812      9815
      9814      9812      9815      9812      9815      9816      9812      9815      9817
      9812      9815      9818      9816      9815      9817      9816      9815      9818
      9817      9815      9818      9815      9818      9819      9815      9818      9820
      9815      9818      9821      9819      9818      9820      9819      9818      9821
      9820      9818      9821      9818      9821      9822      9818      9821      9823
      9818      9821      9824      9822      9821      9823      9822      9821      9824
      9823      9821      9824      9775      9825      9826      9775      9825      9827
      9775      9825      9828      9826      9825      9827      9826      9825      9828
      9827      9825      9828      9825      9828      9829      9825      9828      9830
      9825      9828      9831      9829      9828      9830      9829      9828      9831
      9830      9828      9831      9828      9831      9832      9828      9831      9833
      9828      9831      9834      9832      9831      9833      9832      9831      9834
      9833      9831      9834      9831      9834      9835      9831      9834      9836
      9831      9834      9837      9835      9834      9836      9835      9834      9837
      9836      9834      9837      9834      9837      9838      9834      9837      9839
      9834      9837      9840      9838      9837      9839      9838      9837      9840
      9839      9837      9840      9837      9840      9841      9837      9840      9842
      9837      9840      9843      9841      9840      9842      9841      9840      9843
      9842      9840      9843      9840      9843      9844      9840      9843      9845
      9840      9843      9846      9844      9843      9845      9844      9843      9846
      9845      9843      9846      9843      9846      9847      9843      9846      9848
      9843      9846      9849      9847      9846      9848      9847      9846      9849
      9848      9846      9849      9846      9849      9850      9846      9849      9851
      9846      9849      9852      9850      9849      9851      9850      9849      9852
      9851      9849      9852      9849      9852      9853      9849      9852      9854
      9849      9852      9855      9853      9852      9854      9853      9852      9855
      9854      9852      9855      9852      9855      9856      9852      9855      9857
      9852      9855      9858      9856      9855      9857      9856      9855      9858
      9857      9855      9858      9855      9858      9859      9855      9858      9860
      9855      9858      9861      9859      9858      9860      9859      9858      9861
      9860      9858      9861      9858      9861      9862      9858      9861      9863
      9858      9861      9864      9862      9861      9863      9862      9861      9864
      9863      9861      9864      9861      9864      9865      9861      9864      9866
      9861      9864      9867      9865      9864      9866      9865      9864      9867
      9866      9864      9867     15964     15963     15967     15964     15963     15971
     15964     15963     15975     15967     15963     15971     15967     15963     15975
     15971     15963     15975     15963     15964     15965     15963     15964     15966
     15963     15964     15979     15965     15964     15966     15965     15964     15979
     15966     15964     15979     15963     15967     15968     15963     15967     15969
     15963     15967     15970     15968     15967     15969     15968     15967     15970
     15969     15967     15970     15963     15971     15972     15963     15971     15973
     15963     15971     15974     15972     15971     15973     15972     15971     15974
     15973     15971     15974     15963     15975     15976     15963     15975     15977
     15963     15975     15978     15976     15975     15977     15976     15975     15978
     15977     15975     15978     15964     15979     15980     15964     15979     15981
     15964     15979     15985     15980     15979     15981     15980     15979     15985
     15981     15979     15985     15983     15982     15984     15983     15982     15985
     15983     15982     15986     15984     15982     15985     15984     15982     15986
     15985     15982     15986     15979     15985     15982     15982     15986     15987
     15986     15987     15988     15986     15987     15989     15986     15987     15990
     15988     15987     15989     15988     15987     15990     15989     15987     15990
     15987     15990     15991     15987     15990     15992     15987     15990     15998
     15991     15990     15992     15991     15990     15998     15992     15990     15998
     15990     15992     15993     15992     15993     15994     15992     15993     15995
     15994     15993     15995     15993     15995     15996     15993     15995     15997
     15993     15995     16007     15996     15995     15997     15996     15995     16007
     15997     15995     16007     15990     15998     15999     15990     15998     16000
     15990     15998     16001     15999     15998     16000     15999     15998     16001
     16000     15998     16001     15998     16001     16002     16001     16002     16003
     16001     16002     16004     16003     16002     16004     16002     16004     16005
     16002     16004     16006     16002     16004     16054     16005     16004     16006
     16005     16004     16054     16006     16004     16054     15995     16007     16008
     15995     16007     16009     15995     16007     16010     16008     16007     16009
     16008     16007     16010     16009     16007     16010     16007     16010     16011
     16007     16010     16012     16007     16010     16013     16011     16010     16012
     16011     16010     16013     16012     16010     16013     16010     16013     16014
     16010     16013     16015     16010     16013     16016     16014     16013     16015
     16014     16013     16016     16015     16013     16016     16013     16016     16017
     16013     16016     16018     16013     16016     16019     16017     16016     16018
     16017     16016     16019     16018     16016     16019     16016     16019     16020
     16016     16019     16021     16016     16019     16022     16020     16019     16021
     16020     16019     16022     16021     16019     16022     16019     16022     16023
     16019     16022     16024     16019     16022     16025     16023     16022     16024
     16023     16022     16025     16024     16022     16025     16022     16025     16026
     16022     16025     16027     16026     16025     16027     16025     16027     16028
     16025     16027     16029     16028     16027     16029     16027     16029     16030
     16027     16029     16031     16027     16029     16032     16030     16029     16031
     16030     16029     16032     16031     16029     16032     16029     16032     16033
     16029     16032     16034     16029     16032     16035     16033     16032     16034
     16033     16032     16035     16034     16032     16035     16032     16035     16036
     16032     16035     16037     16032     16035     16038     16036     16035     16037
     16036     16035     16038     16037     16035     16038     16035     16038     16039
     16035     16038     16040     16035     16038     16041     16039     16038     16040
     16039     16038     16041     16040     16038     16041     16038     16041     16042
     16038     16041     16043     16038     16041     16044     16042     16041     16043
     16042     16041     16044     16043     16041     16044     16041     16044     16045
     16041     16044     16046     16041     16044     16047     16045     16044     16046
     16045     16044     16047     16046     16044     16047     16044     16047     16048
     16044     16047     16049     16044     16047     16050     16048     16047     16049
     16048     16047     16050     16049     16047     16050     16047     16050     16051
     16047     16050     16052     16047     16050     16053     16051     16050     16052
     16051     16050     16053     16052     16050     16053     16004     16054     16055
     16004     16054     16056     16004     16054     16057     16055     16054     16056
     16055     16054     16057     16056     16054     16057     16054     16057     16058
     16054     16057     16059     16054     16057     16060     16058     16057     16059
     16058     16057     16060     16059     16057     16060     16057     16060     16061
     16057     16060     16062     16057     16060     16063     16061     16060     16062
     16061     16060     16063     16062     16060     16063     16060     16063     16064
     16060     16063     16065     16060     16063     16066     16064     16063     16065
     16064     16063     16066     16065     16063     16066     16063     16066     16067
     16063     16066     16068     16063     16066     16069     16067     16066     16068
     16067     16066     16069     16068     16066     16069     16066     16069     16070
     16066     16069     16071     16066     16069     16072     16070     16069     16071
     16070     16069     16072     16071     16069     16072     16069     16072     16073
     16069     16072     16074     16069     16072     16075     16073     16072     16074
     16073     16072     16075     16074     16072     16075     16072     16075     16076
     16072     16075     16077     16072     16075     16078     16076     16075     16077
     16076     16075     16078     16077     16075     16078     16075     16078     16079
     16075     16078     16080     16075     16078     16081     16079     16078     16080
     16079     16078     16081     16080     16078     16081     16078     16081     16082
     16078     16081     16083     16078     16081     16084     16082     16081     16083
     16082     16081     16084     16083     16081     16084     16081     16084     16085
     16081     16084     16086     16081     16084     16087     16085     16084     16086
     16085     16084     16087     16086     16084     16087     16084     16087     16088
     16084     16087     16089     16084     16087     16090     16088     16087     16089
     16088     16087     16090     16089     16087     16090     16087     16090     16091
     16087     16090     16092     16087     16090     16093     16091     16090     16092
     16091     16090     16093     16092     16090     16093     16090     16093     16094
     16090     16093     16095     16090     16093     16096     16094     16093     16095
     16094     16093     16096     16095     16093     16096      9869      9868      9870
      9869      9868      9871      9869      9868      9872      9870      9868      9871
      9870      9868      9872      9871      9868      9872      9868      9872      9873
      9868      9872      9874      9868      9872      9877      9873      9872      9874
      9873      9872      9877      9874      9872      9877      9872      9874      9875
      9872      9874      9876      9875      9874      9876      9872      9877      9878
      9872      9877      9879      9872      9877      9883      9878      9877      9879
      9878      9877      9883      9879      9877      9883      9881      9880      9882
      9881      9880      9883      9881      9880      9884      9882      9880      9883
      9882      9880      9884      9883      9880      9884      9877      9883      9880
      9880      9884      9885      9884      9885      9886      9884      9885      9887
      9884      9885      9888      9886      9885      9887      9886      9885      9888
      9887      9885      9888      9885      9888      9889      9885      9888      9890
      9885      9888      9896      9889      9888      9890      9889      9888      9896
      9890      9888      9896      9888      9890      9891      9890      9891      9892
      9890      9891      9893      9892      9891      9893      9891      9893      9894
      9891      9893      9895      9891      9893      9905      9894      9893      9895
      9894      9893      9905      9895      9893      9905      9888      9896      9897
      9888      9896      9898      9888      9896      9899      9897      9896      9898
      9897      9896      9899      9898      9896      9899      9896      9899      9900
      9899      9900      9901      9899      9900      9902      9901      9900      9902
      9900      9902      9903      9900      9902      9904      9900      9902      9952
      9903      9902      9904      9903      9902      9952      9904      9902      9952
      9893      9905      9906      9893      9905      9907      9893      9905      9908
      9906      9905      9907      9906      9905      9908      9907      9905      9908
      9905      9908      9909      9905      9908      9910      9905      9908      9911
      9909      9908      9910      9909      9908      9911      9910      9908      9911
      9908      9911      9912      9908      9911      9913      9908      9911      9914
      9912      9911      9913      9912      9911      9914      9913      9911      9914
      9911      9914      9915      9911      9914      9916      9911      9914      9917
      9915      9914      9916      9915      9914      9917      9916      9914      9917
      9914      9917      9918      9914      9917      9919      9914      9917      9920
      9918      9917      9919      9918      9917      9920      9919      9917      9920
      9917      9920      9921      9917      9920      9922      9917      9920      9923
      9921      9920      9922      9921      9920      9923      9922      9920      9923
      9920      9923      9924      9920      9923      9925      9924      9923      9925
      9923      9925      9926      9923      9925      9927      9926      9925      9927
      9925      9927      9928      9925      9927      9929      9925      9927      9930
      9928      9927      9929      9928      9927      9930      9929      9927      9930
      9927      9930      9931      9927      9930      9932      9927      9930      9933
      9931      9930      9932      9931      9930      9933      9932      9930      9933
      9930      9933      9934      9930      9933      9935      9930      9933      9936
      9934      9933      9935      9934      9933      9936      9935      9933      9936
      9933      9936      9937      9933      9936      9938      9933      9936      9939
      9937      9936      9938      9937      9936      9939      9938      9936      9939
      9936      9939      9940      9936      9939      9941      9936      9939      9942
      9940      9939      9941      9940      9939      9942      9941      9939      9942
      9939      9942      9943      9939      9942      9944      9939      9942      9945
      9943      9942      9944      9943      9942      9945      9944      9942      9945
      9942      9945      9946      9942      9945      9947      9942      9945      9948
      9946      9945      9947      9946      9945      9948      9947      9945      9948
      9945      9948      9949      9945      9948      9950      9945      9948      9951
      9949      9948      9950      9949      9948      9951      9950      9948      9951
      9902      9952      9953      9902      9952      9954      9902      9952      9955
      9953      9952      9954      9953      9952      9955      9954      9952      9955
      9952      9955      9956      9952      9955      9957      9952      9955      9958
      9956      9955      9957      9956      9955      9958      9957      9955      9958
      9955      9958      9959      9955      9958      9960      9955      9958      9961
      9959      9958      9960      9959      9958      9961      9960      9958      9961
      9958      9961      9962      9958      9961      9963      9958      9961      9964
      9962      9961      9963      9962      9961      9964      9963      9961      9964
      9961      9964      9965      9961      9964      9966      9961      9964      9967
      9965      9964      9966      9965      9964      9967      9966      9964      9967
      9964      9967      9968      9964      9967      9969      9964      9967      9970
      9968      9967      9969      9968      9967      9970      9969      9967      9970
      9967      9970      9971      9967      9970      9972      9967      9970      9973
      9971      9970      9972      9971      9970      9973      9972      9970      9973
      9970      9973      9974      9970      9973      9975      9970      9973      9976
      9974      9973      9975      9974      9973      9976      9975      9973      9976
      9973      9976      9977      9973      9976      9978      9973      9976      9979
      9977      9976      9978      9977      9976      9979      9978      9976      9979
      9976      9979      9980      9976      9979      9981      9976      9979      9982
      9980      9979      9981      9980      9979      9982      9981      9979      9982
      9979      9982      9983      9979      9982      9984      9979      9982      9985
      9983      9982      9984      9983      9982      9985      9984      9982      9985
      9982      9985      9986      9982      9985      9987      9982      9985      9988
      9986      9985      9987      9986      9985      9988      9987      9985      9988
      9985      9988      9989      9985      9988      9990      9985      9988      9991
      9989      9988      9990      9989      9988      9991      9990      9988      9991
      9988      9991      9992      9988      9991      9993      9988      9991      9994
      9992      9991      9993      9992      9991      9994      9993      9991      9994
      4472      4471      4473      4472      4471      4474      4472      4471      4475
      4473      4471      4474      4473      4471      4475      4474      4471      4475
      4471      4475      4476      4471      4475      4477      4471      4475      4478
      4476      4475      4477      4476      4475      4478      4477      4475      4478
      4475      4478      4479      4475      4478      4480      4475      4478      4485
      4479      4478      4480      4479      4478      4485      4480      4478      4485
      4482      4481      4483      4482      4481      4484      4482      4481      4485
      4483      4481      4484      4483      4481      4485      4484      4481      4485
      4481      4484      4486      4478      4485      4481      4484      4486      4487
      4484      4486      4488      4484      4486      4489      4487      4486      4488
      4487      4486      4489      4488      4486      4489      4486      4489      4490
      4486      4489      4491      4486      4489      4497      4490      4489      4491
      4490      4489      4497      4491      4489      4497      4489      4491      4492
      4491      4492      4493      4491      4492      4494      4493      4492      4494
      4492      4494      4495      4492      4494      4496      4492      4494      4506
      4495      4494      4496      4495      4494      4506      4496      4494      4506
      4489      4497      4498      4489      4497      4499      4489      4497      4500
      4498      4497      4499      4498      4497      4500      4499      4497      4500
      4497      4500      4501      4500      4501      4502      4500      4501      4503
      4502      4501      4503      4501      4503      4504      4501      4503      4505
      4501      4503      4553      4504      4503      4505      4504      4503      4553
      4505      4503      4553      4494      4506      4507      4494      4506      4508
      4494      4506      4509      4507      4506      4508      4507      4506      4509
      4508      4506      4509      4506      4509      4510      4506      4509      4511
      4506      4509      4512      4510      4509      4511      4510      4509      4512
      4511      4509      4512      4509      4512      4513      4509      4512      4514
      4509      4512      4515      4513      4512      4514      4513      4512      4515
      4514      4512      4515      4512      4515      4516      4512      4515      4517
      4512      4515      4518      4516      4515      4517      4516      4515      4518
      4517      4515      4518      4515      4518      4519      4515      4518      4520
      4515      4518      4521      4519      4518      4520      4519      4518      4521
      4520      4518      4521      4518      4521      4522      4518      4521      4523
      4518      4521      4524      4522      4521      4523      4522      4521      4524
      4523      4521      4524      4521      4524      4525      4521      4524      4526
      4525      4524      4526      4524      4526      4527      4524      4526      4528
      4527      4526      4528      4526      4528      4529      4526      4528      4530
      4526      4528      4531      4529      4528      4530      4529      4528      4531
      4530      4528      4531      4528      4531      4532      4528      4531      4533
      4528      4531      4534      4532      4531      4533      4532      4531      4534
      4533      4531      4534      4531      4534      4535      4531      4534      4536
      4531      4534      4537      4535      4534      4536      4535      4534      4537
      4536      4534      4537      4534      4537      4538      4534      4537      4539
      4534      4537      4540      4538      4537      4539      4538      4537      4540
      4539      4537      4540      4537      4540      4541      4537      4540      4542
      4537      4540      4543      4541      4540      4542      4541      4540      4543
      4542      4540      4543      4540      4543      4544      4540      4543      4545
      4540      4543      4546      4544      4543      4545      4544      4543      4546
      4545      4543      4546      4543      4546      4547      4543      4546      4548
      4543      4546      4549      4547      4546      4548      4547      4546      4549
      4548      4546      4549      4546      4549      4550      4546      4549      4551
      4546      4549      4552      4550      4549      4551      4550      4549      4552
      4551      4549      4552      4503      4553      4554      4503      4553      4555
      4503      4553      4556      4554      4553      4555      4554      4553      4556
      4555      4553      4556      4553      4556      4557      4553      4556      4558
      4553      4556      4559      4557      4556      4558      4557      4556      4559
      4558      4556      4559      4556      4559      4560      4556      4559      4561
      4556      4559      4562      4560      4559      4561      4560      4559      4562
      4561      4559      4562      4559      4562      4563      4559      4562      4564
      4559      4562      4565      4563      4562      4564      4563      4562      4565
      4564      4562      4565      4562      4565      4566      4562      4565      4567
      4562      4565      4568      4566      4565      4567      4566      4565      4568
      4567      4565      4568      4565      4568      4569      4565      4568      4570
      4565      4568      4571      4569      4568      4570      4569      4568      4571
      4570      4568      4571      4568      4571      4572      4568      4571      4573
      4568      4571      4574      4572      4571      4573      4572      4571      4574
      4573      4571      4574      4571      4574      4575      4571      4574      4576
      4571      4574      4577      4575      4574      4576      4575      4574      4577
      4576      4574      4577      4574      4577      4578      4574      4577      4579
      4574      4577      4580      4578      4577      4579      4578      4577      4580
      4579      4577      4580      4577      4580      4581      4577      4580      4582
      4577      4580      4583      4581      4580      4582      4581      4580      4583
      4582      4580      4583      4580      4583      4584      4580      4583      4585
      4580      4583      4586      4584      4583      4585      4584      4583      4586
      4585      4583      4586      4583      4586      4587      4583      4586      4588
      4583      4586      4589      4587      4586      4588      4587      4586      4589
      4588      4586      4589      4586      4589      4590      4586      4589      4591
      4586      4589      4592      4590      4589      4591      4590      4589      4592
      4591      4589      4592      4589      4592      4593      4589      4592      4594
      4589      4592      4595      4593      4592      4594      4593      4592      4595
      4594      4592      4595     16098     16097     16101     16098     16097     16105
     16098     16097     16109     16101     16097     16105     16101     16097     16109
     16105     16097     16109     16097     16098     16099     16097     16098     16100
     16097     16098     16113     16099     16098     16100     16099     16098     16113
     16100     16098     16113     16097     16101     16102     16097     16101     16103
     16097     16101     16104     16102     16101     16103     16102     16101     16104
     16103     16101     16104     16097     16105     16106     16097     16105     16107
     16097     16105     16108     16106     16105     16107     16106     16105     16108
     16107     16105     16108     16097     16109     16110     16097     16109     16111
     16097     16109     16112     16110     16109     16111     16110     16109     16112
     16111     16109     16112     16098     16113     16114     16098     16113     16115
     16098     16113     16119     16114     16113     16115     16114     16113     16119
     16115     16113     16119     16117     16116     16118     16117     16116     16119
     16117     16116     16120     16118     16116     16119     16118     16116     16120
     16119     16116     16120     16113     16119     16116     16116     16120     16121
     16120     16121     16122     16120     16121     16123     16120     16121     16124
     16122     16121     16123     16122     16121     16124     16123     16121     16124
     16121     16124     16125     16121     16124     16126     16121     16124     16132
     16125     16124     16126     16125     16124     16132     16126     16124     16132
     16124     16126     16127     16126     16127     16128     16126     16127     16129
     16128     16127     16129     16127     16129     16130     16127     16129     16131
     16127     16129     16141     16130     16129     16131     16130     16129     16141
     16131     16129     16141     16124     16132     16133     16124     16132     16134
     16124     16132     16135     16133     16132     16134     16133     16132     16135
     16134     16132     16135     16132     16135     16136     16135     16136     16137
     16135     16136     16138     16137     16136     16138     16136     16138     16139
     16136     16138     16140     16136     16138     16188     16139     16138     16140
     16139     16138     16188     16140     16138     16188     16129     16141     16142
     16129     16141     16143     16129     16141     16144     16142     16141     16143
     16142     16141     16144     16143     16141     16144     16141     16144     16145
     16141     16144     16146     16141     16144     16147     16145     16144     16146
     16145     16144     16147     16146     16144     16147     16144     16147     16148
     16144     16147     16149     16144     16147     16150     16148     16147     16149
     16148     16147     16150     16149     16147     16150     16147     16150     16151
     16147     16150     16152     16147     16150     16153     16151     16150     16152
     16151     16150     16153     16152     16150     16153     16150     16153     16154
     16150     16153     16155     16150     16153     16156     16154     16153     16155
     16154     16153     16156     16155     16153     16156     16153     16156     16157
     16153     16156     16158     16153     16156     16159     16157     16156     16158
     16157     16156     16159     16158     16156     16159     16156     16159     16160
     16156     16159     16161     16160     16159     16161     16159     16161     16162
     16159     16161     16163     16162     16161     16163     16161     16163     16164
     16161     16163     16165     16161     16163     16166     16164     16163     16165
     16164     16163     16166     16165     16163     16166     16163     16166     16167
     16163     16166     16168     16163     16166     16169     16167     16166     16168
     16167     16166     16169     16168     16166     16169     16166     16169     16170
     16166     16169     16171     16166     16169     16172     16170     16169     16171
     16170     16169     16172     16171     16169     16172     16169     16172     16173
     16169     16172     16174     16169     16172     16175     16173     16172     16174
     16173     16172     16175     16174     16172     16175     16172     16175     16176
     16172     16175     16177     16172     16175     16178     16176     16175     16177
     16176     16175     16178     16177     16175     16178     16175     16178     16179
     16175     16178     16180     16175     16178     16181     16179     16178     16180
     16179     16178     16181     16180     16178     16181     16178     16181     16182
     16178     16181     16183     16178     16181     16184     16182     16181     16183
     16182     16181     16184     16183     16181     16184     16181     16184     16185
     16181     16184     16186     16181     16184     16187     16185     16184     16186
     16185     16184     16187     16186     16184     16187     16138     16188     16189
     16138     16188     16190     16138     16188     16191     16189     16188     16190
     16189     16188     16191     16190     16188     16191     16188     16191     16192
     16188     16191     16193     16188     16191     16194     16192     16191     16193
     16192     16191     16194     16193     16191     16194     16191     16194     16195
     16191     16194     16196     16191     16194     16197     16195     16194     16196
     16195     16194     16197     16196     16194     16197     16194     16197     16198
     16194     16197     16199     16194     16197     16200     16198     16197     16199
     16198     16197     16200     16199     16197     16200     16197     16200     16201
     16197     16200     16202     16197     16200     16203     16201     16200     16202
     16201     16200     16203     16202     16200     16203     16200     16203     16204
     16200     16203     16205     16200     16203     16206     16204     16203     16205
     16204     16203     16206     16205     16203     16206     16203     16206     16207
     16203     16206     16208     16203     16206     16209     16207     16206     16208
     16207     16206     16209     16208     16206     16209     16206     16209     16210
     16206     16209     16211     16206     16209     16212     16210     16209     16211
     16210     16209     16212     16211     16209     16212     16209     16212     16213
     16209     16212     16214     16209     16212     16215     16213     16212     16214
     16213     16212     16215     16214     16212     16215     16212     16215     16216
     16212     16215     16217     16212     16215     16218     16216     16215     16217
     16216     16215     16218     16217     16215     16218     16215     16218     16219
     16215     16218     16220     16215     16218     16221     16219     16218     16220
     16219     16218     16221     16220     16218     16221     16218     16221     16222
     16218     16221     16223     16218     16221     16224     16222     16221     16223
     16222     16221     16224     16223     16221     16224     16221     16224     16225
     16221     16224     16226     16221     16224     16227     16225     16224     16226
     16225     16224     16227     16226     16224     16227     16224     16227     16228
     16224     16227     16229     16224     16227     16230     16228     16227     16229
     16228     16227     16230     16229     16227     16230     16232     16231     16235
     16232     16231     16239     16232     16231     16243     16235     16231     16239
     16235     16231     16243     16239     16231     16243     16231     16232     16233
     16231     16232     16234     16231     16232     16247     16233     16232     16234
     16233     16232     16247     16234     16232     16247     16231     16235     16236
     16231     16235     16237     16231     16235     16238     16236     16235     16237
     16236     16235     16238     16237     16235     16238     16231     16239     16240
     16231     16239     16241     16231     16239     16242     16240     16239     16241
     16240     16239     16242     16241     16239     16242     16231     16243     16244
     16231     16243     16245     16231     16243     16246     16244     16243     16245
     16244     16243     16246     16245     16243     16246     16232     16247     16248
     16232     16247     16249     16232     16247     16253     16248     16247     16249
     16248     16247     16253     16249     16247     16253     16251     16250     16252
     16251     16250     16253     16251     16250     16254     16252     16250     16253
     16252     16250     16254     16253     16250     16254     16247     16253     16250
     16250     16254     16255     16254     16255     16256     16254     16255     16257
     16254     16255     16258     16256     16255     16257     16256     16255     16258
     16257     16255     16258     16255     16258     16259     16255     16258     16260
     16255     16258     16266     16259     16258     16260     16259     16258     16266
     16260     16258     16266     16258     16260     16261     16260     16261     16262
     16260     16261     16263     16262     16261     16263     16261     16263     16264
     16261     16263     16265     16261     16263     16275     16264     16263     16265
     16264     16263     16275     16265     16263     16275     16258     16266     16267
     16258     16266     16268     16258     16266     16269     16267     16266     16268
     16267     16266     16269     16268     16266     16269     16266     16269     16270
     16269     16270     16271     16269     16270     16272     16271     16270     16272
     16270     16272     16273     16270     16272     16274     16270     16272     16322
     16273     16272     16274     16273     16272     16322     16274     16272     16322
     16263     16275     16276     16263     16275     16277     16263     16275     16278
     16276     16275     16277     16276     16275     16278     16277     16275     16278
     16275     16278     16279     16275     16278     16280     16275     16278     16281
     16279     16278     16280     16279     16278     16281     16280     16278     16281
     16278     16281     16282     16278     16281     16283     16278     16281     16284
     16282     16281     16283     16282     16281     16284     16283     16281     16284
     16281     16284     16285     16281     16284     16286     16281     16284     16287
     16285     16284     16286     16285     16284     16287     16286     16284     16287
     16284     16287     16288     16284     16287     16289     16284     16287     16290
     16288     16287     16289     16288     16287     16290     16289     16287     16290
     16287     16290     16291     16287     16290     16292     16287     16290     16293
     16291     16290     16292     16291     16290     16293     16292     16290     16293
     16290     16293     16294     16290     16293     16295     16294     16293     16295
     16293     16295     16296     16293     16295     16297     16296     16295     16297
     16295     16297     16298     16295     16297     16299     16295     16297     16300
     16298     16297     16299     16298     16297     16300     16299     16297     16300
     16297     16300     16301     16297     16300     16302     16297     16300     16303
     16301     16300     16302     16301     16300     16303     16302     16300     16303
     16300     16303     16304     16300     16303     16305     16300     16303     16306
     16304     16303     16305     16304     16303     16306     16305     16303     16306
     16303     16306     16307     16303     16306     16308     16303     16306     16309
     16307     16306     16308     16307     16306     16309     16308     16306     16309
     16306     16309     16310     16306     16309     16311     16306     16309     16312
     16310     16309     16311     16310     16309     16312     16311     16309     16312
     16309     16312     16313     16309     16312     16314     16309     16312     16315
     16313     16312     16314     16313     16312     16315     16314     16312     16315
     16312     16315     16316     16312     16315     16317     16312     16315     16318
     16316     16315     16317     16316     16315     16318     16317     16315     16318
     16315     16318     16319     16315     16318     16320     16315     16318     16321
     16319     16318     16320     16319     16318     16321     16320     16318     16321
     16272     16322     16323     16272     16322     16324     16272     16322     16325
     16323     16322     16324     16323     16322     16325     16324     16322     16325
     16322     16325     16326     16322     16325     16327     16322     16325     16328
     16326     16325     16327     16326     16325     16328     16327     16325     16328
     16325     16328     16329     16325     16328     16330     16325     16328     16331
     16329     16328     16330     16329     16328     16331     16330     16328     16331
     16328     16331     16332     16328     16331     16333     16328     16331     16334
     16332     16331     16333     16332     16331     16334     16333     16331     16334
     16331     16334     16335     16331     16334     16336     16331     16334     16337
     16335     16334     16336     16335     16334     16337     16336     16334     16337
     16334     16337     16338     16334     16337     16339     16334     16337     16340
     16338     16337     16339     16338     16337     16340     16339     16337     16340
     16337     16340     16341     16337     16340     16342     16337     16340     16343
     16341     16340     16342     16341     16340     16343     16342     16340     16343
     16340     16343     16344     16340     16343     16345     16340     16343     16346
     16344     16343     16345     16344     16343     16346     16345     16343     16346
     16343     16346     16347     16343     16346     16348     16343     16346     16349
     16347     16346     16348     16347     16346     16349     16348     16346     16349
     16346     16349     16350     16346     16349     16351     16346     16349     16352
     16350     16349     16351     16350     16349     16352     16351     16349     16352
     16349     16352     16353     16349     16352     16354     16349     16352     16355
     16353     16352     16354     16353     16352     16355     16354     16352     16355
     16352     16355     16356     16352     16355     16357     16352     16355     16358
     16356     16355     16357     16356     16355     16358     16357     16355     16358
     16355     16358     16359     16355     16358     16360     16355     16358     16361
     16359     16358     16360     16359     16358     16361     16360     16358     16361
     16358     16361     16362     16358     16361     16363     16358     16361     16364
     16362     16361     16363     16362     16361     16364     16363     16361     16364
      9996      9995      9997      9996      9995      9998      9996      9995      9999
      9997      9995      9998      9997      9995      9999      9998      9995      9999
      9995      9999     10000      9995      9999     10001      9995      9999     10004
     10000      9999     10001     10000      9999     10004     10001      9999     10004
      9999     10001     10002      9999     10001     10003     10002     10001     10003
      9999     10004     10005      9999     10004     10006      9999     10004     10010
     10005     10004     10006     10005     10004     10010     10006     10004     10010
     10008     10007     10009     10008     10007     10010     10008     10007     10011
     10009     10007     10010     10009     10007     10011     10010     10007     10011
     10004     10010     10007     10007     10011     10012     10011     10012     10013
     10011     10012     10014     10011     10012     10015     10013     10012     10014
     10013     10012     10015     10014     10012     10015     10012     10015     10016
     10012     10015     10017     10012     10015     10023     10016     10015     10017
     10016     10015     10023     10017     10015     10023     10015     10017     10018
     10017     10018     10019     10017     10018     10020     10019     10018     10020
     10018     10020     10021     10018     10020     10022     10018     10020     10032
     10021     10020     10022     10021     10020     10032     10022     10020     10032
     10015     10023     10024     10015     10023     10025     10015     10023     10026
     10024     10023     10025     10024     10023     10026     10025     10023     10026
     10023     10026     10027     10026     10027     10028     10026     10027     10029
     10028     10027     10029     10027     10029     10030     10027     10029     10031
     10027     10029     10079     10030     10029     10031     10030     10029     10079
     10031     10029     10079     10020     10032     10033     10020     10032     10034
     10020     10032     10035     10033     10032     10034     10033     10032     10035
     10034     10032     10035     10032     10035     10036     10032     10035     10037
     10032     10035     10038     10036     10035     10037     10036     10035     10038
     10037     10035     10038     10035     10038     10039     10035     10038     10040
     10035     10038     10041     10039     10038     10040     10039     10038     10041
     10040     10038     10041     10038     10041     10042     10038     10041     10043
     10038     10041     10044     10042     10041     10043     10042     10041     10044
     10043     10041     10044     10041     10044     10045     10041     10044     10046
     10041     10044     10047     10045     10044     10046     10045     10044     10047
     10046     10044     10047     10044     10047     10048     10044     10047     10049
     10044     10047     10050     10048     10047     10049     10048     10047     10050
     10049     10047     10050     10047     10050     10051     10047     10050     10052
     10051     10050     10052     10050     10052     10053     10050     10052     10054
     10053     10052     10054     10052     10054     10055     10052     10054     10056
     10052     10054     10057     10055     10054     10056     10055     10054     10057
     10056     10054     10057     10054     10057     10058     10054     10057     10059
     10054     10057     10060     10058     10057     10059     10058     10057     10060
     10059     10057     10060     10057     10060     10061     10057     10060     10062
     10057     10060     10063     10061     10060     10062     10061     10060     10063
     10062     10060     10063     10060     10063     10064     10060     10063     10065
     10060     10063     10066     10064     10063     10065     10064     10063     10066
     10065     10063     10066     10063     10066     10067     10063     10066     10068
     10063     10066     10069     10067     10066     10068     10067     10066     10069
     10068     10066     10069     10066     10069     10070     10066     10069     10071
     10066     10069     10072     10070     10069     10071     10070     10069     10072
     10071     10069     10072     10069     10072     10073     10069     10072     10074
     10069     10072     10075     10073     10072     10074     10073     10072     10075
     10074     10072     10075     10072     10075     10076     10072     10075     10077
     10072     10075     10078     10076     10075     10077     10076     10075     10078
     10077     10075     10078     10029     10079     10080     10029     10079     10081
     10029     10079     10082     10080     10079     10081     10080     10079     10082
     10081     10079     10082     10079     10082     10083     10079     10082     10084
     10079     10082     10085     10083     10082     10084     10083     10082     10085
     10084     10082     10085     10082     10085     10086     10082     10085     10087
     10082     10085     10088     10086     10085     10087     10086     10085     10088
     10087     10085     10088     10085     10088     10089     10085     10088     10090
     10085     10088     10091     10089     10088     10090     10089     10088     10091
     10090     10088     10091     10088     10091     10092     10088     10091     10093
     10088     10091     10094     10092     10091     10093     10092     10091     10094
     10093     10091     10094     10091     10094     10095     10091     10094     10096
     10091     10094     10097     10095     10094     10096     10095     10094     10097
     10096     10094     10097     10094     10097     10098     10094     10097     10099
     10094     10097     10100     10098     10097     10099     10098     10097     10100
     10099     10097     10100     10097     10100     10101     10097     10100     10102
     10097     10100     10103     10101     10100     10102     10101     10100     10103
     10102     10100     10103     10100     10103     10104     10100     10103     10105
     10100     10103     10106     10104     10103     10105     10104     10103     10106
     10105     10103     10106     10103     10106     10107     10103     10106     10108
     10103     10106     10109     10107     10106     10108     10107     10106     10109
     10108     10106     10109     10106     10109     10110     10106     10109     10111
     10106     10109     10112     10110     10109     10111     10110     10109     10112
     10111     10109     10112     10109     10112     10113     10109     10112     10114
     10109     10112     10115     10113     10112     10114     10113     10112     10115
     10114     10112     10115     10112     10115     10116     10112     10115     10117
     10112     10115     10118     10116     10115     10117     10116     10115     10118
     10117     10115     10118     10115     10118     10119     10115     10118     10120
     10115     10118     10121     10119     10118     10120     10119     10118     10121
     10120     10118     10121     16366     16365     16369     16366     16365     16373
     16366     16365     16377     16369     16365     16373     16369     16365     16377
     16373     16365     16377     16365     16366     16367     16365     16366     16368
     16365     16366     16381     16367     16366     16368     16367     16366     16381
     16368     16366     16381     16365     16369     16370     16365     16369     16371
     16365     16369     16372     16370     16369     16371     16370     16369     16372
     16371     16369     16372     16365     16373     16374     16365     16373     16375
     16365     16373     16376     16374     16373     16375     16374     16373     16376
     16375     16373     16376     16365     16377     16378     16365     16377     16379
     16365     16377     16380     16378     16377     16379     16378     16377     16380
     16379     16377     16380     16366     16381     16382     16366     16381     16383
     16366     16381     16387     16382     16381     16383     16382     16381     16387
     16383     16381     16387     16385     16384     16386     16385     16384     16387
     16385     16384     16388     16386     16384     16387     16386     16384     16388
     16387     16384     16388     16381     16387     16384     16384     16388     16389
     16388     16389     16390     16388     16389     16391     16388     16389     16392
     16390     16389     16391     16390     16389     16392     16391     16389     16392
     16389     16392     16393     16389     16392     16394     16389     16392     16400
     16393     16392     16394     16393     16392     16400     16394     16392     16400
     16392     16394     16395     16394     16395     16396     16394     16395     16397
     16396     16395     16397     16395     16397     16398     16395     16397     16399
     16395     16397     16409     16398     16397     16399     16398     16397     16409
     16399     16397     16409     16392     16400     16401     16392     16400     16402
     16392     16400     16403     16401     16400     16402     16401     16400     16403
     16402     16400     16403     16400     16403     16404     16403     16404     16405
     16403     16404     16406     16405     16404     16406     16404     16406     16407
     16404     16406     16408     16404     16406     16456     16407     16406     16408
     16407     16406     16456     16408     16406     16456     16397     16409     16410
     16397     16409     16411     16397     16409     16412     16410     16409     16411
     16410     16409     16412     16411     16409     16412     16409     16412     16413
     16409     16412     16414     16409     16412     16415     16413     16412     16414
     16413     16412     16415     16414     16412     16415     16412     16415     16416
     16412     16415     16417     16412     16415     16418     16416     16415     16417
     16416     16415     16418     16417     16415     16418     16415     16418     16419
     16415     16418     16420     16415     16418     16421     16419     16418     16420
     16419     16418     16421     16420     16418     16421     16418     16421     16422
     16418     16421     16423     16418     16421     16424     16422     16421     16423
     16422     16421     16424     16423     16421     16424     16421     16424     16425
     16421     16424     16426     16421     16424     16427     16425     16424     16426
     16425     16424     16427     16426     16424     16427     16424     16427     16428
     16424     16427     16429     16428     16427     16429     16427     16429     16430
     16427     16429     16431     16430     16429     16431     16429     16431     16432
     16429     16431     16433     16429     16431     16434     16432     16431     16433
     16432     16431     16434     16433     16431     16434     16431     16434     16435
     16431     16434     16436     16431     16434     16437     16435     16434     16436
     16435     16434     16437     16436     16434     16437     16434     16437     16438
     16434     16437     16439     16434     16437     16440     16438     16437     16439
     16438     16437     16440     16439     16437     16440     16437     16440     16441
     16437     16440     16442     16437     16440     16443     16441     16440     16442
     16441     16440     16443     16442     16440     16443     16440     16443     16444
     16440     16443     16445     16440     16443     16446     16444     16443     16445
     16444     16443     16446     16445     16443     16446     16443     16446     16447
     16443     16446     16448     16443     16446     16449     16447     16446     16448
     16447     16446     16449     16448     16446     16449     16446     16449     16450
     16446     16449     16451     16446     16449     16452     16450     16449     16451
     16450     16449     16452     16451     16449     16452     16449     16452     16453
     16449     16452     16454     16449     16452     16455     16453     16452     16454
     16453     16452     16455     16454     16452     16455     16406     16456     16457
     16406     16456     16458     16406     16456     16459     16457     16456     16458
     16457     16456     16459     16458     16456     16459     16456     16459     16460
     16456     16459     16461     16456     16459     16462     16460     16459     16461
     16460     16459     16462     16461     16459     16462     16459     16462     16463
     16459     16462     16464     16459     16462     16465     16463     16462     16464
     16463     16462     16465     16464     16462     16465     16462     16465     16466
     16462     16465     16467     16462     16465     16468     16466     16465     16467
     16466     16465     16468     16467     16465     16468     16465     16468     16469
     16465     16468     16470     16465     16468     16471     16469     16468     16470
     16469     16468     16471     16470     16468     16471     16468     16471     16472
     16468     16471     16473     16468     16471     16474     16472     16471     16473
     16472     16471     16474     16473     16471     16474     16471     16474     16475
     16471     16474     16476     16471     16474     16477     16475     16474     16476
     16475     16474     16477     16476     16474     16477     16474     16477     16478
     16474     16477     16479     16474     16477     16480     16478     16477     16479
     16478     16477     16480     16479     16477     16480     16477     16480     16481
     16477     16480     16482     16477     16480     16483     16481     16480     16482
     16481     16480     16483     16482     16480     16483     16480     16483     16484
     16480     16483     16485     16480     16483     16486     16484     16483     16485
     16484     16483     16486     16485     16483     16486     16483     16486     16487
     16483     16486     16488     16483     16486     16489     16487     16486     16488
     16487     16486     16489     16488     16486     16489     16486     16489     16490
     16486     16489     16491     16486     16489     16492     16490     16489     16491
     16490     16489     16492     16491     16489     16492     16489     16492     16493
     16489     16492     16494     16489     16492     16495     16493     16492     16494
     16493     16492     16495     16494     16492     16495     16492     16495     16496
     16492     16495     16497     16492     16495     16498     16496     16495     16497
     16496     16495     16498     16497     16495     16498       816       815       817
       816       815       819       816       815       861       817       815       819
       817       815       861       819       815       861       815       817       818
       815       819       820       815       819       821       815       819       822
       820       819       821       820       819       822       821       819       822
       819       822       823       819       822       853       823       822       853
       822       823       824       822       823       825       824       823       825
       823       825       826       823       825       827       823       825       828
       826       825       827       826       825       828       827       825       828
       825       828       829       825       828       830       825       828       851
       829       828       830       829       828       851       830       828       851
       828       830       831       828       830       832       828       830       840
       831       830       832       831       830       840       832       830       840
       830       832       833       830       832       834       830       832       835
       833       832       834       833       832       835       834       832       835
       832       835       836       832       835       837       832       835       838
       836       835       837       836       835       838       837       835       838
       835       838       839       835       838       840       835       838       864
       839       838       840       839       838       864       840       838       864
       830       840       838       830       840       841       830       840       845
       838       840       841       838       840       845       841       840       845
       840       841       842       840       841       843       840       841       844
       842       841       843       842       841       844       843       841       844
       840       845       846       840       845       847       840       845       848
       846       845       847       846       845       848       847       845       848
       845       848       849       845       848       850       845       848       851
       849       848       850       849       848       851       850       848       851
       828       851       848       828       851       852       828       851       853
       848       851       852       848       851       853       852       851       853
       822       853       851       822       853       854       822       853       858
       851       853       854       851       853       858       854       853       858
       853       854       855       853       854       856       853       854       857
       855       854       856       855       854       857       856       854       857
       853       858       859       853       858       860       853       858       861
       859       858       860       859       858       861       860       858       861
       815       861       858       815       861       862       815       861       863
       858       861       862       858       861       863       862       861       863
       838       864       865       838       864       866       838       864       870
       865       864       866       865       864       870       866       864       870
       864       866       867       864       866       868       864       866       869
       867       866       868       867       866       869       868       866       869
       864       870       871       864       870       872       864       870       873
       871       870       872       871       870       873       872       870       873
       870       873       874       870       873       875       870       873       876
       874       873       875       874       873       876       875       873       876
       873       876       877       873       876       878       873       876       879
       877       876       878       877       876       879       878       876       879
       876       879       880       876       879       881       876       879       885
       880       879       881       880       879       885       881       879       885
       879       881       882       879       881       883       879       881       884
       882       881       883       882       881       884       883       881       884
       879       885       886       879       885       887       879       885       888
       886       885       887       886       885       888       887       885       888
       890       889       891       890       889       893       890       889       935
       891       889       893       891       889       935       893       889       935
       889       891       892       889       893       894       889       893       895
       889       893       896       894       893       895       894       893       896
       895       893       896       893       896       897       893       896       927
       897       896       927       896       897       898       896       897       899
       898       897       899       897       899       900       897       899       901
       897       899       902       900       899       901       900       899       902
       901       899       902       899       902       903       899       902       904
       899       902       925       903       902       904       903       902       925
       904       902       925       902       904       905       902       904       906
       902       904       914       905       904       906       905       904       914
       906       904       914       904       906       907       904       906       908
       904       906       909       907       906       908       907       906       909
       908       906       909       906       909       910       906       909       911
       906       909       912       910       909       911       910       909       912
       911       909       912       909       912       913       909       912       914
       909       912       938       913       912       914       913       912       938
       914       912       938       904       914       912       904       914       915
       904       914       919       912       914       915       912       914       919
       915       914       919       914       915       916       914       915       917
       914       915       918       916       915       917       916       915       918
       917       915       918       914       919       920       914       919       921
       914       919       922       920       919       921       920       919       922
       921       919       922       919       922       923       919       922       924
       919       922       925       923       922       924       923       922       925
       924       922       925       902       925       922       902       925       926
       902       925       927       922       925       926       922       925       927
       926       925       927       896       927       925       896       927       928
       896       927       932       925       927       928       925       927       932
       928       927       932       927       928       929       927       928       930
       927       928       931       929       928       930       929       928       931
       930       928       931       927       932       933       927       932       934
       927       932       935       933       932       934       933       932       935
       934       932       935       889       935       932       889       935       936
       889       935       937       932       935       936       932       935       937
       936       935       937       912       938       939       912       938       940
       912       938       944       939       938       940       939       938       944
       940       938       944       938       940       941       938       940       942
       938       940       943       941       940       942       941       940       943
       942       940       943       938       944       945       938       944       946
       938       944       947       945       944       946       945       944       947
       946       944       947       944       947       948       944       947       949
       944       947       950       948       947       949       948       947       950
       949       947       950       947       950       951       947       950       952
       947       950       953       951       950       952       951       950       953
       952       950       953       950       953       954       950       953       955
       950       953       959       954       953       955       954       953       959
       955       953       959       953       955       956       953       955       957
       953       955       958       956       955       957       956       955       958
       957       955       958       953       959       960       953       959       961
       953       959       962       960       959       961       960       959       962
       961       959       962      4597      4596      4598      4597      4596      4599
      4597      4596      4600      4598      4596      4599      4598      4596      4600
      4599      4596      4600      4596      4600      4601      4596      4600      4602
      4596      4600      4603      4601      4600      4602      4601      4600      4603
      4602      4600      4603      4600      4603      4604      4600      4603      4605
      4600      4603      4610      4604      4603      4605      4604      4603      4610
      4605      4603      4610      4607      4606      4608      4607      4606      4609
      4607      4606      4610      4608      4606      4609      4608      4606      4610
      4609      4606      4610      4606      4609      4611      4603      4610      4606
      4609      4611      4612      4609      4611      4613      4609      4611      4614
      4612      4611      4613      4612      4611      4614      4613      4611      4614
      4611      4614      4615      4611      4614      4616      4611      4614      4622
      4615      4614      4616      4615      4614      4622      4616      4614      4622
      4614      4616      4617      4616      4617      4618      4616      4617      4619
      4618      4617      4619      4617      4619      4620      4617      4619      4621
      4617      4619      4631      4620      4619      4621      4620      4619      4631
      4621      4619      4631      4614      4622      4623      4614      4622      4624
      4614      4622      4625      4623      4622      4624      4623      4622      4625
      4624      4622      4625      4622      4625      4626      4625      4626      4627
      4625      4626      4628      4627      4626      4628      4626      4628      4629
      4626      4628      4630      4626      4628      4678      4629      4628      4630
      4629      4628      4678      4630      4628      4678      4619      4631      4632
      4619      4631      4633      4619      4631      4634      4632      4631      4633
      4632      4631      4634      4633      4631      4634      4631      4634      4635
      4631      4634      4636      4631      4634      4637      4635      4634      4636
      4635      4634      4637      4636      4634      4637      4634      4637      4638
      4634      4637      4639      4634      4637      4640      4638      4637      4639
      4638      4637      4640      4639      4637      4640      4637      4640      4641
      4637      4640      4642      4637      4640      4643      4641      4640      4642
      4641      4640      4643      4642      4640      4643      4640      4643      4644
      4640      4643      4645      4640      4643      4646      4644      4643      4645
      4644      4643      4646      4645      4643      4646      4643      4646      4647
      4643      4646      4648      4643      4646      4649      4647      4646      4648
      4647      4646      4649      4648      4646      4649      4646      4649      4650
      4646      4649      4651      4650      4649      4651      4649      4651      4652
      4649      4651      4653      4652      4651      4653      4651      4653      4654
      4651      4653      4655      4651      4653      4656      4654      4653      4655
      4654      4653      4656      4655      4653      4656      4653      4656      4657
      4653      4656      4658      4653      4656      4659      4657      4656      4658
      4657      4656      4659      4658      4656      4659      4656      4659      4660
      4656      4659      4661      4656      4659      4662      4660      4659      4661
      4660      4659      4662      4661      4659      4662      4659      4662      4663
      4659      4662      4664      4659      4662      4665      4663      4662      4664
      4663      4662      4665      4664      4662      4665      4662      4665      4666
      4662      4665      4667      4662      4665      4668      4666      4665      4667
      4666      4665      4668      4667      4665      4668      4665      4668      4669
      4665      4668      4670      4665      4668      4671      4669      4668      4670
      4669      4668      4671      4670      4668      4671      4668      4671      4672
      4668      4671      4673      4668      4671      4674      4672      4671      4673
      4672      4671      4674      4673      4671      4674      4671      4674      4675
      4671      4674      4676      4671      4674      4677      4675      4674      4676
      4675      4674      4677      4676      4674      4677      4628      4678      4679
      4628      4678      4680      4628      4678      4681      4679      4678      4680
      4679      4678      4681      4680      4678      4681      4678      4681      4682
      4678      4681      4683      4678      4681      4684      4682      4681      4683
      4682      4681      4684      4683      4681      4684      4681      4684      4685
      4681      4684      4686      4681      4684      4687      4685      4684      4686
      4685      4684      4687      4686      4684      4687      4684      4687      4688
      4684      4687      4689      4684      4687      4690      4688      4687      4689
      4688      4687      4690      4689      4687      4690      4687      4690      4691
      4687      4690      4692      4687      4690      4693      4691      4690      4692
      4691      4690      4693      4692      4690      4693      4690      4693      4694
      4690      4693      4695      4690      4693      4696      4694      4693      4695
      4694      4693      4696      4695      4693      4696      4693      4696      4697
      4693      4696      4698      4693      4696      4699      4697      4696      4698
      4697      4696      4699      4698      4696      4699      4696      4699      4700
      4696      4699      4701      4696      4699      4702      4700      4699      4701
      4700      4699      4702      4701      4699      4702      4699      4702      4703
      4699      4702      4704      4699      4702      4705      4703      4702      4704
      4703      4702      4705      4704      4702      4705      4702      4705      4706
      4702      4705      4707      4702      4705      4708      4706      4705      4707
      4706      4705      4708      4707      4705      4708      4705      4708      4709
      4705      4708      4710      4705      4708      4711      4709      4708      4710
      4709      4708      4711      4710      4708      4711      4708      4711      4712
      4708      4711      4713      4708      4711      4714      4712      4711      4713
      4712      4711      4714      4713      4711      4714      4711      4714      4715
      4711      4714      4716      4711      4714      4717      4715      4714      4716
      4715      4714      4717      4716      4714      4717      4714      4717      4718
      4714      4717      4719      4714      4717      4720      4718      4717      4719
      4718      4717      4720      4719      4717      4720     21866     21865     21867
     21866     21865     21869     21866     21865     21885     21867     21865     21869
     21867     21865     21885     21869     21865     21885     21865     21867     21868
     21865     21869     21870     21865     21869     21871     21865     21869     21873
     21870     21869     21871     21870     21869     21873     21871     21869     21873
     21869     21871     21872     21869     21873     21874     21869     21873     21875
     21869     21873     21877     21874     21873     21875     21874     21873     21877
     21875     21873     21877     21873     21875     21876     21873     21877     21878
     21873     21877     21879     21873     21877     21881     21878     21877     21879
     21878     21877     21881     21879     21877     21881     21877     21879     21880
     21877     21881     21882     21877     21881     21883     21877     21881     21885
     21882     21881     21883     21882     21881     21885     21883     21881     21885
     21881     21883     21884     21865     21885     21881     21865     21885     21886
     21865     21885     21890     21881     21885     21886     21881     21885     21890
     21886     21885     21890     21888     21887     21889     21888     21887     21890
     21888     21887     21891     21889     21887     21890     21889     21887     21891
     21890     21887     21891     21885     21890     21887     21887     21891     21892
     21891     21892     21893     21891     21892     21894     21891     21892     21895
     21893     21892     21894     21893     21892     21895     21894     21892     21895
     21892     21895     21896     21892     21895     21897     21892     21895     21903
     21896     21895     21897     21896     21895     21903     21897     21895     21903
     21895     21897     21898     21897     21898     21899     21897     21898     21900
     21899     21898     21900     21898     21900     21901     21898     21900     21902
     21898     21900     21912     21901     21900     21902     21901     21900     21912
     21902     21900     21912     21895     21903     21904     21895     21903     21905
     21895     21903     21906     21904     21903     21905     21904     21903     21906
     21905     21903     21906     21903     21906     21907     21906     21907     21908
     21906     21907     21909     21908     21907     21909     21907     21909     21910
     21907     21909     21911     21907     21909     21959     21910     21909     21911
     21910     21909     21959     21911     21909     21959     21900     21912     21913
     21900     21912     21914     21900     21912     21915     21913     21912     21914
     21913     21912     21915     21914     21912     21915     21912     21915     21916
     21912     21915     21917     21912     21915     21918     21916     21915     21917
     21916     21915     21918     21917     21915     21918     21915     21918     21919
     21915     21918     21920     21915     21918     21921     21919     21918     21920
     21919     21918     21921     21920     21918     21921     21918     21921     21922
     21918     21921     21923     21918     21921     21924     21922     21921     21923
     21922     21921     21924     21923     21921     21924     21921     21924     21925
     21921     21924     21926     21921     21924     21927     21925     21924     21926
     21925     21924     21927     21926     21924     21927     21924     21927     21928
     21924     21927     21929     21924     21927     21930     21928     21927     21929
     21928     21927     21930     21929     21927     21930     21927     21930     21931
     21927     21930     21932     21931     21930     21932     21930     21932     21933
     21930     21932     21934     21933     21932     21934     21932     21934     21935
     21932     21934     21936     21932     21934     21937     21935     21934     21936
     21935     21934     21937     21936     21934     21937     21934     21937     21938
     21934     21937     21939     21934     21937     21940     21938     21937     21939
     21938     21937     21940     21939     21937     21940     21937     21940     21941
     21937     21940     21942     21937     21940     21943     21941     21940     21942
     21941     21940     21943     21942     21940     21943     21940     21943     21944
     21940     21943     21945     21940     21943     21946     21944     21943     21945
     21944     21943     21946     21945     21943     21946     21943     21946     21947
     21943     21946     21948     21943     21946     21949     21947     21946     21948
     21947     21946     21949     21948     21946     21949     21946     21949     21950
     21946     21949     21951     21946     21949     21952     21950     21949     21951
     21950     21949     21952     21951     21949     21952     21949     21952     21953
     21949     21952     21954     21949     21952     21955     21953     21952     21954
     21953     21952     21955     21954     21952     21955     21952     21955     21956
     21952     21955     21957     21952     21955     21958     21956     21955     21957
     21956     21955     21958     21957     21955     21958     21909     21959     21960
     21909     21959     21961     21909     21959     21962     21960     21959     21961
     21960     21959     21962     21961     21959     21962     21959     21962     21963
     21959     21962     21964     21959     21962     21965     21963     21962     21964
     21963     21962     21965     21964     21962     21965     21962     21965     21966
     21962     21965     21967     21962     21965     21968     21966     21965     21967
     21966     21965     21968     21967     21965     21968     21965     21968     21969
     21965     21968     21970     21965     21968     21971     21969     21968     21970
     21969     21968     21971     21970     21968     21971     21968     21971     21972
     21968     21971     21973     21968     21971     21974     21972     21971     21973
     21972     21971     21974     21973     21971     21974     21971     21974     21975
     21971     21974     21976     21971     21974     21977     21975     21974     21976
     21975     21974     21977     21976     21974     21977     21974     21977     21978
     21974     21977     21979     21974     21977     21980     21978     21977     21979
     21978     21977     21980     21979     21977     21980     21977     21980     21981
     21977     21980     21982     21977     21980     21983     21981     21980     21982
     21981     21980     21983     21982     21980     21983     21980     21983     21984
     21980     21983     21985     21980     21983     21986     21984     21983     21985
     21984     21983     21986     21985     21983     21986     21983     21986     21987
     21983     21986     21988     21983     21986     21989     21987     21986     21988
     21987     21986     21989     21988     21986     21989     21986     21989     21990
     21986     21989     21991     21986     21989     21992     21990     21989     21991
     21990     21989     21992     21991     21989     21992     21989     21992     21993
     21989     21992     21994     21989     21992     21995     21993     21992     21994
     21993     21992     21995     21994     21992     21995     21992     21995     21996
     21992     21995     21997     21992     21995     21998     21996     21995     21997
     21996     21995     21998     21997     21995     21998     21995     21998     21999
     21995     21998     22000     21995     21998     22001     21999     21998     22000
     21999     21998     22001     22000     21998     22001      4722      4721      4723
      4722      4721      4724      4722      4721      4725      4723      4721      4724
      4723      4721      4725      4724      4721      4725      4721      4725      4726
      4721      4725      4727      4721      4725      4728      4726      4725      4727
      4726      4725      4728      4727      4725      4728      4725      4728      4729
      4725      4728      4730      4725      4728      4735      4729      4728      4730
      4729      4728      4735      4730      4728      4735      4732      4731      4733
      4732      4731      4734      4732      4731      4735      4733      4731      4734
      4733      4731      4735      4734      4731      4735      4731      4734      4736
      4728      4735      4731      4734      4736      4737      4734      4736      4738
      4734      4736      4739      4737      4736      4738      4737      4736      4739
      4738      4736      4739      4736      4739      4740      4736      4739      4741
      4736      4739      4747      4740      4739      4741      4740      4739      4747
      4741      4739      4747      4739      4741      4742      4741      4742      4743
      4741      4742      4744      4743      4742      4744      4742      4744      4745
      4742      4744      4746      4742      4744      4756      4745      4744      4746
      4745      4744      4756      4746      4744      4756      4739      4747      4748
      4739      4747      4749      4739      4747      4750      4748      4747      4749
      4748      4747      4750      4749      4747      4750      4747      4750      4751
      4750      4751      4752      4750      4751      4753      4752      4751      4753
      4751      4753      4754      4751      4753      4755      4751      4753      4803
      4754      4753      4755      4754      4753      4803      4755      4753      4803
      4744      4756      4757      4744      4756      4758      4744      4756      4759
      4757      4756      4758      4757      4756      4759      4758      4756      4759
      4756      4759      4760      4756      4759      4761      4756      4759      4762
      4760      4759      4761      4760      4759      4762      4761      4759      4762
      4759      4762      4763      4759      4762      4764      4759      4762      4765
      4763      4762      4764      4763      4762      4765      4764      4762      4765
      4762      4765      4766      4762      4765      4767      4762      4765      4768
      4766      4765      4767      4766      4765      4768      4767      4765      4768
      4765      4768      4769      4765      4768      4770      4765      4768      4771
      4769      4768      4770      4769      4768      4771      4770      4768      4771
      4768      4771      4772      4768      4771      4773      4768      4771      4774
      4772      4771      4773      4772      4771      4774      4773      4771      4774
      4771      4774      4775      4771      4774      4776      4775      4774      4776
      4774      4776      4777      4774      4776      4778      4777      4776      4778
      4776      4778      4779      4776      4778      4780      4776      4778      4781
      4779      4778      4780      4779      4778      4781      4780      4778      4781
      4778      4781      4782      4778      4781      4783      4778      4781      4784
      4782      4781      4783      4782      4781      4784      4783      4781      4784
      4781      4784      4785      4781      4784      4786      4781      4784      4787
      4785      4784      4786      4785      4784      4787      4786      4784      4787
      4784      4787      4788      4784      4787      4789      4784      4787      4790
      4788      4787      4789      4788      4787      4790      4789      4787      4790
      4787      4790      4791      4787      4790      4792      4787      4790      4793
      4791      4790      4792      4791      4790      4793      4792      4790      4793
      4790      4793      4794      4790      4793      4795      4790      4793      4796
      4794      4793      4795      4794      4793      4796      4795      4793      4796
      4793      4796      4797      4793      4796      4798      4793      4796      4799
      4797      4796      4798      4797      4796      4799      4798      4796      4799
      4796      4799      4800      4796      4799      4801      4796      4799      4802
      4800      4799      4801      4800      4799      4802      4801      4799      4802
      4753      4803      4804      4753      4803      4805      4753      4803      4806
      4804      4803      4805      4804      4803      4806      4805      4803      4806
      4803      4806      4807      4803      4806      4808      4803      4806      4809
      4807      4806      4808      4807      4806      4809      4808      4806      4809
      4806      4809      4810      4806      4809      4811      4806      4809      4812
      4810      4809      4811      4810      4809      4812      4811      4809      4812
      4809      4812      4813      4809      4812      4814      4809      4812      4815
      4813      4812      4814      4813      4812      4815      4814      4812      4815
      4812      4815      4816      4812      4815      4817      4812      4815      4818
      4816      4815      4817      4816      4815      4818      4817      4815      4818
      4815      4818      4819      4815      4818      4820      4815      4818      4821
      4819      4818      4820      4819      4818      4821      4820      4818      4821
      4818      4821      4822      4818      4821      4823      4818      4821      4824
      4822      4821      4823      4822      4821      4824      4823      4821      4824
      4821      4824      4825      4821      4824      4826      4821      4824      4827
      4825      4824      4826      4825      4824      4827      4826      4824      4827
      4824      4827      4828      4824      4827      4829      4824      4827      4830
      4828      4827      4829      4828      4827      4830      4829      4827      4830
      4827      4830      4831      4827      4830      4832      4827      4830      4833
      4831      4830      4832      4831      4830      4833      4832      4830      4833
      4830      4833      4834      4830      4833      4835      4830      4833      4836
      4834      4833      4835      4834      4833      4836      4835      4833      4836
      4833      4836      4837      4833      4836      4838      4833      4836      4839
      4837      4836      4838      4837      4836      4839      4838      4836      4839
      4836      4839      4840      4836      4839      4841      4836      4839      4842
      4840      4839      4841      4840      4839      4842      4841      4839      4842
      4839      4842      4843      4839      4842      4844      4839      4842      4845
      4843      4842      4844      4843      4842      4845      4844      4842      4845
      4847      4846      4848      4847      4846      4849      4847      4846      4850
      4848      4846      4849      4848      4846      4850      4849      4846      4850
      4846      4850      4851      4846      4850      4852      4846      4850      4853
      4851      4850      4852      4851      4850      4853      4852      4850      4853
      4850      4853      4854      4850      4853      4855      4850      4853      4860
      4854      4853      4855      4854      4853      4860      4855      4853      4860
      4857      4856      4858      4857      4856      4859      4857      4856      4860
      4858      4856      4859      4858      4856      4860      4859      4856      4860
      4856      4859      4861      4853      4860      4856      4859      4861      4862
      4859      4861      4863      4859      4861      4864      4862      4861      4863
      4862      4861      4864      4863      4861      4864      4861      4864      4865
      4861      4864      4866      4861      4864      4872      4865      4864      4866
      4865      4864      4872      4866      4864      4872      4864      4866      4867
      4866      4867      4868      4866      4867      4869      4868      4867      4869
      4867      4869      4870      4867      4869      4871      4867      4869      4881
      4870      4869      4871      4870      4869      4881      4871      4869      4881
      4864      4872      4873      4864      4872      4874      4864      4872      4875
      4873      4872      4874      4873      4872      4875      4874      4872      4875
      4872      4875      4876      4875      4876      4877      4875      4876      4878
      4877      4876      4878      4876      4878      4879      4876      4878      4880
      4876      4878      4928      4879      4878      4880      4879      4878      4928
      4880      4878      4928      4869      4881      4882      4869      4881      4883
      4869      4881      4884      4882      4881      4883      4882      4881      4884
      4883      4881      4884      4881      4884      4885      4881      4884      4886
      4881      4884      4887      4885      4884      4886      4885      4884      4887
      4886      4884      4887      4884      4887      4888      4884      4887      4889
      4884      4887      4890      4888      4887      4889      4888      4887      4890
      4889      4887      4890      4887      4890      4891      4887      4890      4892
      4887      4890      4893      4891      4890      4892      4891      4890      4893
      4892      4890      4893      4890      4893      4894      4890      4893      4895
      4890      4893      4896      4894      4893      4895      4894      4893      4896
      4895      4893      4896      4893      4896      4897      4893      4896      4898
      4893      4896      4899      4897      4896      4898      4897      4896      4899
      4898      4896      4899      4896      4899      4900      4896      4899      4901
      4900      4899      4901      4899      4901      4902      4899      4901      4903
      4902      4901      4903      4901      4903      4904      4901      4903      4905
      4901      4903      4906      4904      4903      4905      4904      4903      4906
      4905      4903      4906      4903      4906      4907      4903      4906      4908
      4903      4906      4909      4907      4906      4908      4907      4906      4909
      4908      4906      4909      4906      4909      4910      4906      4909      4911
      4906      4909      4912      4910      4909      4911      4910      4909      4912
      4911      4909      4912      4909      4912      4913      4909      4912      4914
      4909      4912      4915      4913      4912      4914      4913      4912      4915
      4914      4912      4915      4912      4915      4916      4912      4915      4917
      4912      4915      4918      4916      4915      4917      4916      4915      4918
      4917      4915      4918      4915      4918      4919      4915      4918      4920
      4915      4918      4921      4919      4918      4920      4919      4918      4921
      4920      4918      4921      4918      4921      4922      4918      4921      4923
      4918      4921      4924      4922      4921      4923      4922      4921      4924
      4923      4921      4924      4921      4924      4925      4921      4924      4926
      4921      4924      4927      4925      4924      4926      4925      4924      4927
      4926      4924      4927      4878      4928      4929      4878      4928      4930
      4878      4928      4931      4929      4928      4930      4929      4928      4931
      4930      4928      4931      4928      4931      4932      4928      4931      4933
      4928      4931      4934      4932      4931      4933      4932      4931      4934
      4933      4931      4934      4931      4934      4935      4931      4934      4936
      4931      4934      4937      4935      4934      4936      4935      4934      4937
      4936      4934      4937      4934      4937      4938      4934      4937      4939
      4934      4937      4940      4938      4937      4939      4938      4937      4940
      4939      4937      4940      4937      4940      4941      4937      4940      4942
      4937      4940      4943      4941      4940      4942      4941      4940      4943
      4942      4940      4943      4940      4943      4944      4940      4943      4945
      4940      4943      4946      4944      4943      4945      4944      4943      4946
      4945      4943      4946      4943      4946      4947      4943      4946      4948
      4943      4946      4949      4947      4946      4948      4947      4946      4949
      4948      4946      4949      4946      4949      4950      4946      4949      4951
      4946      4949      4952      4950      4949      4951      4950      4949      4952
      4951      4949      4952      4949      4952      4953      4949      4952      4954
      4949      4952      4955      4953      4952      4954      4953      4952      4955
      4954      4952      4955      4952      4955      4956      4952      4955      4957
      4952      4955      4958      4956      4955      4957      4956      4955      4958
      4957      4955      4958      4955      4958      4959      4955      4958      4960
      4955      4958      4961      4959      4958      4960      4959      4958      4961
      4960      4958      4961      4958      4961      4962      4958      4961      4963
      4958      4961      4964      4962      4961      4963      4962      4961      4964
      4963      4961      4964      4961      4964      4965      4961      4964      4966
      4961      4964      4967      4965      4964      4966      4965      4964      4967
      4966      4964      4967      4964      4967      4968      4964      4967      4969
      4964      4967      4970      4968      4967      4969      4968      4967      4970
      4969      4967      4970     10123     10122     10124     10123     10122     10125
     10123     10122     10126     10124     10122     10125     10124     10122     10126
     10125     10122     10126     10122     10126     10127     10122     10126     10128
     10122     10126     10131     10127     10126     10128     10127     10126     10131
     10128     10126     10131     10126     10128     10129     10126     10128     10130
     10129     10128     10130     10126     10131     10132     10126     10131     10133
     10126     10131     10137     10132     10131     10133     10132     10131     10137
     10133     10131     10137     10135     10134     10136     10135     10134     10137
     10135     10134     10138     10136     10134     10137     10136     10134     10138
     10137     10134     10138     10131     10137     10134     10134     10138     10139
     10138     10139     10140     10138     10139     10141     10138     10139     10142
     10140     10139     10141     10140     10139     10142     10141     10139     10142
     10139     10142     10143     10139     10142     10144     10139     10142     10150
     10143     10142     10144     10143     10142     10150     10144     10142     10150
     10142     10144     10145     10144     10145     10146     10144     10145     10147
     10146     10145     10147     10145     10147     10148     10145     10147     10149
     10145     10147     10159     10148     10147     10149     10148     10147     10159
     10149     10147     10159     10142     10150     10151     10142     10150     10152
     10142     10150     10153     10151     10150     10152     10151     10150     10153
     10152     10150     10153     10150     10153     10154     10153     10154     10155
     10153     10154     10156     10155     10154     10156     10154     10156     10157
     10154     10156     10158     10154     10156     10206     10157     10156     10158
     10157     10156     10206     10158     10156     10206     10147     10159     10160
     10147     10159     10161     10147     10159     10162     10160     10159     10161
     10160     10159     10162     10161     10159     10162     10159     10162     10163
     10159     10162     10164     10159     10162     10165     10163     10162     10164
     10163     10162     10165     10164     10162     10165     10162     10165     10166
     10162     10165     10167     10162     10165     10168     10166     10165     10167
     10166     10165     10168     10167     10165     10168     10165     10168     10169
     10165     10168     10170     10165     10168     10171     10169     10168     10170
     10169     10168     10171     10170     10168     10171     10168     10171     10172
     10168     10171     10173     10168     10171     10174     10172     10171     10173
     10172     10171     10174     10173     10171     10174     10171     10174     10175
     10171     10174     10176     10171     10174     10177     10175     10174     10176
     10175     10174     10177     10176     10174     10177     10174     10177     10178
     10174     10177     10179     10178     10177     10179     10177     10179     10180
     10177     10179     10181     10180     10179     10181     10179     10181     10182
     10179     10181     10183     10179     10181     10184     10182     10181     10183
     10182     10181     10184     10183     10181     10184     10181     10184     10185
     10181     10184     10186     10181     10184     10187     10185     10184     10186
     10185     10184     10187     10186     10184     10187     10184     10187     10188
     10184     10187     10189     10184     10187     10190     10188     10187     10189
     10188     10187     10190     10189     10187     10190     10187     10190     10191
     10187     10190     10192     10187     10190     10193     10191     10190     10192
     10191     10190     10193     10192     10190     10193     10190     10193     10194
     10190     10193     10195     10190     10193     10196     10194     10193     10195
     10194     10193     10196     10195     10193     10196     10193     10196     10197
     10193     10196     10198     10193     10196     10199     10197     10196     10198
     10197     10196     10199     10198     10196     10199     10196     10199     10200
     10196     10199     10201     10196     10199     10202     10200     10199     10201
     10200     10199     10202     10201     10199     10202     10199     10202     10203
     10199     10202     10204     10199     10202     10205     10203     10202     10204
     10203     10202     10205     10204     10202     10205     10156     10206     10207
     10156     10206     10208     10156     10206     10209     10207     10206     10208
     10207     10206     10209     10208     10206     10209     10206     10209     10210
     10206     10209     10211     10206     10209     10212     10210     10209     10211
     10210     10209     10212     10211     10209     10212     10209     10212     10213
     10209     10212     10214     10209     10212     10215     10213     10212     10214
     10213     10212     10215     10214     10212     10215     10212     10215     10216
     10212     10215     10217     10212     10215     10218     10216     10215     10217
     10216     10215     10218     10217     10215     10218     10215     10218     10219
     10215     10218     10220     10215     10218     10221     10219     10218     10220
     10219     10218     10221     10220     10218     10221     10218     10221     10222
     10218     10221     10223     10218     10221     10224     10222     10221     10223
     10222     10221     10224     10223     10221     10224     10221     10224     10225
     10221     10224     10226     10221     10224     10227     10225     10224     10226
     10225     10224     10227     10226     10224     10227     10224     10227     10228
     10224     10227     10229     10224     10227     10230     10228     10227     10229
     10228     10227     10230     10229     10227     10230     10227     10230     10231
     10227     10230     10232     10227     10230     10233     10231     10230     10232
     10231     10230     10233     10232     10230     10233     10230     10233     10234
     10230     10233     10235     10230     10233     10236     10234     10233     10235
     10234     10233     10236     10235     10233     10236     10233     10236     10237
     10233     10236     10238     10233     10236     10239     10237     10236     10238
     10237     10236     10239     10238     10236     10239     10236     10239     10240
     10236     10239     10241     10236     10239     10242     10240     10239     10241
     10240     10239     10242     10241     10239     10242     10239     10242     10243
     10239     10242     10244     10239     10242     10245     10243     10242     10244
     10243     10242     10245     10244     10242     10245     10242     10245     10246
     10242     10245     10247     10242     10245     10248     10246     10245     10247
     10246     10245     10248     10247     10245     10248      4972      4971      4973
      4972      4971      4974      4972      4971      4975      4973      4971      4974
      4973      4971      4975      4974      4971      4975      4971      4975      4976
      4971      4975      4977      4971      4975      4978      4976      4975      4977
      4976      4975      4978      4977      4975      4978      4975      4978      4979
      4975      4978      4980      4975      4978      4985      4979      4978      4980
      4979      4978      4985      4980      4978      4985      4982      4981      4983
      4982      4981      4984      4982      4981      4985      4983      4981      4984
      4983      4981      4985      4984      4981      4985      4981      4984      4986
      4978      4985      4981      4984      4986      4987      4984      4986      4988
      4984      4986      4989      4987      4986      4988      4987      4986      4989
      4988      4986      4989      4986      4989      4990      4986      4989      4991
      4986      4989      4997      4990      4989      4991      4990      4989      4997
      4991      4989      4997      4989      4991      4992      4991      4992      4993
      4991      4992      4994      4993      4992      4994      4992      4994      4995
      4992      4994      4996      4992      4994      5006      4995      4994      4996
      4995      4994      5006      4996      4994      5006      4989      4997      4998
      4989      4997      4999      4989      4997      5000      4998      4997      4999
      4998      4997      5000      4999      4997      5000      4997      5000      5001
      5000      5001      5002      5000      5001      5003      5002      5001      5003
      5001      5003      5004      5001      5003      5005      5001      5003      5053
      5004      5003      5005      5004      5003      5053      5005      5003      5053
      4994      5006      5007      4994      5006      5008      4994      5006      5009
      5007      5006      5008      5007      5006      5009      5008      5006      5009
      5006      5009      5010      5006      5009      5011      5006      5009      5012
      5010      5009      5011      5010      5009      5012      5011      5009      5012
      5009      5012      5013      5009      5012      5014      5009      5012      5015
      5013      5012      5014      5013      5012      5015      5014      5012      5015
      5012      5015      5016      5012      5015      5017      5012      5015      5018
      5016      5015      5017      5016      5015      5018      5017      5015      5018
      5015      5018      5019      5015      5018      5020      5015      5018      5021
      5019      5018      5020      5019      5018      5021      5020      5018      5021
      5018      5021      5022      5018      5021      5023      5018      5021      5024
      5022      5021      5023      5022      5021      5024      5023      5021      5024
      5021      5024      5025      5021      5024      5026      5025      5024      5026
      5024      5026      5027      5024      5026      5028      5027      5026      5028
      5026      5028      5029      5026      5028      5030      5026      5028      5031
      5029      5028      5030      5029      5028      5031      5030      5028      5031
      5028      5031      5032      5028      5031      5033      5028      5031      5034
      5032      5031      5033      5032      5031      5034      5033      5031      5034
      5031      5034      5035      5031      5034      5036      5031      5034      5037
      5035      5034      5036      5035      5034      5037      5036      5034      5037
      5034      5037      5038      5034      5037      5039      5034      5037      5040
      5038      5037      5039      5038      5037      5040      5039      5037      5040
      5037      5040      5041      5037      5040      5042      5037      5040      5043
      5041      5040      5042      5041      5040      5043      5042      5040      5043
      5040      5043      5044      5040      5043      5045      5040      5043      5046
      5044      5043      5045      5044      5043      5046      5045      5043      5046
      5043      5046      5047      5043      5046      5048      5043      5046      5049
      5047      5046      5048      5047      5046      5049      5048      5046      5049
      5046      5049      5050      5046      5049      5051      5046      5049      5052
      5050      5049      5051      5050      5049      5052      5051      5049      5052
      5003      5053      5054      5003      5053      5055      5003      5053      5056
      5054      5053      5055      5054      5053      5056      5055      5053      5056
      5053      5056      5057      5053      5056      5058      5053      5056      5059
      5057      5056      5058      5057      5056      5059      5058      5056      5059
      5056      5059      5060      5056      5059      5061      5056      5059      5062
      5060      5059      5061      5060      5059      5062      5061      5059      5062
      5059      5062      5063      5059      5062      5064      5059      5062      5065
      5063      5062      5064      5063      5062      5065      5064      5062      5065
      5062      5065      5066      5062      5065      5067      5062      5065      5068
      5066      5065      5067      5066      5065      5068      5067      5065      5068
      5065      5068      5069      5065      5068      5070      5065      5068      5071
      5069      5068      5070      5069      5068      5071      5070      5068      5071
      5068      5071      5072      5068      5071      5073      5068      5071      5074
      5072      5071      5073      5072      5071      5074      5073      5071      5074
      5071      5074      5075      5071      5074      5076      5071      5074      5077
      5075      5074      5076      5075      5074      5077      5076      5074      5077
      5074      5077      5078      5074      5077      5079      5074      5077      5080
      5078      5077      5079      5078      5077      5080      5079      5077      5080
      5077      5080      5081      5077      5080      5082      5077      5080      5083
      5081      5080      5082      5081      5080      5083      5082      5080      5083
      5080      5083      5084      5080      5083      5085      5080      5083      5086
      5084      5083      5085      5084      5083      5086      5085      5083      5086
      5083      5086      5087      5083      5086      5088      5083      5086      5089
      5087      5086      5088      5087      5086      5089      5088      5086      5089
      5086      5089      5090      5086      5089      5091      5086      5089      5092
      5090      5089      5091      5090      5089      5092      5091      5089      5092
      5089      5092      5093      5089      5092      5094      5089      5092      5095
      5093      5092      5094      5093      5092      5095      5094      5092      5095
     10250     10249     10251     10250     10249     10252     10250     10249     10253
     10251     10249     10252     10251     10249     10253     10252     10249     10253
     10249     10253     10254     10249     10253     10255     10249     10253     10258
     10254     10253     10255     10254     10253     10258     10255     10253     10258
     10253     10255     10256     10253     10255     10257     10256     10255     10257
     10253     10258     10259     10253     10258     10260     10253     10258     10264
     10259     10258     10260     10259     10258     10264     10260     10258     10264
     10262     10261     10263     10262     10261     10264     10262     10261     10265
     10263     10261     10264     10263     10261     10265     10264     10261     10265
     10258     10264     10261     10261     10265     10266     10265     10266     10267
     10265     10266     10268     10265     10266     10269     10267     10266     10268
     10267     10266     10269     10268     10266     10269     10266     10269     10270
     10266     10269     10271     10266     10269     10277     10270     10269     10271
     10270     10269     10277     10271     10269     10277     10269     10271     10272
     10271     10272     10273     10271     10272     10274     10273     10272     10274
     10272     10274     10275     10272     10274     10276     10272     10274     10286
     10275     10274     10276     10275     10274     10286     10276     10274     10286
     10269     10277     10278     10269     10277     10279     10269     10277     10280
     10278     10277     10279     10278     10277     10280     10279     10277     10280
     10277     10280     10281     10280     10281     10282     10280     10281     10283
     10282     10281     10283     10281     10283     10284     10281     10283     10285
     10281     10283     10333     10284     10283     10285     10284     10283     10333
     10285     10283     10333     10274     10286     10287     10274     10286     10288
     10274     10286     10289     10287     10286     10288     10287     10286     10289
     10288     10286     10289     10286     10289     10290     10286     10289     10291
     10286     10289     10292     10290     10289     10291     10290     10289     10292
     10291     10289     10292     10289     10292     10293     10289     10292     10294
     10289     10292     10295     10293     10292     10294     10293     10292     10295
     10294     10292     10295     10292     10295     10296     10292     10295     10297
     10292     10295     10298     10296     10295     10297     10296     10295     10298
     10297     10295     10298     10295     10298     10299     10295     10298     10300
     10295     10298     10301     10299     10298     10300     10299     10298     10301
     10300     10298     10301     10298     10301     10302     10298     10301     10303
     10298     10301     10304     10302     10301     10303     10302     10301     10304
     10303     10301     10304     10301     10304     10305     10301     10304     10306
     10305     10304     10306     10304     10306     10307     10304     10306     10308
     10307     10306     10308     10306     10308     10309     10306     10308     10310
     10306     10308     10311     10309     10308     10310     10309     10308     10311
     10310     10308     10311     10308     10311     10312     10308     10311     10313
     10308     10311     10314     10312     10311     10313     10312     10311     10314
     10313     10311     10314     10311     10314     10315     10311     10314     10316
     10311     10314     10317     10315     10314     10316     10315     10314     10317
     10316     10314     10317     10314     10317     10318     10314     10317     10319
     10314     10317     10320     10318     10317     10319     10318     10317     10320
     10319     10317     10320     10317     10320     10321     10317     10320     10322
     10317     10320     10323     10321     10320     10322     10321     10320     10323
     10322     10320     10323     10320     10323     10324     10320     10323     10325
     10320     10323     10326     10324     10323     10325     10324     10323     10326
     10325     10323     10326     10323     10326     10327     10323     10326     10328
     10323     10326     10329     10327     10326     10328     10327     10326     10329
     10328     10326     10329     10326     10329     10330     10326     10329     10331
     10326     10329     10332     10330     10329     10331     10330     10329     10332
     10331     10329     10332     10283     10333     10334     10283     10333     10335
     10283     10333     10336     10334     10333     10335     10334     10333     10336
     10335     10333     10336     10333     10336     10337     10333     10336     10338
     10333     10336     10339     10337     10336     10338     10337     10336     10339
     10338     10336     10339     10336     10339     10340     10336     10339     10341
     10336     10339     10342     10340     10339     10341     10340     10339     10342
     10341     10339     10342     10339     10342     10343     10339     10342     10344
     10339     10342     10345     10343     10342     10344     10343     10342     10345
     10344     10342     10345     10342     10345     10346     10342     10345     10347
     10342     10345     10348     10346     10345     10347     10346     10345     10348
     10347     10345     10348     10345     10348     10349     10345     10348     10350
     10345     10348     10351     10349     10348     10350     10349     10348     10351
     10350     10348     10351     10348     10351     10352     10348     10351     10353
     10348     10351     10354     10352     10351     10353     10352     10351     10354
     10353     10351     10354     10351     10354     10355     10351     10354     10356
     10351     10354     10357     10355     10354     10356     10355     10354     10357
     10356     10354     10357     10354     10357     10358     10354     10357     10359
     10354     10357     10360     10358     10357     10359     10358     10357     10360
     10359     10357     10360     10357     10360     10361     10357     10360     10362
     10357     10360     10363     10361     10360     10362     10361     10360     10363
     10362     10360     10363     10360     10363     10364     10360     10363     10365
     10360     10363     10366     10364     10363     10365     10364     10363     10366
     10365     10363     10366     10363     10366     10367     10363     10366     10368
     10363     10366     10369     10367     10366     10368     10367     10366     10369
     10368     10366     10369     10366     10369     10370     10366     10369     10371
     10366     10369     10372     10370     10369     10371     10370     10369     10372
     10371     10369     10372     10369     10372     10373     10369     10372     10374
     10369     10372     10375     10373     10372     10374     10373     10372     10375
     10374     10372     10375      5097      5096      5098      5097      5096      5099
      5097      5096      5100      5098      5096      5099      5098      5096      5100
      5099      5096      5100      5096      5100      5101      5096      5100      5102
      5096      5100      5103      5101      5100      5102      5101      5100      5103
      5102      5100      5103      5100      5103      5104      5100      5103      5105
      5100      5103      5110      5104      5103      5105      5104      5103      5110
      5105      5103      5110      5107      5106      5108      5107      5106      5109
      5107      5106      5110      5108      5106      5109      5108      5106      5110
      5109      5106      5110      5106      5109      5111      5103      5110      5106
      5109      5111      5112      5109      5111      5113      5109      5111      5114
      5112      5111      5113      5112      5111      5114      5113      5111      5114
      5111      5114      5115      5111      5114      5116      5111      5114      5122
      5115      5114      5116      5115      5114      5122      5116      5114      5122
      5114      5116      5117      5116      5117      5118      5116      5117      5119
      5118      5117      5119      5117      5119      5120      5117      5119      5121
      5117      5119      5131      5120      5119      5121      5120      5119      5131
      5121      5119      5131      5114      5122      5123      5114      5122      5124
      5114      5122      5125      5123      5122      5124      5123      5122      5125
      5124      5122      5125      5122      5125      5126      5125      5126      5127
      5125      5126      5128      5127      5126      5128      5126      5128      5129
      5126      5128      5130      5126      5128      5178      5129      5128      5130
      5129      5128      5178      5130      5128      5178      5119      5131      5132
      5119      5131      5133      5119      5131      5134      5132      5131      5133
      5132      5131      5134      5133      5131      5134      5131      5134      5135
      5131      5134      5136      5131      5134      5137      5135      5134      5136
      5135      5134      5137      5136      5134      5137      5134      5137      5138
      5134      5137      5139      5134      5137      5140      5138      5137      5139
      5138      5137      5140      5139      5137      5140      5137      5140      5141
      5137      5140      5142      5137      5140      5143      5141      5140      5142
      5141      5140      5143      5142      5140      5143      5140      5143      5144
      5140      5143      5145      5140      5143      5146      5144      5143      5145
      5144      5143      5146      5145      5143      5146      5143      5146      5147
      5143      5146      5148      5143      5146      5149      5147      5146      5148
      5147      5146      5149      5148      5146      5149      5146      5149      5150
      5146      5149      5151      5150      5149      5151      5149      5151      5152
      5149      5151      5153      5152      5151      5153      5151      5153      5154
      5151      5153      5155      5151      5153      5156      5154      5153      5155
      5154      5153      5156      5155      5153      5156      5153      5156      5157
      5153      5156      5158      5153      5156      5159      5157      5156      5158
      5157      5156      5159      5158      5156      5159      5156      5159      5160
      5156      5159      5161      5156      5159      5162      5160      5159      5161
      5160      5159      5162      5161      5159      5162      5159      5162      5163
      5159      5162      5164      5159      5162      5165      5163      5162      5164
      5163      5162      5165      5164      5162      5165      5162      5165      5166
      5162      5165      5167      5162      5165      5168      5166      5165      5167
      5166      5165      5168      5167      5165      5168      5165      5168      5169
      5165      5168      5170      5165      5168      5171      5169      5168      5170
      5169      5168      5171      5170      5168      5171      5168      5171      5172
      5168      5171      5173      5168      5171      5174      5172      5171      5173
      5172      5171      5174      5173      5171      5174      5171      5174      5175
      5171      5174      5176      5171      5174      5177      5175      5174      5176
      5175      5174      5177      5176      5174      5177      5128      5178      5179
      5128      5178      5180      5128      5178      5181      5179      5178      5180
      5179      5178      5181      5180      5178      5181      5178      5181      5182
      5178      5181      5183      5178      5181      5184      5182      5181      5183
      5182      5181      5184      5183      5181      5184      5181      5184      5185
      5181      5184      5186      5181      5184      5187      5185      5184      5186
      5185      5184      5187      5186      5184      5187      5184      5187      5188
      5184      5187      5189      5184      5187      5190      5188      5187      5189
      5188      5187      5190      5189      5187      5190      5187      5190      5191
      5187      5190      5192      5187      5190      5193      5191      5190      5192
      5191      5190      5193      5192      5190      5193      5190      5193      5194
      5190      5193      5195      5190      5193      5196      5194      5193      5195
      5194      5193      5196      5195      5193      5196      5193      5196      5197
      5193      5196      5198      5193      5196      5199      5197      5196      5198
      5197      5196      5199      5198      5196      5199      5196      5199      5200
      5196      5199      5201      5196      5199      5202      5200      5199      5201
      5200      5199      5202      5201      5199      5202      5199      5202      5203
      5199      5202      5204      5199      5202      5205      5203      5202      5204
      5203      5202      5205      5204      5202      5205      5202      5205      5206
      5202      5205      5207      5202      5205      5208      5206      5205      5207
      5206      5205      5208      5207      5205      5208      5205      5208      5209
      5205      5208      5210      5205      5208      5211      5209      5208      5210
      5209      5208      5211      5210      5208      5211      5208      5211      5212
      5208      5211      5213      5208      5211      5214      5212      5211      5213
      5212      5211      5214      5213      5211      5214      5211      5214      5215
      5211      5214      5216      5211      5214      5217      5215      5214      5216
      5215      5214      5217      5216      5214      5217      5214      5217      5218
      5214      5217      5219      5214      5217      5220      5218      5217      5219
      5218      5217      5220      5219      5217      5220     16500     16499     16503
     16500     16499     16507     16500     16499     16511     16503     16499     16507
     16503     16499     16511     16507     16499     16511     16499     16500     16501
     16499     16500     16502     16499     16500     16515     16501     16500     16502
     16501     16500     16515     16502     16500     16515     16499     16503     16504
     16499     16503     16505     16499     16503     16506     16504     16503     16505
     16504     16503     16506     16505     16503     16506     16499     16507     16508
     16499     16507     16509     16499     16507     16510     16508     16507     16509
     16508     16507     16510     16509     16507     16510     16499     16511     16512
     16499     16511     16513     16499     16511     16514     16512     16511     16513
     16512     16511     16514     16513     16511     16514     16500     16515     16516
     16500     16515     16517     16500     16515     16521     16516     16515     16517
     16516     16515     16521     16517     16515     16521     16519     16518     16520
     16519     16518     16521     16519     16518     16522     16520     16518     16521
     16520     16518     16522     16521     16518     16522     16515     16521     16518
     16518     16522     16523     16522     16523     16524     16522     16523     16525
     16522     16523     16526     16524     16523     16525     16524     16523     16526
     16525     16523     16526     16523     16526     16527     16523     16526     16528
     16523     16526     16534     16527     16526     16528     16527     16526     16534
     16528     16526     16534     16526     16528     16529     16528     16529     16530
     16528     16529     16531     16530     16529     16531     16529     16531     16532
     16529     16531     16533     16529     16531     16543     16532     16531     16533
     16532     16531     16543     16533     16531     16543     16526     16534     16535
     16526     16534     16536     16526     16534     16537     16535     16534     16536
     16535     16534     16537     16536     16534     16537     16534     16537     16538
     16537     16538     16539     16537     16538     16540     16539     16538     16540
     16538     16540     16541     16538     16540     16542     16538     16540     16590
     16541     16540     16542     16541     16540     16590     16542     16540     16590
     16531     16543     16544     16531     16543     16545     16531     16543     16546
     16544     16543     16545     16544     16543     16546     16545     16543     16546
     16543     16546     16547     16543     16546     16548     16543     16546     16549
     16547     16546     16548     16547     16546     16549     16548     16546     16549
     16546     16549     16550     16546     16549     16551     16546     16549     16552
     16550     16549     16551     16550     16549     16552     16551     16549     16552
     16549     16552     16553     16549     16552     16554     16549     16552     16555
     16553     16552     16554     16553     16552     16555     16554     16552     16555
     16552     16555     16556     16552     16555     16557     16552     16555     16558
     16556     16555     16557     16556     16555     16558     16557     16555     16558
     16555     16558     16559     16555     16558     16560     16555     16558     16561
     16559     16558     16560     16559     16558     16561     16560     16558     16561
     16558     16561     16562     16558     16561     16563     16562     16561     16563
     16561     16563     16564     16561     16563     16565     16564     16563     16565
     16563     16565     16566     16563     16565     16567     16563     16565     16568
     16566     16565     16567     16566     16565     16568     16567     16565     16568
     16565     16568     16569     16565     16568     16570     16565     16568     16571
     16569     16568     16570     16569     16568     16571     16570     16568     16571
     16568     16571     16572     16568     16571     16573     16568     16571     16574
     16572     16571     16573     16572     16571     16574     16573     16571     16574
     16571     16574     16575     16571     16574     16576     16571     16574     16577
     16575     16574     16576     16575     16574     16577     16576     16574     16577
     16574     16577     16578     16574     16577     16579     16574     16577     16580
     16578     16577     16579     16578     16577     16580     16579     16577     16580
     16577     16580     16581     16577     16580     16582     16577     16580     16583
     16581     16580     16582     16581     16580     16583     16582     16580     16583
     16580     16583     16584     16580     16583     16585     16580     16583     16586
     16584     16583     16585     16584     16583     16586     16585     16583     16586
     16583     16586     16587     16583     16586     16588     16583     16586     16589
     16587     16586     16588     16587     16586     16589     16588     16586     16589
     16540     16590     16591     16540     16590     16592     16540     16590     16593
     16591     16590     16592     16591     16590     16593     16592     16590     16593
     16590     16593     16594     16590     16593     16595     16590     16593     16596
     16594     16593     16595     16594     16593     16596     16595     16593     16596
     16593     16596     16597     16593     16596     16598     16593     16596     16599
     16597     16596     16598     16597     16596     16599     16598     16596     16599
     16596     16599     16600     16596     16599     16601     16596     16599     16602
     16600     16599     16601     16600     16599     16602     16601     16599     16602
     16599     16602     16603     16599     16602     16604     16599     16602     16605
     16603     16602     16604     16603     16602     16605     16604     16602     16605
     16602     16605     16606     16602     16605     16607     16602     16605     16608
     16606     16605     16607     16606     16605     16608     16607     16605     16608
     16605     16608     16609     16605     16608     16610     16605     16608     16611
     16609     16608     16610     16609     16608     16611     16610     16608     16611
     16608     16611     16612     16608     16611     16613     16608     16611     16614
     16612     16611     16613     16612     16611     16614     16613     16611     16614
     16611     16614     16615     16611     16614     16616     16611     16614     16617
     16615     16614     16616     16615     16614     16617     16616     16614     16617
     16614     16617     16618     16614     16617     16619     16614     16617     16620
     16618     16617     16619     16618     16617     16620     16619     16617     16620
     16617     16620     16621     16617     16620     16622     16617     16620     16623
     16621     16620     16622     16621     16620     16623     16622     16620     16623
     16620     16623     16624     16620     16623     16625     16620     16623     16626
     16624     16623     16625     16624     16623     16626     16625     16623     16626
     16623     16626     16627     16623     16626     16628     16623     16626     16629
     16627     16626     16628     16627     16626     16629     16628     16626     16629
     16626     16629     16630     16626     16629     16631     16626     16629     16632
     16630     16629     16631     16630     16629     16632     16631     16629     16632
      5222      5221      5223      5222      5221      5224      5222      5221      5225
      5223      5221      5224      5223      5221      5225      5224      5221      5225
      5221      5225      5226      5221      5225      5227      5221      5225      5228
      5226      5225      5227      5226      5225      5228      5227      5225      5228
      5225      5228      5229      5225      5228      5230      5225      5228      5235
      5229      5228      5230      5229      5228      5235      5230      5228      5235
      5232      5231      5233      5232      5231      5234      5232      5231      5235
      5233      5231      5234      5233      5231      5235      5234      5231      5235
      5231      5234      5236      5228      5235      5231      5234      5236      5237
      5234      5236      5238      5234      5236      5239      5237      5236      5238
      5237      5236      5239      5238      5236      5239      5236      5239      5240
      5236      5239      5241      5236      5239      5247      5240      5239      5241
      5240      5239      5247      5241      5239      5247      5239      5241      5242
      5241      5242      5243      5241      5242      5244      5243      5242      5244
      5242      5244      5245      5242      5244      5246      5242      5244      5256
      5245      5244      5246      5245      5244      5256      5246      5244      5256
      5239      5247      5248      5239      5247      5249      5239      5247      5250
      5248      5247      5249      5248      5247      5250      5249      5247      5250
      5247      5250      5251      5250      5251      5252      5250      5251      5253
      5252      5251      5253      5251      5253      5254      5251      5253      5255
      5251      5253      5303      5254      5253      5255      5254      5253      5303
      5255      5253      5303      5244      5256      5257      5244      5256      5258
      5244      5256      5259      5257      5256      5258      5257      5256      5259
      5258      5256      5259      5256      5259      5260      5256      5259      5261
      5256      5259      5262      5260      5259      5261      5260      5259      5262
      5261      5259      5262      5259      5262      5263      5259      5262      5264
      5259      5262      5265      5263      5262      5264      5263      5262      5265
      5264      5262      5265      5262      5265      5266      5262      5265      5267
      5262      5265      5268      5266      5265      5267      5266      5265      5268
      5267      5265      5268      5265      5268      5269      5265      5268      5270
      5265      5268      5271      5269      5268      5270      5269      5268      5271
      5270      5268      5271      5268      5271      5272      5268      5271      5273
      5268      5271      5274      5272      5271      5273      5272      5271      5274
      5273      5271      5274      5271      5274      5275      5271      5274      5276
      5275      5274      5276      5274      5276      5277      5274      5276      5278
      5277      5276      5278      5276      5278      5279      5276      5278      5280
      5276      5278      5281      5279      5278      5280      5279      5278      5281
      5280      5278      5281      5278      5281      5282      5278      5281      5283
      5278      5281      5284      5282      5281      5283      5282      5281      5284
      5283      5281      5284      5281      5284      5285      5281      5284      5286
      5281      5284      5287      5285      5284      5286      5285      5284      5287
      5286      5284      5287      5284      5287      5288      5284      5287      5289
      5284      5287      5290      5288      5287      5289      5288      5287      5290
      5289      5287      5290      5287      5290      5291      5287      5290      5292
      5287      5290      5293      5291      5290      5292      5291      5290      5293
      5292      5290      5293      5290      5293      5294      5290      5293      5295
      5290      5293      5296      5294      5293      5295      5294      5293      5296
      5295      5293      5296      5293      5296      5297      5293      5296      5298
      5293      5296      5299      5297      5296      5298      5297      5296      5299
      5298      5296      5299      5296      5299      5300      5296      5299      5301
      5296      5299      5302      5300      5299      5301      5300      5299      5302
      5301      5299      5302      5253      5303      5304      5253      5303      5305
      5253      5303      5306      5304      5303      5305      5304      5303      5306
      5305      5303      5306      5303      5306      5307      5303      5306      5308
      5303      5306      5309      5307      5306      5308      5307      5306      5309
      5308      5306      5309      5306      5309      5310      5306      5309      5311
      5306      5309      5312      5310      5309      5311      5310      5309      5312
      5311      5309      5312      5309      5312      5313      5309      5312      5314
      5309      5312      5315      5313      5312      5314      5313      5312      5315
      5314      5312      5315      5312      5315      5316      5312      5315      5317
      5312      5315      5318      5316      5315      5317      5316      5315      5318
      5317      5315      5318      5315      5318      5319      5315      5318      5320
      5315      5318      5321      5319      5318      5320      5319      5318      5321
      5320      5318      5321      5318      5321      5322      5318      5321      5323
      5318      5321      5324      5322      5321      5323      5322      5321      5324
      5323      5321      5324      5321      5324      5325      5321      5324      5326
      5321      5324      5327      5325      5324      5326      5325      5324      5327
      5326      5324      5327      5324      5327      5328      5324      5327      5329
      5324      5327      5330      5328      5327      5329      5328      5327      5330
      5329      5327      5330      5327      5330      5331      5327      5330      5332
      5327      5330      5333      5331      5330      5332      5331      5330      5333
      5332      5330      5333      5330      5333      5334      5330      5333      5335
      5330      5333      5336      5334      5333      5335      5334      5333      5336
      5335      5333      5336      5333      5336      5337      5333      5336      5338
      5333      5336      5339      5337      5336      5338      5337      5336      5339
      5338      5336      5339      5336      5339      5340      5336      5339      5341
      5336      5339      5342      5340      5339      5341      5340      5339      5342
      5341      5339      5342      5339      5342      5343      5339      5342      5344
      5339      5342      5345      5343      5342      5344      5343      5342      5345
      5344      5342      5345     10377     10376     10378     10377     10376     10379
     10377     10376     10380     10378     10376     10379     10378     10376     10380
     10379     10376     10380     10376     10380     10381     10376     10380     10382
     10376     10380     10385     10381     10380     10382     10381     10380     10385
     10382     10380     10385     10380     10382     10383     10380     10382     10384
     10383     10382     10384     10380     10385     10386     10380     10385     10387
     10380     10385     10391     10386     10385     10387     10386     10385     10391
     10387     10385     10391     10389     10388     10390     10389     10388     10391
     10389     10388     10392     10390     10388     10391     10390     10388     10392
     10391     10388     10392     10385     10391     10388     10388     10392     10393
     10392     10393     10394     10392     10393     10395     10392     10393     10396
     10394     10393     10395     10394     10393     10396     10395     10393     10396
     10393     10396     10397     10393     10396     10398     10393     10396     10404
     10397     10396     10398     10397     10396     10404     10398     10396     10404
     10396     10398     10399     10398     10399     10400     10398     10399     10401
     10400     10399     10401     10399     10401     10402     10399     10401     10403
     10399     10401     10413     10402     10401     10403     10402     10401     10413
     10403     10401     10413     10396     10404     10405     10396     10404     10406
     10396     10404     10407     10405     10404     10406     10405     10404     10407
     10406     10404     10407     10404     10407     10408     10407     10408     10409
     10407     10408     10410     10409     10408     10410     10408     10410     10411
     10408     10410     10412     10408     10410     10460     10411     10410     10412
     10411     10410     10460     10412     10410     10460     10401     10413     10414
     10401     10413     10415     10401     10413     10416     10414     10413     10415
     10414     10413     10416     10415     10413     10416     10413     10416     10417
     10413     10416     10418     10413     10416     10419     10417     10416     10418
     10417     10416     10419     10418     10416     10419     10416     10419     10420
     10416     10419     10421     10416     10419     10422     10420     10419     10421
     10420     10419     10422     10421     10419     10422     10419     10422     10423
     10419     10422     10424     10419     10422     10425     10423     10422     10424
     10423     10422     10425     10424     10422     10425     10422     10425     10426
     10422     10425     10427     10422     10425     10428     10426     10425     10427
     10426     10425     10428     10427     10425     10428     10425     10428     10429
     10425     10428     10430     10425     10428     10431     10429     10428     10430
     10429     10428     10431     10430     10428     10431     10428     10431     10432
     10428     10431     10433     10432     10431     10433     10431     10433     10434
     10431     10433     10435     10434     10433     10435     10433     10435     10436
     10433     10435     10437     10433     10435     10438     10436     10435     10437
     10436     10435     10438     10437     10435     10438     10435     10438     10439
     10435     10438     10440     10435     10438     10441     10439     10438     10440
     10439     10438     10441     10440     10438     10441     10438     10441     10442
     10438     10441     10443     10438     10441     10444     10442     10441     10443
     10442     10441     10444     10443     10441     10444     10441     10444     10445
     10441     10444     10446     10441     10444     10447     10445     10444     10446
     10445     10444     10447     10446     10444     10447     10444     10447     10448
     10444     10447     10449     10444     10447     10450     10448     10447     10449
     10448     10447     10450     10449     10447     10450     10447     10450     10451
     10447     10450     10452     10447     10450     10453     10451     10450     10452
     10451     10450     10453     10452     10450     10453     10450     10453     10454
     10450     10453     10455     10450     10453     10456     10454     10453     10455
     10454     10453     10456     10455     10453     10456     10453     10456     10457
     10453     10456     10458     10453     10456     10459     10457     10456     10458
     10457     10456     10459     10458     10456     10459     10410     10460     10461
     10410     10460     10462     10410     10460     10463     10461     10460     10462
     10461     10460     10463     10462     10460     10463     10460     10463     10464
     10460     10463     10465     10460     10463     10466     10464     10463     10465
     10464     10463     10466     10465     10463     10466     10463     10466     10467
     10463     10466     10468     10463     10466     10469     10467     10466     10468
     10467     10466     10469     10468     10466     10469     10466     10469     10470
     10466     10469     10471     10466     10469     10472     10470     10469     10471
     10470     10469     10472     10471     10469     10472     10469     10472     10473
     10469     10472     10474     10469     10472     10475     10473     10472     10474
     10473     10472     10475     10474     10472     10475     10472     10475     10476
     10472     10475     10477     10472     10475     10478     10476     10475     10477
     10476     10475     10478     10477     10475     10478     10475     10478     10479
     10475     10478     10480     10475     10478     10481     10479     10478     10480
     10479     10478     10481     10480     10478     10481     10478     10481     10482
     10478     10481     10483     10478     10481     10484     10482     10481     10483
     10482     10481     10484     10483     10481     10484     10481     10484     10485
     10481     10484     10486     10481     10484     10487     10485     10484     10486
     10485     10484     10487     10486     10484     10487     10484     10487     10488
     10484     10487     10489     10484     10487     10490     10488     10487     10489
     10488     10487     10490     10489     10487     10490     10487     10490     10491
     10487     10490     10492     10487     10490     10493     10491     10490     10492
     10491     10490     10493     10492     10490     10493     10490     10493     10494
     10490     10493     10495     10490     10493     10496     10494     10493     10495
     10494     10493     10496     10495     10493     10496     10493     10496     10497
     10493     10496     10498     10493     10496     10499     10497     10496     10498
     10497     10496     10499     10498     10496     10499     10496     10499     10500
     10496     10499     10501     10496     10499     10502     10500     10499     10501
     10500     10499     10502     10501     10499     10502     16634     16633     16637
     16634     16633     16641     16634     16633     16645     16637     16633     16641
     16637     16633     16645     16641     16633     16645     16633     16634     16635
     16633     16634     16636     16633     16634     16649     16635     16634     16636
     16635     16634     16649     16636     16634     16649     16633     16637     16638
     16633     16637     16639     16633     16637     16640     16638     16637     16639
     16638     16637     16640     16639     16637     16640     16633     16641     16642
     16633     16641     16643     16633     16641     16644     16642     16641     16643
     16642     16641     16644     16643     16641     16644     16633     16645     16646
     16633     16645     16647     16633     16645     16648     16646     16645     16647
     16646     16645     16648     16647     16645     16648     16634     16649     16650
     16634     16649     16651     16634     16649     16655     16650     16649     16651
     16650     16649     16655     16651     16649     16655     16653     16652     16654
     16653     16652     16655     16653     16652     16656     16654     16652     16655
     16654     16652     16656     16655     16652     16656     16649     16655     16652
     16652     16656     16657     16656     16657     16658     16656     16657     16659
     16656     16657     16660     16658     16657     16659     16658     16657     16660
     16659     16657     16660     16657     16660     16661     16657     16660     16662
     16657     16660     16668     16661     16660     16662     16661     16660     16668
     16662     16660     16668     16660     16662     16663     16662     16663     16664
     16662     16663     16665     16664     16663     16665     16663     16665     16666
     16663     16665     16667     16663     16665     16677     16666     16665     16667
     16666     16665     16677     16667     16665     16677     16660     16668     16669
     16660     16668     16670     16660     16668     16671     16669     16668     16670
     16669     16668     16671     16670     16668     16671     16668     16671     16672
     16671     16672     16673     16671     16672     16674     16673     16672     16674
     16672     16674     16675     16672     16674     16676     16672     16674     16724
     16675     16674     16676     16675     16674     16724     16676     16674     16724
     16665     16677     16678     16665     16677     16679     16665     16677     16680
     16678     16677     16679     16678     16677     16680     16679     16677     16680
     16677     16680     16681     16677     16680     16682     16677     16680     16683
     16681     16680     16682     16681     16680     16683     16682     16680     16683
     16680     16683     16684     16680     16683     16685     16680     16683     16686
     16684     16683     16685     16684     16683     16686     16685     16683     16686
     16683     16686     16687     16683     16686     16688     16683     16686     16689
     16687     16686     16688     16687     16686     16689     16688     16686     16689
     16686     16689     16690     16686     16689     16691     16686     16689     16692
     16690     16689     16691     16690     16689     16692     16691     16689     16692
     16689     16692     16693     16689     16692     16694     16689     16692     16695
     16693     16692     16694     16693     16692     16695     16694     16692     16695
     16692     16695     16696     16692     16695     16697     16696     16695     16697
     16695     16697     16698     16695     16697     16699     16698     16697     16699
     16697     16699     16700     16697     16699     16701     16697     16699     16702
     16700     16699     16701     16700     16699     16702     16701     16699     16702
     16699     16702     16703     16699     16702     16704     16699     16702     16705
     16703     16702     16704     16703     16702     16705     16704     16702     16705
     16702     16705     16706     16702     16705     16707     16702     16705     16708
     16706     16705     16707     16706     16705     16708     16707     16705     16708
     16705     16708     16709     16705     16708     16710     16705     16708     16711
     16709     16708     16710     16709     16708     16711     16710     16708     16711
     16708     16711     16712     16708     16711     16713     16708     16711     16714
     16712     16711     16713     16712     16711     16714     16713     16711     16714
     16711     16714     16715     16711     16714     16716     16711     16714     16717
     16715     16714     16716     16715     16714     16717     16716     16714     16717
     16714     16717     16718     16714     16717     16719     16714     16717     16720
     16718     16717     16719     16718     16717     16720     16719     16717     16720
     16717     16720     16721     16717     16720     16722     16717     16720     16723
     16721     16720     16722     16721     16720     16723     16722     16720     16723
     16674     16724     16725     16674     16724     16726     16674     16724     16727
     16725     16724     16726     16725     16724     16727     16726     16724     16727
     16724     16727     16728     16724     16727     16729     16724     16727     16730
     16728     16727     16729     16728     16727     16730     16729     16727     16730
     16727     16730     16731     16727     16730     16732     16727     16730     16733
     16731     16730     16732     16731     16730     16733     16732     16730     16733
     16730     16733     16734     16730     16733     16735     16730     16733     16736
     16734     16733     16735     16734     16733     16736     16735     16733     16736
     16733     16736     16737     16733     16736     16738     16733     16736     16739
     16737     16736     16738     16737     16736     16739     16738     16736     16739
     16736     16739     16740     16736     16739     16741     16736     16739     16742
     16740     16739     16741     16740     16739     16742     16741     16739     16742
     16739     16742     16743     16739     16742     16744     16739     16742     16745
     16743     16742     16744     16743     16742     16745     16744     16742     16745
     16742     16745     16746     16742     16745     16747     16742     16745     16748
     16746     16745     16747     16746     16745     16748     16747     16745     16748
     16745     16748     16749     16745     16748     16750     16745     16748     16751
     16749     16748     16750     16749     16748     16751     16750     16748     16751
     16748     16751     16752     16748     16751     16753     16748     16751     16754
     16752     16751     16753     16752     16751     16754     16753     16751     16754
     16751     16754     16755     16751     16754     16756     16751     16754     16757
     16755     16754     16756     16755     16754     16757     16756     16754     16757
     16754     16757     16758     16754     16757     16759     16754     16757     16760
     16758     16757     16759     16758     16757     16760     16759     16757     16760
     16757     16760     16761     16757     16760     16762     16757     16760     16763
     16761     16760     16762     16761     16760     16763     16762     16760     16763
     16760     16763     16764     16760     16763     16765     16760     16763     16766
     16764     16763     16765     16764     16763     16766     16765     16763     16766
     16768     16767     16771     16768     16767     16775     16768     16767     16779
     16771     16767     16775     16771     16767     16779     16775     16767     16779
     16767     16768     16769     16767     16768     16770     16767     16768     16783
     16769     16768     16770     16769     16768     16783     16770     16768     16783
     16767     16771     16772     16767     16771     16773     16767     16771     16774
     16772     16771     16773     16772     16771     16774     16773     16771     16774
     16767     16775     16776     16767     16775     16777     16767     16775     16778
     16776     16775     16777     16776     16775     16778     16777     16775     16778
     16767     16779     16780     16767     16779     16781     16767     16779     16782
     16780     16779     16781     16780     16779     16782     16781     16779     16782
     16768     16783     16784     16768     16783     16785     16768     16783     16789
     16784     16783     16785     16784     16783     16789     16785     16783     16789
     16787     16786     16788     16787     16786     16789     16787     16786     16790
     16788     16786     16789     16788     16786     16790     16789     16786     16790
     16783     16789     16786     16786     16790     16791     16790     16791     16792
     16790     16791     16793     16790     16791     16794     16792     16791     16793
     16792     16791     16794     16793     16791     16794     16791     16794     16795
     16791     16794     16796     16791     16794     16802     16795     16794     16796
     16795     16794     16802     16796     16794     16802     16794     16796     16797
     16796     16797     16798     16796     16797     16799     16798     16797     16799
     16797     16799     16800     16797     16799     16801     16797     16799     16811
     16800     16799     16801     16800     16799     16811     16801     16799     16811
     16794     16802     16803     16794     16802     16804     16794     16802     16805
     16803     16802     16804     16803     16802     16805     16804     16802     16805
     16802     16805     16806     16805     16806     16807     16805     16806     16808
     16807     16806     16808     16806     16808     16809     16806     16808     16810
     16806     16808     16858     16809     16808     16810     16809     16808     16858
     16810     16808     16858     16799     16811     16812     16799     16811     16813
     16799     16811     16814     16812     16811     16813     16812     16811     16814
     16813     16811     16814     16811     16814     16815     16811     16814     16816
     16811     16814     16817     16815     16814     16816     16815     16814     16817
     16816     16814     16817     16814     16817     16818     16814     16817     16819
     16814     16817     16820     16818     16817     16819     16818     16817     16820
     16819     16817     16820     16817     16820     16821     16817     16820     16822
     16817     16820     16823     16821     16820     16822     16821     16820     16823
     16822     16820     16823     16820     16823     16824     16820     16823     16825
     16820     16823     16826     16824     16823     16825     16824     16823     16826
     16825     16823     16826     16823     16826     16827     16823     16826     16828
     16823     16826     16829     16827     16826     16828     16827     16826     16829
     16828     16826     16829     16826     16829     16830     16826     16829     16831
     16830     16829     16831     16829     16831     16832     16829     16831     16833
     16832     16831     16833     16831     16833     16834     16831     16833     16835
     16831     16833     16836     16834     16833     16835     16834     16833     16836
     16835     16833     16836     16833     16836     16837     16833     16836     16838
     16833     16836     16839     16837     16836     16838     16837     16836     16839
     16838     16836     16839     16836     16839     16840     16836     16839     16841
     16836     16839     16842     16840     16839     16841     16840     16839     16842
     16841     16839     16842     16839     16842     16843     16839     16842     16844
     16839     16842     16845     16843     16842     16844     16843     16842     16845
     16844     16842     16845     16842     16845     16846     16842     16845     16847
     16842     16845     16848     16846     16845     16847     16846     16845     16848
     16847     16845     16848     16845     16848     16849     16845     16848     16850
     16845     16848     16851     16849     16848     16850     16849     16848     16851
     16850     16848     16851     16848     16851     16852     16848     16851     16853
     16848     16851     16854     16852     16851     16853     16852     16851     16854
     16853     16851     16854     16851     16854     16855     16851     16854     16856
     16851     16854     16857     16855     16854     16856     16855     16854     16857
     16856     16854     16857     16808     16858     16859     16808     16858     16860
     16808     16858     16861     16859     16858     16860     16859     16858     16861
     16860     16858     16861     16858     16861     16862     16858     16861     16863
     16858     16861     16864     16862     16861     16863     16862     16861     16864
     16863     16861     16864     16861     16864     16865     16861     16864     16866
     16861     16864     16867     16865     16864     16866     16865     16864     16867
     16866     16864     16867     16864     16867     16868     16864     16867     16869
     16864     16867     16870     16868     16867     16869     16868     16867     16870
     16869     16867     16870     16867     16870     16871     16867     16870     16872
     16867     16870     16873     16871     16870     16872     16871     16870     16873
     16872     16870     16873     16870     16873     16874     16870     16873     16875
     16870     16873     16876     16874     16873     16875     16874     16873     16876
     16875     16873     16876     16873     16876     16877     16873     16876     16878
     16873     16876     16879     16877     16876     16878     16877     16876     16879
     16878     16876     16879     16876     16879     16880     16876     16879     16881
     16876     16879     16882     16880     16879     16881     16880     16879     16882
     16881     16879     16882     16879     16882     16883     16879     16882     16884
     16879     16882     16885     16883     16882     16884     16883     16882     16885
     16884     16882     16885     16882     16885     16886     16882     16885     16887
     16882     16885     16888     16886     16885     16887     16886     16885     16888
     16887     16885     16888     16885     16888     16889     16885     16888     16890
     16885     16888     16891     16889     16888     16890     16889     16888     16891
     16890     16888     16891     16888     16891     16892     16888     16891     16893
     16888     16891     16894     16892     16891     16893     16892     16891     16894
     16893     16891     16894     16891     16894     16895     16891     16894     16896
     16891     16894     16897     16895     16894     16896     16895     16894     16897
     16896     16894     16897     16894     16897     16898     16894     16897     16899
     16894     16897     16900     16898     16897     16899     16898     16897     16900
     16899     16897     16900     16902     16901     16905     16902     16901     16909
     16902     16901     16913     16905     16901     16909     16905     16901     16913
     16909     16901     16913     16901     16902     16903     16901     16902     16904
     16901     16902     16917     16903     16902     16904     16903     16902     16917
     16904     16902     16917     16901     16905     16906     16901     16905     16907
     16901     16905     16908     16906     16905     16907     16906     16905     16908
     16907     16905     16908     16901     16909     16910     16901     16909     16911
     16901     16909     16912     16910     16909     16911     16910     16909     16912
     16911     16909     16912     16901     16913     16914     16901     16913     16915
     16901     16913     16916     16914     16913     16915     16914     16913     16916
     16915     16913     16916     16902     16917     16918     16902     16917     16919
     16902     16917     16923     16918     16917     16919     16918     16917     16923
     16919     16917     16923     16921     16920     16922     16921     16920     16923
     16921     16920     16924     16922     16920     16923     16922     16920     16924
     16923     16920     16924     16917     16923     16920     16920     16924     16925
     16924     16925     16926     16924     16925     16927     16924     16925     16928
     16926     16925     16927     16926     16925     16928     16927     16925     16928
     16925     16928     16929     16925     16928     16930     16925     16928     16936
     16929     16928     16930     16929     16928     16936     16930     16928     16936
     16928     16930     16931     16930     16931     16932     16930     16931     16933
     16932     16931     16933     16931     16933     16934     16931     16933     16935
     16931     16933     16945     16934     16933     16935     16934     16933     16945
     16935     16933     16945     16928     16936     16937     16928     16936     16938
     16928     16936     16939     16937     16936     16938     16937     16936     16939
     16938     16936     16939     16936     16939     16940     16939     16940     16941
     16939     16940     16942     16941     16940     16942     16940     16942     16943
     16940     16942     16944     16940     16942     16992     16943     16942     16944
     16943     16942     16992     16944     16942     16992     16933     16945     16946
     16933     16945     16947     16933     16945     16948     16946     16945     16947
     16946     16945     16948     16947     16945     16948     16945     16948     16949
     16945     16948     16950     16945     16948     16951     16949     16948     16950
     16949     16948     16951     16950     16948     16951     16948     16951     16952
     16948     16951     16953     16948     16951     16954     16952     16951     16953
     16952     16951     16954     16953     16951     16954     16951     16954     16955
     16951     16954     16956     16951     16954     16957     16955     16954     16956
     16955     16954     16957     16956     16954     16957     16954     16957     16958
     16954     16957     16959     16954     16957     16960     16958     16957     16959
     16958     16957     16960     16959     16957     16960     16957     16960     16961
     16957     16960     16962     16957     16960     16963     16961     16960     16962
     16961     16960     16963     16962     16960     16963     16960     16963     16964
     16960     16963     16965     16964     16963     16965     16963     16965     16966
     16963     16965     16967     16966     16965     16967     16965     16967     16968
     16965     16967     16969     16965     16967     16970     16968     16967     16969
     16968     16967     16970     16969     16967     16970     16967     16970     16971
     16967     16970     16972     16967     16970     16973     16971     16970     16972
     16971     16970     16973     16972     16970     16973     16970     16973     16974
     16970     16973     16975     16970     16973     16976     16974     16973     16975
     16974     16973     16976     16975     16973     16976     16973     16976     16977
     16973     16976     16978     16973     16976     16979     16977     16976     16978
     16977     16976     16979     16978     16976     16979     16976     16979     16980
     16976     16979     16981     16976     16979     16982     16980     16979     16981
     16980     16979     16982     16981     16979     16982     16979     16982     16983
     16979     16982     16984     16979     16982     16985     16983     16982     16984
     16983     16982     16985     16984     16982     16985     16982     16985     16986
     16982     16985     16987     16982     16985     16988     16986     16985     16987
     16986     16985     16988     16987     16985     16988     16985     16988     16989
     16985     16988     16990     16985     16988     16991     16989     16988     16990
     16989     16988     16991     16990     16988     16991     16942     16992     16993
     16942     16992     16994     16942     16992     16995     16993     16992     16994
     16993     16992     16995     16994     16992     16995     16992     16995     16996
     16992     16995     16997     16992     16995     16998     16996     16995     16997
     16996     16995     16998     16997     16995     16998     16995     16998     16999
     16995     16998     17000     16995     16998     17001     16999     16998     17000
     16999     16998     17001     17000     16998     17001     16998     17001     17002
     16998     17001     17003     16998     17001     17004     17002     17001     17003
     17002     17001     17004     17003     17001     17004     17001     17004     17005
     17001     17004     17006     17001     17004     17007     17005     17004     17006
     17005     17004     17007     17006     17004     17007     17004     17007     17008
     17004     17007     17009     17004     17007     17010     17008     17007     17009
     17008     17007     17010     17009     17007     17010     17007     17010     17011
     17007     17010     17012     17007     17010     17013     17011     17010     17012
     17011     17010     17013     17012     17010     17013     17010     17013     17014
     17010     17013     17015     17010     17013     17016     17014     17013     17015
     17014     17013     17016     17015     17013     17016     17013     17016     17017
     17013     17016     17018     17013     17016     17019     17017     17016     17018
     17017     17016     17019     17018     17016     17019     17016     17019     17020
     17016     17019     17021     17016     17019     17022     17020     17019     17021
     17020     17019     17022     17021     17019     17022     17019     17022     17023
     17019     17022     17024     17019     17022     17025     17023     17022     17024
     17023     17022     17025     17024     17022     17025     17022     17025     17026
     17022     17025     17027     17022     17025     17028     17026     17025     17027
     17026     17025     17028     17027     17025     17028     17025     17028     17029
     17025     17028     17030     17025     17028     17031     17029     17028     17030
     17029     17028     17031     17030     17028     17031     17028     17031     17032
     17028     17031     17033     17028     17031     17034     17032     17031     17033
     17032     17031     17034     17033     17031     17034     17036     17035     17039
     17036     17035     17043     17036     17035     17047     17039     17035     17043
     17039     17035     17047     17043     17035     17047     17035     17036     17037
     17035     17036     17038     17035     17036     17051     17037     17036     17038
     17037     17036     17051     17038     17036     17051     17035     17039     17040
     17035     17039     17041     17035     17039     17042     17040     17039     17041
     17040     17039     17042     17041     17039     17042     17035     17043     17044
     17035     17043     17045     17035     17043     17046     17044     17043     17045
     17044     17043     17046     17045     17043     17046     17035     17047     17048
     17035     17047     17049     17035     17047     17050     17048     17047     17049
     17048     17047     17050     17049     17047     17050     17036     17051     17052
     17036     17051     17053     17036     17051     17057     17052     17051     17053
     17052     17051     17057     17053     17051     17057     17055     17054     17056
     17055     17054     17057     17055     17054     17058     17056     17054     17057
     17056     17054     17058     17057     17054     17058     17051     17057     17054
     17054     17058     17059     17058     17059     17060     17058     17059     17061
     17058     17059     17062     17060     17059     17061     17060     17059     17062
     17061     17059     17062     17059     17062     17063     17059     17062     17064
     17059     17062     17070     17063     17062     17064     17063     17062     17070
     17064     17062     17070     17062     17064     17065     17064     17065     17066
     17064     17065     17067     17066     17065     17067     17065     17067     17068
     17065     17067     17069     17065     17067     17079     17068     17067     17069
     17068     17067     17079     17069     17067     17079     17062     17070     17071
     17062     17070     17072     17062     17070     17073     17071     17070     17072
     17071     17070     17073     17072     17070     17073     17070     17073     17074
     17073     17074     17075     17073     17074     17076     17075     17074     17076
     17074     17076     17077     17074     17076     17078     17074     17076     17126
     17077     17076     17078     17077     17076     17126     17078     17076     17126
     17067     17079     17080     17067     17079     17081     17067     17079     17082
     17080     17079     17081     17080     17079     17082     17081     17079     17082
     17079     17082     17083     17079     17082     17084     17079     17082     17085
     17083     17082     17084     17083     17082     17085     17084     17082     17085
     17082     17085     17086     17082     17085     17087     17082     17085     17088
     17086     17085     17087     17086     17085     17088     17087     17085     17088
     17085     17088     17089     17085     17088     17090     17085     17088     17091
     17089     17088     17090     17089     17088     17091     17090     17088     17091
     17088     17091     17092     17088     17091     17093     17088     17091     17094
     17092     17091     17093     17092     17091     17094     17093     17091     17094
     17091     17094     17095     17091     17094     17096     17091     17094     17097
     17095     17094     17096     17095     17094     17097     17096     17094     17097
     17094     17097     17098     17094     17097     17099     17098     17097     17099
     17097     17099     17100     17097     17099     17101     17100     17099     17101
     17099     17101     17102     17099     17101     17103     17099     17101     17104
     17102     17101     17103     17102     17101     17104     17103     17101     17104
     17101     17104     17105     17101     17104     17106     17101     17104     17107
     17105     17104     17106     17105     17104     17107     17106     17104     17107
     17104     17107     17108     17104     17107     17109     17104     17107     17110
     17108     17107     17109     17108     17107     17110     17109     17107     17110
     17107     17110     17111     17107     17110     17112     17107     17110     17113
     17111     17110     17112     17111     17110     17113     17112     17110     17113
     17110     17113     17114     17110     17113     17115     17110     17113     17116
     17114     17113     17115     17114     17113     17116     17115     17113     17116
     17113     17116     17117     17113     17116     17118     17113     17116     17119
     17117     17116     17118     17117     17116     17119     17118     17116     17119
     17116     17119     17120     17116     17119     17121     17116     17119     17122
     17120     17119     17121     17120     17119     17122     17121     17119     17122
     17119     17122     17123     17119     17122     17124     17119     17122     17125
     17123     17122     17124     17123     17122     17125     17124     17122     17125
     17076     17126     17127     17076     17126     17128     17076     17126     17129
     17127     17126     17128     17127     17126     17129     17128     17126     17129
     17126     17129     17130     17126     17129     17131     17126     17129     17132
     17130     17129     17131     17130     17129     17132     17131     17129     17132
     17129     17132     17133     17129     17132     17134     17129     17132     17135
     17133     17132     17134     17133     17132     17135     17134     17132     17135
     17132     17135     17136     17132     17135     17137     17132     17135     17138
     17136     17135     17137     17136     17135     17138     17137     17135     17138
     17135     17138     17139     17135     17138     17140     17135     17138     17141
     17139     17138     17140     17139     17138     17141     17140     17138     17141
     17138     17141     17142     17138     17141     17143     17138     17141     17144
     17142     17141     17143     17142     17141     17144     17143     17141     17144
     17141     17144     17145     17141     17144     17146     17141     17144     17147
     17145     17144     17146     17145     17144     17147     17146     17144     17147
     17144     17147     17148     17144     17147     17149     17144     17147     17150
     17148     17147     17149     17148     17147     17150     17149     17147     17150
     17147     17150     17151     17147     17150     17152     17147     17150     17153
     17151     17150     17152     17151     17150     17153     17152     17150     17153
     17150     17153     17154     17150     17153     17155     17150     17153     17156
     17154     17153     17155     17154     17153     17156     17155     17153     17156
     17153     17156     17157     17153     17156     17158     17153     17156     17159
     17157     17156     17158     17157     17156     17159     17158     17156     17159
     17156     17159     17160     17156     17159     17161     17156     17159     17162
     17160     17159     17161     17160     17159     17162     17161     17159     17162
     17159     17162     17163     17159     17162     17164     17159     17162     17165
     17163     17162     17164     17163     17162     17165     17164     17162     17165
     17162     17165     17166     17162     17165     17167     17162     17165     17168
     17166     17165     17167     17166     17165     17168     17167     17165     17168
     10504     10503     10505     10504     10503     10506     10504     10503     10507
     10505     10503     10506     10505     10503     10507     10506     10503     10507
     10503     10507     10508     10503     10507     10509     10503     10507     10512
     10508     10507     10509     10508     10507     10512     10509     10507     10512
     10507     10509     10510     10507     10509     10511     10510     10509     10511
     10507     10512     10513     10507     10512     10514     10507     10512     10518
     10513     10512     10514     10513     10512     10518     10514     10512     10518
     10516     10515     10517     10516     10515     10518     10516     10515     10519
     10517     10515     10518     10517     10515     10519     10518     10515     10519
     10512     10518     10515     10515     10519     10520     10519     10520     10521
     10519     10520     10522     10519     10520     10523     10521     10520     10522
     10521     10520     10523     10522     10520     10523     10520     10523     10524
     10520     10523     10525     10520     10523     10531     10524     10523     10525
     10524     10523     10531     10525     10523     10531     10523     10525     10526
     10525     10526     10527     10525     10526     10528     10527     10526     10528
     10526     10528     10529     10526     10528     10530     10526     10528     10540
     10529     10528     10530     10529     10528     10540     10530     10528     10540
     10523     10531     10532     10523     10531     10533     10523     10531     10534
     10532     10531     10533     10532     10531     10534     10533     10531     10534
     10531     10534     10535     10534     10535     10536     10534     10535     10537
     10536     10535     10537     10535     10537     10538     10535     10537     10539
     10535     10537     10587     10538     10537     10539     10538     10537     10587
     10539     10537     10587     10528     10540     10541     10528     10540     10542
     10528     10540     10543     10541     10540     10542     10541     10540     10543
     10542     10540     10543     10540     10543     10544     10540     10543     10545
     10540     10543     10546     10544     10543     10545     10544     10543     10546
     10545     10543     10546     10543     10546     10547     10543     10546     10548
     10543     10546     10549     10547     10546     10548     10547     10546     10549
     10548     10546     10549     10546     10549     10550     10546     10549     10551
     10546     10549     10552     10550     10549     10551     10550     10549     10552
     10551     10549     10552     10549     10552     10553     10549     10552     10554
     10549     10552     10555     10553     10552     10554     10553     10552     10555
     10554     10552     10555     10552     10555     10556     10552     10555     10557
     10552     10555     10558     10556     10555     10557     10556     10555     10558
     10557     10555     10558     10555     10558     10559     10555     10558     10560
     10559     10558     10560     10558     10560     10561     10558     10560     10562
     10561     10560     10562     10560     10562     10563     10560     10562     10564
     10560     10562     10565     10563     10562     10564     10563     10562     10565
     10564     10562     10565     10562     10565     10566     10562     10565     10567
     10562     10565     10568     10566     10565     10567     10566     10565     10568
     10567     10565     10568     10565     10568     10569     10565     10568     10570
     10565     10568     10571     10569     10568     10570     10569     10568     10571
     10570     10568     10571     10568     10571     10572     10568     10571     10573
     10568     10571     10574     10572     10571     10573     10572     10571     10574
     10573     10571     10574     10571     10574     10575     10571     10574     10576
     10571     10574     10577     10575     10574     10576     10575     10574     10577
     10576     10574     10577     10574     10577     10578     10574     10577     10579
     10574     10577     10580     10578     10577     10579     10578     10577     10580
     10579     10577     10580     10577     10580     10581     10577     10580     10582
     10577     10580     10583     10581     10580     10582     10581     10580     10583
     10582     10580     10583     10580     10583     10584     10580     10583     10585
     10580     10583     10586     10584     10583     10585     10584     10583     10586
     10585     10583     10586     10537     10587     10588     10537     10587     10589
     10537     10587     10590     10588     10587     10589     10588     10587     10590
     10589     10587     10590     10587     10590     10591     10587     10590     10592
     10587     10590     10593     10591     10590     10592     10591     10590     10593
     10592     10590     10593     10590     10593     10594     10590     10593     10595
     10590     10593     10596     10594     10593     10595     10594     10593     10596
     10595     10593     10596     10593     10596     10597     10593     10596     10598
     10593     10596     10599     10597     10596     10598     10597     10596     10599
     10598     10596     10599     10596     10599     10600     10596     10599     10601
     10596     10599     10602     10600     10599     10601     10600     10599     10602
     10601     10599     10602     10599     10602     10603     10599     10602     10604
     10599     10602     10605     10603     10602     10604     10603     10602     10605
     10604     10602     10605     10602     10605     10606     10602     10605     10607
     10602     10605     10608     10606     10605     10607     10606     10605     10608
     10607     10605     10608     10605     10608     10609     10605     10608     10610
     10605     10608     10611     10609     10608     10610     10609     10608     10611
     10610     10608     10611     10608     10611     10612     10608     10611     10613
     10608     10611     10614     10612     10611     10613     10612     10611     10614
     10613     10611     10614     10611     10614     10615     10611     10614     10616
     10611     10614     10617     10615     10614     10616     10615     10614     10617
     10616     10614     10617     10614     10617     10618     10614     10617     10619
     10614     10617     10620     10618     10617     10619     10618     10617     10620
     10619     10617     10620     10617     10620     10621     10617     10620     10622
     10617     10620     10623     10621     10620     10622     10621     10620     10623
     10622     10620     10623     10620     10623     10624     10620     10623     10625
     10620     10623     10626     10624     10623     10625     10624     10623     10626
     10625     10623     10626     10623     10626     10627     10623     10626     10628
     10623     10626     10629     10627     10626     10628     10627     10626     10629
     10628     10626     10629     17170     17169     17173     17170     17169     17177
     17170     17169     17181     17173     17169     17177     17173     17169     17181
     17177     17169     17181     17169     17170     17171     17169     17170     17172
     17169     17170     17185     17171     17170     17172     17171     17170     17185
     17172     17170     17185     17169     17173     17174     17169     17173     17175
     17169     17173     17176     17174     17173     17175     17174     17173     17176
     17175     17173     17176     17169     17177     17178     17169     17177     17179
     17169     17177     17180     17178     17177     17179     17178     17177     17180
     17179     17177     17180     17169     17181     17182     17169     17181     17183
     17169     17181     17184     17182     17181     17183     17182     17181     17184
     17183     17181     17184     17170     17185     17186     17170     17185     17187
     17170     17185     17191     17186     17185     17187     17186     17185     17191
     17187     17185     17191     17189     17188     17190     17189     17188     17191
     17189     17188     17192     17190     17188     17191     17190     17188     17192
     17191     17188     17192     17185     17191     17188     17188     17192     17193
     17192     17193     17194     17192     17193     17195     17192     17193     17196
     17194     17193     17195     17194     17193     17196     17195     17193     17196
     17193     17196     17197     17193     17196     17198     17193     17196     17204
     17197     17196     17198     17197     17196     17204     17198     17196     17204
     17196     17198     17199     17198     17199     17200     17198     17199     17201
     17200     17199     17201     17199     17201     17202     17199     17201     17203
     17199     17201     17213     17202     17201     17203     17202     17201     17213
     17203     17201     17213     17196     17204     17205     17196     17204     17206
     17196     17204     17207     17205     17204     17206     17205     17204     17207
     17206     17204     17207     17204     17207     17208     17207     17208     17209
     17207     17208     17210     17209     17208     17210     17208     17210     17211
     17208     17210     17212     17208     17210     17260     17211     17210     17212
     17211     17210     17260     17212     17210     17260     17201     17213     17214
     17201     17213     17215     17201     17213     17216     17214     17213     17215
     17214     17213     17216     17215     17213     17216     17213     17216     17217
     17213     17216     17218     17213     17216     17219     17217     17216     17218
     17217     17216     17219     17218     17216     17219     17216     17219     17220
     17216     17219     17221     17216     17219     17222     17220     17219     17221
     17220     17219     17222     17221     17219     17222     17219     17222     17223
     17219     17222     17224     17219     17222     17225     17223     17222     17224
     17223     17222     17225     17224     17222     17225     17222     17225     17226
     17222     17225     17227     17222     17225     17228     17226     17225     17227
     17226     17225     17228     17227     17225     17228     17225     17228     17229
     17225     17228     17230     17225     17228     17231     17229     17228     17230
     17229     17228     17231     17230     17228     17231     17228     17231     17232
     17228     17231     17233     17232     17231     17233     17231     17233     17234
     17231     17233     17235     17234     17233     17235     17233     17235     17236
     17233     17235     17237     17233     17235     17238     17236     17235     17237
     17236     17235     17238     17237     17235     17238     17235     17238     17239
     17235     17238     17240     17235     17238     17241     17239     17238     17240
     17239     17238     17241     17240     17238     17241     17238     17241     17242
     17238     17241     17243     17238     17241     17244     17242     17241     17243
     17242     17241     17244     17243     17241     17244     17241     17244     17245
     17241     17244     17246     17241     17244     17247     17245     17244     17246
     17245     17244     17247     17246     17244     17247     17244     17247     17248
     17244     17247     17249     17244     17247     17250     17248     17247     17249
     17248     17247     17250     17249     17247     17250     17247     17250     17251
     17247     17250     17252     17247     17250     17253     17251     17250     17252
     17251     17250     17253     17252     17250     17253     17250     17253     17254
     17250     17253     17255     17250     17253     17256     17254     17253     17255
     17254     17253     17256     17255     17253     17256     17253     17256     17257
     17253     17256     17258     17253     17256     17259     17257     17256     17258
     17257     17256     17259     17258     17256     17259     17210     17260     17261
     17210     17260     17262     17210     17260     17263     17261     17260     17262
     17261     17260     17263     17262     17260     17263     17260     17263     17264
     17260     17263     17265     17260     17263     17266     17264     17263     17265
     17264     17263     17266     17265     17263     17266     17263     17266     17267
     17263     17266     17268     17263     17266     17269     17267     17266     17268
     17267     17266     17269     17268     17266     17269     17266     17269     17270
     17266     17269     17271     17266     17269     17272     17270     17269     17271
     17270     17269     17272     17271     17269     17272     17269     17272     17273
     17269     17272     17274     17269     17272     17275     17273     17272     17274
     17273     17272     17275     17274     17272     17275     17272     17275     17276
     17272     17275     17277     17272     17275     17278     17276     17275     17277
     17276     17275     17278     17277     17275     17278     17275     17278     17279
     17275     17278     17280     17275     17278     17281     17279     17278     17280
     17279     17278     17281     17280     17278     17281     17278     17281     17282
     17278     17281     17283     17278     17281     17284     17282     17281     17283
     17282     17281     17284     17283     17281     17284     17281     17284     17285
     17281     17284     17286     17281     17284     17287     17285     17284     17286
     17285     17284     17287     17286     17284     17287     17284     17287     17288
     17284     17287     17289     17284     17287     17290     17288     17287     17289
     17288     17287     17290     17289     17287     17290     17287     17290     17291
     17287     17290     17292     17287     17290     17293     17291     17290     17292
     17291     17290     17293     17292     17290     17293     17290     17293     17294
     17290     17293     17295     17290     17293     17296     17294     17293     17295
     17294     17293     17296     17295     17293     17296     17293     17296     17297
     17293     17296     17298     17293     17296     17299     17297     17296     17298
     17297     17296     17299     17298     17296     17299     17296     17299     17300
     17296     17299     17301     17296     17299     17302     17300     17299     17301
     17300     17299     17302     17301     17299     17302     10631     10630     10632
     10631     10630     10633     10631     10630     10634     10632     10630     10633
     10632     10630     10634     10633     10630     10634     10630     10634     10635
     10630     10634     10636     10630     10634     10639     10635     10634     10636
     10635     10634     10639     10636     10634     10639     10634     10636     10637
     10634     10636     10638     10637     10636     10638     10634     10639     10640
     10634     10639     10641     10634     10639     10645     10640     10639     10641
     10640     10639     10645     10641     10639     10645     10643     10642     10644
     10643     10642     10645     10643     10642     10646     10644     10642     10645
     10644     10642     10646     10645     10642     10646     10639     10645     10642
     10642     10646     10647     10646     10647     10648     10646     10647     10649
     10646     10647     10650     10648     10647     10649     10648     10647     10650
     10649     10647     10650     10647     10650     10651     10647     10650     10652
     10647     10650     10658     10651     10650     10652     10651     10650     10658
     10652     10650     10658     10650     10652     10653     10652     10653     10654
     10652     10653     10655     10654     10653     10655     10653     10655     10656
     10653     10655     10657     10653     10655     10667     10656     10655     10657
     10656     10655     10667     10657     10655     10667     10650     10658     10659
     10650     10658     10660     10650     10658     10661     10659     10658     10660
     10659     10658     10661     10660     10658     10661     10658     10661     10662
     10661     10662     10663     10661     10662     10664     10663     10662     10664
     10662     10664     10665     10662     10664     10666     10662     10664     10714
     10665     10664     10666     10665     10664     10714     10666     10664     10714
     10655     10667     10668     10655     10667     10669     10655     10667     10670
     10668     10667     10669     10668     10667     10670     10669     10667     10670
     10667     10670     10671     10667     10670     10672     10667     10670     10673
     10671     10670     10672     10671     10670     10673     10672     10670     10673
     10670     10673     10674     10670     10673     10675     10670     10673     10676
     10674     10673     10675     10674     10673     10676     10675     10673     10676
     10673     10676     10677     10673     10676     10678     10673     10676     10679
     10677     10676     10678     10677     10676     10679     10678     10676     10679
     10676     10679     10680     10676     10679     10681     10676     10679     10682
     10680     10679     10681     10680     10679     10682     10681     10679     10682
     10679     10682     10683     10679     10682     10684     10679     10682     10685
     10683     10682     10684     10683     10682     10685     10684     10682     10685
     10682     10685     10686     10682     10685     10687     10686     10685     10687
     10685     10687     10688     10685     10687     10689     10688     10687     10689
     10687     10689     10690     10687     10689     10691     10687     10689     10692
     10690     10689     10691     10690     10689     10692     10691     10689     10692
     10689     10692     10693     10689     10692     10694     10689     10692     10695
     10693     10692     10694     10693     10692     10695     10694     10692     10695
     10692     10695     10696     10692     10695     10697     10692     10695     10698
     10696     10695     10697     10696     10695     10698     10697     10695     10698
     10695     10698     10699     10695     10698     10700     10695     10698     10701
     10699     10698     10700     10699     10698     10701     10700     10698     10701
     10698     10701     10702     10698     10701     10703     10698     10701     10704
     10702     10701     10703     10702     10701     10704     10703     10701     10704
     10701     10704     10705     10701     10704     10706     10701     10704     10707
     10705     10704     10706     10705     10704     10707     10706     10704     10707
     10704     10707     10708     10704     10707     10709     10704     10707     10710
     10708     10707     10709     10708     10707     10710     10709     10707     10710
     10707     10710     10711     10707     10710     10712     10707     10710     10713
     10711     10710     10712     10711     10710     10713     10712     10710     10713
     10664     10714     10715     10664     10714     10716     10664     10714     10717
     10715     10714     10716     10715     10714     10717     10716     10714     10717
     10714     10717     10718     10714     10717     10719     10714     10717     10720
     10718     10717     10719     10718     10717     10720     10719     10717     10720
     10717     10720     10721     10717     10720     10722     10717     10720     10723
     10721     10720     10722     10721     10720     10723     10722     10720     10723
     10720     10723     10724     10720     10723     10725     10720     10723     10726
     10724     10723     10725     10724     10723     10726     10725     10723     10726
     10723     10726     10727     10723     10726     10728     10723     10726     10729
     10727     10726     10728     10727     10726     10729     10728     10726     10729
     10726     10729     10730     10726     10729     10731     10726     10729     10732
     10730     10729     10731     10730     10729     10732     10731     10729     10732
     10729     10732     10733     10729     10732     10734     10729     10732     10735
     10733     10732     10734     10733     10732     10735     10734     10732     10735
     10732     10735     10736     10732     10735     10737     10732     10735     10738
     10736     10735     10737     10736     10735     10738     10737     10735     10738
     10735     10738     10739     10735     10738     10740     10735     10738     10741
     10739     10738     10740     10739     10738     10741     10740     10738     10741
     10738     10741     10742     10738     10741     10743     10738     10741     10744
     10742     10741     10743     10742     10741     10744     10743     10741     10744
     10741     10744     10745     10741     10744     10746     10741     10744     10747
     10745     10744     10746     10745     10744     10747     10746     10744     10747
     10744     10747     10748     10744     10747     10749     10744     10747     10750
     10748     10747     10749     10748     10747     10750     10749     10747     10750
     10747     10750     10751     10747     10750     10752     10747     10750     10753
     10751     10750     10752     10751     10750     10753     10752     10750     10753
     10750     10753     10754     10750     10753     10755     10750     10753     10756
     10754     10753     10755     10754     10753     10756     10755     10753     10756
       964       963       965       964       963       967       964       963      1009
       965       963       967       965       963      1009       967       963      1009
       963       965       966       963       967       968       963       967       969
       963       967       970       968       967       969       968       967       970
       969       967       970       967       970       971       967       970      1001
       971       970      1001       970       971       972       970       971       973
       972       971       973       971       973       974       971       973       975
       971       973       976       974       973       975       974       973       976
       975       973       976       973       976       977       973       976       978
       973       976       999       977       976       978       977       976       999
       978       976       999       976       978       979       976       978       980
       976       978       988       979       978       980       979       978       988
       980       978       988       978       980       981       978       980       982
       978       980       983       981       980       982       981       980       983
       982       980       983       980       983       984       980       983       985
       980       983       986       984       983       985       984       983       986
       985       983       986       983       986       987       983       986       988
       983       986      1012       987       986       988       987       986      1012
       988       986      1012       978       988       986       978       988       989
       978       988       993       986       988       989       986       988       993
       989       988       993       988       989       990       988       989       991
       988       989       992       990       989       991       990       989       992
       991       989       992       988       993       994       988       993       995
       988       993       996       994       993       995       994       993       996
       995       993       996       993       996       997       993       996       998
       993       996       999       997       996       998       997       996       999
       998       996       999       976       999       996       976       999      1000
       976       999      1001       996       999      1000       996       999      1001
      1000       999      1001       970      1001       999       970      1001      1002
       970      1001      1006       999      1001      1002       999      1001      1006
      1002      1001      1006      1001      1002      1003      1001      1002      1004
      1001      1002      1005      1003      1002      1004      1003      1002      1005
      1004      1002      1005      1001      1006      1007      1001      1006      1008
      1001      1006      1009      1007      1006      1008      1007      1006      1009
      1008      1006      1009       963      1009      1006       963      1009      1010
       963      1009      1011      1006      1009      1010      1006      1009      1011
      1010      1009      1011       986      1012      1013       986      1012      1014
       986      1012      1018      1013      1012      1014      1013      1012      1018
      1014      1012      1018      1012      1014      1015      1012      1014      1016
      1012      1014      1017      1015      1014      1016      1015      1014      1017
      1016      1014      1017      1012      1018      1019      1012      1018      1020
      1012      1018      1021      1019      1018      1020      1019      1018      1021
      1020      1018      1021      1018      1021      1022      1018      1021      1023
      1018      1021      1024      1022      1021      1023      1022      1021      1024
      1023      1021      1024      1021      1024      1025      1021      1024      1026
      1021      1024      1027      1025      1024      1026      1025      1024      1027
      1026      1024      1027      1024      1027      1028      1024      1027      1029
      1024      1027      1033      1028      1027      1029      1028      1027      1033
      1029      1027      1033      1027      1029      1030      1027      1029      1031
      1027      1029      1032      1030      1029      1031      1030      1029      1032
      1031      1029      1032      1027      1033      1034      1027      1033      1035
      1027      1033      1036      1034      1033      1035      1034      1033      1036
      1035      1033      1036     10758     10757     10759     10758     10757     10760
     10758     10757     10761     10759     10757     10760     10759     10757     10761
     10760     10757     10761     10757     10761     10762     10757     10761     10763
     10757     10761     10766     10762     10761     10763     10762     10761     10766
     10763     10761     10766     10761     10763     10764     10761     10763     10765
     10764     10763     10765     10761     10766     10767     10761     10766     10768
     10761     10766     10772     10767     10766     10768     10767     10766     10772
     10768     10766     10772     10770     10769     10771     10770     10769     10772
     10770     10769     10773     10771     10769     10772     10771     10769     10773
     10772     10769     10773     10766     10772     10769     10769     10773     10774
     10773     10774     10775     10773     10774     10776     10773     10774     10777
     10775     10774     10776     10775     10774     10777     10776     10774     10777
     10774     10777     10778     10774     10777     10779     10774     10777     10785
     10778     10777     10779     10778     10777     10785     10779     10777     10785
     10777     10779     10780     10779     10780     10781     10779     10780     10782
     10781     10780     10782     10780     10782     10783     10780     10782     10784
     10780     10782     10794     10783     10782     10784     10783     10782     10794
     10784     10782     10794     10777     10785     10786     10777     10785     10787
     10777     10785     10788     10786     10785     10787     10786     10785     10788
     10787     10785     10788     10785     10788     10789     10788     10789     10790
     10788     10789     10791     10790     10789     10791     10789     10791     10792
     10789     10791     10793     10789     10791     10841     10792     10791     10793
     10792     10791     10841     10793     10791     10841     10782     10794     10795
     10782     10794     10796     10782     10794     10797     10795     10794     10796
     10795     10794     10797     10796     10794     10797     10794     10797     10798
     10794     10797     10799     10794     10797     10800     10798     10797     10799
     10798     10797     10800     10799     10797     10800     10797     10800     10801
     10797     10800     10802     10797     10800     10803     10801     10800     10802
     10801     10800     10803     10802     10800     10803     10800     10803     10804
     10800     10803     10805     10800     10803     10806     10804     10803     10805
     10804     10803     10806     10805     10803     10806     10803     10806     10807
     10803     10806     10808     10803     10806     10809     10807     10806     10808
     10807     10806     10809     10808     10806     10809     10806     10809     10810
     10806     10809     10811     10806     10809     10812     10810     10809     10811
     10810     10809     10812     10811     10809     10812     10809     10812     10813
     10809     10812     10814     10813     10812     10814     10812     10814     10815
     10812     10814     10816     10815     10814     10816     10814     10816     10817
     10814     10816     10818     10814     10816     10819     10817     10816     10818
     10817     10816     10819     10818     10816     10819     10816     10819     10820
     10816     10819     10821     10816     10819     10822     10820     10819     10821
     10820     10819     10822     10821     10819     10822     10819     10822     10823
     10819     10822     10824     10819     10822     10825     10823     10822     10824
     10823     10822     10825     10824     10822     10825     10822     10825     10826
     10822     10825     10827     10822     10825     10828     10826     10825     10827
     10826     10825     10828     10827     10825     10828     10825     10828     10829
     10825     10828     10830     10825     10828     10831     10829     10828     10830
     10829     10828     10831     10830     10828     10831     10828     10831     10832
     10828     10831     10833     10828     10831     10834     10832     10831     10833
     10832     10831     10834     10833     10831     10834     10831     10834     10835
     10831     10834     10836     10831     10834     10837     10835     10834     10836
     10835     10834     10837     10836     10834     10837     10834     10837     10838
     10834     10837     10839     10834     10837     10840     10838     10837     10839
     10838     10837     10840     10839     10837     10840     10791     10841     10842
     10791     10841     10843     10791     10841     10844     10842     10841     10843
     10842     10841     10844     10843     10841     10844     10841     10844     10845
     10841     10844     10846     10841     10844     10847     10845     10844     10846
     10845     10844     10847     10846     10844     10847     10844     10847     10848
     10844     10847     10849     10844     10847     10850     10848     10847     10849
     10848     10847     10850     10849     10847     10850     10847     10850     10851
     10847     10850     10852     10847     10850     10853     10851     10850     10852
     10851     10850     10853     10852     10850     10853     10850     10853     10854
     10850     10853     10855     10850     10853     10856     10854     10853     10855
     10854     10853     10856     10855     10853     10856     10853     10856     10857
     10853     10856     10858     10853     10856     10859     10857     10856     10858
     10857     10856     10859     10858     10856     10859     10856     10859     10860
     10856     10859     10861     10856     10859     10862     10860     10859     10861
     10860     10859     10862     10861     10859     10862     10859     10862     10863
     10859     10862     10864     10859     10862     10865     10863     10862     10864
     10863     10862     10865     10864     10862     10865     10862     10865     10866
     10862     10865     10867     10862     10865     10868     10866     10865     10867
     10866     10865     10868     10867     10865     10868     10865     10868     10869
     10865     10868     10870     10865     10868     10871     10869     10868     10870
     10869     10868     10871     10870     10868     10871     10868     10871     10872
     10868     10871     10873     10868     10871     10874     10872     10871     10873
     10872     10871     10874     10873     10871     10874     10871     10874     10875
     10871     10874     10876     10871     10874     10877     10875     10874     10876
     10875     10874     10877     10876     10874     10877     10874     10877     10878
     10874     10877     10879     10874     10877     10880     10878     10877     10879
     10878     10877     10880     10879     10877     10880     10877     10880     10881
     10877     10880     10882     10877     10880     10883     10881     10880     10882
     10881     10880     10883     10882     10880     10883     17304     17303     17307
     17304     17303     17311     17304     17303     17315     17307     17303     17311
     17307     17303     17315     17311     17303     17315     17303     17304     17305
     17303     17304     17306     17303     17304     17319     17305     17304     17306
     17305     17304     17319     17306     17304     17319     17303     17307     17308
     17303     17307     17309     17303     17307     17310     17308     17307     17309
     17308     17307     17310     17309     17307     17310     17303     17311     17312
     17303     17311     17313     17303     17311     17314     17312     17311     17313
     17312     17311     17314     17313     17311     17314     17303     17315     17316
     17303     17315     17317     17303     17315     17318     17316     17315     17317
     17316     17315     17318     17317     17315     17318     17304     17319     17320
     17304     17319     17321     17304     17319     17325     17320     17319     17321
     17320     17319     17325     17321     17319     17325     17323     17322     17324
     17323     17322     17325     17323     17322     17326     17324     17322     17325
     17324     17322     17326     17325     17322     17326     17319     17325     17322
     17322     17326     17327     17326     17327     17328     17326     17327     17329
     17326     17327     17330     17328     17327     17329     17328     17327     17330
     17329     17327     17330     17327     17330     17331     17327     17330     17332
     17327     17330     17338     17331     17330     17332     17331     17330     17338
     17332     17330     17338     17330     17332     17333     17332     17333     17334
     17332     17333     17335     17334     17333     17335     17333     17335     17336
     17333     17335     17337     17333     17335     17347     17336     17335     17337
     17336     17335     17347     17337     17335     17347     17330     17338     17339
     17330     17338     17340     17330     17338     17341     17339     17338     17340
     17339     17338     17341     17340     17338     17341     17338     17341     17342
     17341     17342     17343     17341     17342     17344     17343     17342     17344
     17342     17344     17345     17342     17344     17346     17342     17344     17394
     17345     17344     17346     17345     17344     17394     17346     17344     17394
     17335     17347     17348     17335     17347     17349     17335     17347     17350
     17348     17347     17349     17348     17347     17350     17349     17347     17350
     17347     17350     17351     17347     17350     17352     17347     17350     17353
     17351     17350     17352     17351     17350     17353     17352     17350     17353
     17350     17353     17354     17350     17353     17355     17350     17353     17356
     17354     17353     17355     17354     17353     17356     17355     17353     17356
     17353     17356     17357     17353     17356     17358     17353     17356     17359
     17357     17356     17358     17357     17356     17359     17358     17356     17359
     17356     17359     17360     17356     17359     17361     17356     17359     17362
     17360     17359     17361     17360     17359     17362     17361     17359     17362
     17359     17362     17363     17359     17362     17364     17359     17362     17365
     17363     17362     17364     17363     17362     17365     17364     17362     17365
     17362     17365     17366     17362     17365     17367     17366     17365     17367
     17365     17367     17368     17365     17367     17369     17368     17367     17369
     17367     17369     17370     17367     17369     17371     17367     17369     17372
     17370     17369     17371     17370     17369     17372     17371     17369     17372
     17369     17372     17373     17369     17372     17374     17369     17372     17375
     17373     17372     17374     17373     17372     17375     17374     17372     17375
     17372     17375     17376     17372     17375     17377     17372     17375     17378
     17376     17375     17377     17376     17375     17378     17377     17375     17378
     17375     17378     17379     17375     17378     17380     17375     17378     17381
     17379     17378     17380     17379     17378     17381     17380     17378     17381
     17378     17381     17382     17378     17381     17383     17378     17381     17384
     17382     17381     17383     17382     17381     17384     17383     17381     17384
     17381     17384     17385     17381     17384     17386     17381     17384     17387
     17385     17384     17386     17385     17384     17387     17386     17384     17387
     17384     17387     17388     17384     17387     17389     17384     17387     17390
     17388     17387     17389     17388     17387     17390     17389     17387     17390
     17387     17390     17391     17387     17390     17392     17387     17390     17393
     17391     17390     17392     17391     17390     17393     17392     17390     17393
     17344     17394     17395     17344     17394     17396     17344     17394     17397
     17395     17394     17396     17395     17394     17397     17396     17394     17397
     17394     17397     17398     17394     17397     17399     17394     17397     17400
     17398     17397     17399     17398     17397     17400     17399     17397     17400
     17397     17400     17401     17397     17400     17402     17397     17400     17403
     17401     17400     17402     17401     17400     17403     17402     17400     17403
     17400     17403     17404     17400     17403     17405     17400     17403     17406
     17404     17403     17405     17404     17403     17406     17405     17403     17406
     17403     17406     17407     17403     17406     17408     17403     17406     17409
     17407     17406     17408     17407     17406     17409     17408     17406     17409
     17406     17409     17410     17406     17409     17411     17406     17409     17412
     17410     17409     17411     17410     17409     17412     17411     17409     17412
     17409     17412     17413     17409     17412     17414     17409     17412     17415
     17413     17412     17414     17413     17412     17415     17414     17412     17415
     17412     17415     17416     17412     17415     17417     17412     17415     17418
     17416     17415     17417     17416     17415     17418     17417     17415     17418
     17415     17418     17419     17415     17418     17420     17415     17418     17421
     17419     17418     17420     17419     17418     17421     17420     17418     17421
     17418     17421     17422     17418     17421     17423     17418     17421     17424
     17422     17421     17423     17422     17421     17424     17423     17421     17424
     17421     17424     17425     17421     17424     17426     17421     17424     17427
     17425     17424     17426     17425     17424     17427     17426     17424     17427
     17424     17427     17428     17424     17427     17429     17424     17427     17430
     17428     17427     17429     17428     17427     17430     17429     17427     17430
     17427     17430     17431     17427     17430     17432     17427     17430     17433
     17431     17430     17432     17431     17430     17433     17432     17430     17433
     17430     17433     17434     17430     17433     17435     17430     17433     17436
     17434     17433     17435     17434     17433     17436     17435     17433     17436
     10885     10884     10886     10885     10884     10887     10885     10884     10888
     10886     10884     10887     10886     10884     10888     10887     10884     10888
     10884     10888     10889     10884     10888     10890     10884     10888     10893
     10889     10888     10890     10889     10888     10893     10890     10888     10893
     10888     10890     10891     10888     10890     10892     10891     10890     10892
     10888     10893     10894     10888     10893     10895     10888     10893     10899
     10894     10893     10895     10894     10893     10899     10895     10893     10899
     10897     10896     10898     10897     10896     10899     10897     10896     10900
     10898     10896     10899     10898     10896     10900     10899     10896     10900
     10893     10899     10896     10896     10900     10901     10900     10901     10902
     10900     10901     10903     10900     10901     10904     10902     10901     10903
     10902     10901     10904     10903     10901     10904     10901     10904     10905
     10901     10904     10906     10901     10904     10912     10905     10904     10906
     10905     10904     10912     10906     10904     10912     10904     10906     10907
     10906     10907     10908     10906     10907     10909     10908     10907     10909
     10907     10909     10910     10907     10909     10911     10907     10909     10921
     10910     10909     10911     10910     10909     10921     10911     10909     10921
     10904     10912     10913     10904     10912     10914     10904     10912     10915
     10913     10912     10914     10913     10912     10915     10914     10912     10915
     10912     10915     10916     10915     10916     10917     10915     10916     10918
     10917     10916     10918     10916     10918     10919     10916     10918     10920
     10916     10918     10968     10919     10918     10920     10919     10918     10968
     10920     10918     10968     10909     10921     10922     10909     10921     10923
     10909     10921     10924     10922     10921     10923     10922     10921     10924
     10923     10921     10924     10921     10924     10925     10921     10924     10926
     10921     10924     10927     10925     10924     10926     10925     10924     10927
     10926     10924     10927     10924     10927     10928     10924     10927     10929
     10924     10927     10930     10928     10927     10929     10928     10927     10930
     10929     10927     10930     10927     10930     10931     10927     10930     10932
     10927     10930     10933     10931     10930     10932     10931     10930     10933
     10932     10930     10933     10930     10933     10934     10930     10933     10935
     10930     10933     10936     10934     10933     10935     10934     10933     10936
     10935     10933     10936     10933     10936     10937     10933     10936     10938
     10933     10936     10939     10937     10936     10938     10937     10936     10939
     10938     10936     10939     10936     10939     10940     10936     10939     10941
     10940     10939     10941     10939     10941     10942     10939     10941     10943
     10942     10941     10943     10941     10943     10944     10941     10943     10945
     10941     10943     10946     10944     10943     10945     10944     10943     10946
     10945     10943     10946     10943     10946     10947     10943     10946     10948
     10943     10946     10949     10947     10946     10948     10947     10946     10949
     10948     10946     10949     10946     10949     10950     10946     10949     10951
     10946     10949     10952     10950     10949     10951     10950     10949     10952
     10951     10949     10952     10949     10952     10953     10949     10952     10954
     10949     10952     10955     10953     10952     10954     10953     10952     10955
     10954     10952     10955     10952     10955     10956     10952     10955     10957
     10952     10955     10958     10956     10955     10957     10956     10955     10958
     10957     10955     10958     10955     10958     10959     10955     10958     10960
     10955     10958     10961     10959     10958     10960     10959     10958     10961
     10960     10958     10961     10958     10961     10962     10958     10961     10963
     10958     10961     10964     10962     10961     10963     10962     10961     10964
     10963     10961     10964     10961     10964     10965     10961     10964     10966
     10961     10964     10967     10965     10964     10966     10965     10964     10967
     10966     10964     10967     10918     10968     10969     10918     10968     10970
     10918     10968     10971     10969     10968     10970     10969     10968     10971
     10970     10968     10971     10968     10971     10972     10968     10971     10973
     10968     10971     10974     10972     10971     10973     10972     10971     10974
     10973     10971     10974     10971     10974     10975     10971     10974     10976
     10971     10974     10977     10975     10974     10976     10975     10974     10977
     10976     10974     10977     10974     10977     10978     10974     10977     10979
     10974     10977     10980     10978     10977     10979     10978     10977     10980
     10979     10977     10980     10977     10980     10981     10977     10980     10982
     10977     10980     10983     10981     10980     10982     10981     10980     10983
     10982     10980     10983     10980     10983     10984     10980     10983     10985
     10980     10983     10986     10984     10983     10985     10984     10983     10986
     10985     10983     10986     10983     10986     10987     10983     10986     10988
     10983     10986     10989     10987     10986     10988     10987     10986     10989
     10988     10986     10989     10986     10989     10990     10986     10989     10991
     10986     10989     10992     10990     10989     10991     10990     10989     10992
     10991     10989     10992     10989     10992     10993     10989     10992     10994
     10989     10992     10995     10993     10992     10994     10993     10992     10995
     10994     10992     10995     10992     10995     10996     10992     10995     10997
     10992     10995     10998     10996     10995     10997     10996     10995     10998
     10997     10995     10998     10995     10998     10999     10995     10998     11000
     10995     10998     11001     10999     10998     11000     10999     10998     11001
     11000     10998     11001     10998     11001     11002     10998     11001     11003
     10998     11001     11004     11002     11001     11003     11002     11001     11004
     11003     11001     11004     11001     11004     11005     11001     11004     11006
     11001     11004     11007     11005     11004     11006     11005     11004     11007
     11006     11004     11007     11004     11007     11008     11004     11007     11009
     11004     11007     11010     11008     11007     11009     11008     11007     11010
     11009     11007     11010      1038      1037      1039      1038      1037      1041
      1038      1037      1083      1039      1037      1041      1039      1037      1083
      1041      1037      1083      1037      1039      1040      1037      1041      1042
      1037      1041      1043      1037      1041      1044      1042      1041      1043
      1042      1041      1044      1043      1041      1044      1041      1044      1045
      1041      1044      1075      1045      1044      1075      1044      1045      1046
      1044      1045      1047      1046      1045      1047      1045      1047      1048
      1045      1047      1049      1045      1047      1050      1048      1047      1049
      1048      1047      1050      1049      1047      1050      1047      1050      1051
      1047      1050      1052      1047      1050      1073      1051      1050      1052
      1051      1050      1073      1052      1050      1073      1050      1052      1053
      1050      1052      1054      1050      1052      1062      1053      1052      1054
      1053      1052      1062      1054      1052      1062      1052      1054      1055
      1052      1054      1056      1052      1054      1057      1055      1054      1056
      1055      1054      1057      1056      1054      1057      1054      1057      1058
      1054      1057      1059      1054      1057      1060      1058      1057      1059
      1058      1057      1060      1059      1057      1060      1057      1060      1061
      1057      1060      1062      1057      1060      1086      1061      1060      1062
      1061      1060      1086      1062      1060      1086      1052      1062      1060
      1052      1062      1063      1052      1062      1067      1060      1062      1063
      1060      1062      1067      1063      1062      1067      1062      1063      1064
      1062      1063      1065      1062      1063      1066      1064      1063      1065
      1064      1063      1066      1065      1063      1066      1062      1067      1068
      1062      1067      1069      1062      1067      1070      1068      1067      1069
      1068      1067      1070      1069      1067      1070      1067      1070      1071
      1067      1070      1072      1067      1070      1073      1071      1070      1072
      1071      1070      1073      1072      1070      1073      1050      1073      1070
      1050      1073      1074      1050      1073      1075      1070      1073      1074
      1070      1073      1075      1074      1073      1075      1044      1075      1073
      1044      1075      1076      1044      1075      1080      1073      1075      1076
      1073      1075      1080      1076      1075      1080      1075      1076      1077
      1075      1076      1078      1075      1076      1079      1077      1076      1078
      1077      1076      1079      1078      1076      1079      1075      1080      1081
      1075      1080      1082      1075      1080      1083      1081      1080      1082
      1081      1080      1083      1082      1080      1083      1037      1083      1080
      1037      1083      1084      1037      1083      1085      1080      1083      1084
      1080      1083      1085      1084      1083      1085      1060      1086      1087
      1060      1086      1088      1060      1086      1092      1087      1086      1088
      1087      1086      1092      1088      1086      1092      1086      1088      1089
      1086      1088      1090      1086      1088      1091      1089      1088      1090
      1089      1088      1091      1090      1088      1091      1086      1092      1093
      1086      1092      1094      1086      1092      1095      1093      1092      1094
      1093      1092      1095      1094      1092      1095      1092      1095      1096
      1092      1095      1097      1092      1095      1098      1096      1095      1097
      1096      1095      1098      1097      1095      1098      1095      1098      1099
      1095      1098      1100      1095      1098      1101      1099      1098      1100
      1099      1098      1101      1100      1098      1101      1098      1101      1102
      1098      1101      1103      1098      1101      1107      1102      1101      1103
      1102      1101      1107      1103      1101      1107      1101      1103      1104
      1101      1103      1105      1101      1103      1106      1104      1103      1105
      1104      1103      1106      1105      1103      1106      1101      1107      1108
      1101      1107      1109      1101      1107      1110      1108      1107      1109
      1108      1107      1110      1109      1107      1110     17438     17437     17441
     17438     17437     17445     17438     17437     17449     17441     17437     17445
     17441     17437     17449     17445     17437     17449     17437     17438     17439
     17437     17438     17440     17437     17438     17453     17439     17438     17440
     17439     17438     17453     17440     17438     17453     17437     17441     17442
     17437     17441     17443     17437     17441     17444     17442     17441     17443
     17442     17441     17444     17443     17441     17444     17437     17445     17446
     17437     17445     17447     17437     17445     17448     17446     17445     17447
     17446     17445     17448     17447     17445     17448     17437     17449     17450
     17437     17449     17451     17437     17449     17452     17450     17449     17451
     17450     17449     17452     17451     17449     17452     17438     17453     17454
     17438     17453     17455     17438     17453     17459     17454     17453     17455
     17454     17453     17459     17455     17453     17459     17457     17456     17458
     17457     17456     17459     17457     17456     17460     17458     17456     17459
     17458     17456     17460     17459     17456     17460     17453     17459     17456
     17456     17460     17461     17460     17461     17462     17460     17461     17463
     17460     17461     17464     17462     17461     17463     17462     17461     17464
     17463     17461     17464     17461     17464     17465     17461     17464     17466
     17461     17464     17472     17465     17464     17466     17465     17464     17472
     17466     17464     17472     17464     17466     17467     17466     17467     17468
     17466     17467     17469     17468     17467     17469     17467     17469     17470
     17467     17469     17471     17467     17469     17481     17470     17469     17471
     17470     17469     17481     17471     17469     17481     17464     17472     17473
     17464     17472     17474     17464     17472     17475     17473     17472     17474
     17473     17472     17475     17474     17472     17475     17472     17475     17476
     17475     17476     17477     17475     17476     17478     17477     17476     17478
     17476     17478     17479     17476     17478     17480     17476     17478     17528
     17479     17478     17480     17479     17478     17528     17480     17478     17528
     17469     17481     17482     17469     17481     17483     17469     17481     17484
     17482     17481     17483     17482     17481     17484     17483     17481     17484
     17481     17484     17485     17481     17484     17486     17481     17484     17487
     17485     17484     17486     17485     17484     17487     17486     17484     17487
     17484     17487     17488     17484     17487     17489     17484     17487     17490
     17488     17487     17489     17488     17487     17490     17489     17487     17490
     17487     17490     17491     17487     17490     17492     17487     17490     17493
     17491     17490     17492     17491     17490     17493     17492     17490     17493
     17490     17493     17494     17490     17493     17495     17490     17493     17496
     17494     17493     17495     17494     17493     17496     17495     17493     17496
     17493     17496     17497     17493     17496     17498     17493     17496     17499
     17497     17496     17498     17497     17496     17499     17498     17496     17499
     17496     17499     17500     17496     17499     17501     17500     17499     17501
     17499     17501     17502     17499     17501     17503     17502     17501     17503
     17501     17503     17504     17501     17503     17505     17501     17503     17506
     17504     17503     17505     17504     17503     17506     17505     17503     17506
     17503     17506     17507     17503     17506     17508     17503     17506     17509
     17507     17506     17508     17507     17506     17509     17508     17506     17509
     17506     17509     17510     17506     17509     17511     17506     17509     17512
     17510     17509     17511     17510     17509     17512     17511     17509     17512
     17509     17512     17513     17509     17512     17514     17509     17512     17515
     17513     17512     17514     17513     17512     17515     17514     17512     17515
     17512     17515     17516     17512     17515     17517     17512     17515     17518
     17516     17515     17517     17516     17515     17518     17517     17515     17518
     17515     17518     17519     17515     17518     17520     17515     17518     17521
     17519     17518     17520     17519     17518     17521     17520     17518     17521
     17518     17521     17522     17518     17521     17523     17518     17521     17524
     17522     17521     17523     17522     17521     17524     17523     17521     17524
     17521     17524     17525     17521     17524     17526     17521     17524     17527
     17525     17524     17526     17525     17524     17527     17526     17524     17527
     17478     17528     17529     17478     17528     17530     17478     17528     17531
     17529     17528     17530     17529     17528     17531     17530     17528     17531
     17528     17531     17532     17528     17531     17533     17528     17531     17534
     17532     17531     17533     17532     17531     17534     17533     17531     17534
     17531     17534     17535     17531     17534     17536     17531     17534     17537
     17535     17534     17536     17535     17534     17537     17536     17534     17537
     17534     17537     17538     17534     17537     17539     17534     17537     17540
     17538     17537     17539     17538     17537     17540     17539     17537     17540
     17537     17540     17541     17537     17540     17542     17537     17540     17543
     17541     17540     17542     17541     17540     17543     17542     17540     17543
     17540     17543     17544     17540     17543     17545     17540     17543     17546
     17544     17543     17545     17544     17543     17546     17545     17543     17546
     17543     17546     17547     17543     17546     17548     17543     17546     17549
     17547     17546     17548     17547     17546     17549     17548     17546     17549
     17546     17549     17550     17546     17549     17551     17546     17549     17552
     17550     17549     17551     17550     17549     17552     17551     17549     17552
     17549     17552     17553     17549     17552     17554     17549     17552     17555
     17553     17552     17554     17553     17552     17555     17554     17552     17555
     17552     17555     17556     17552     17555     17557     17552     17555     17558
     17556     17555     17557     17556     17555     17558     17557     17555     17558
     17555     17558     17559     17555     17558     17560     17555     17558     17561
     17559     17558     17560     17559     17558     17561     17560     17558     17561
     17558     17561     17562     17558     17561     17563     17558     17561     17564
     17562     17561     17563     17562     17561     17564     17563     17561     17564
     17561     17564     17565     17561     17564     17566     17561     17564     17567
     17565     17564     17566     17565     17564     17567     17566     17564     17567
     17564     17567     17568     17564     17567     17569     17564     17567     17570
     17568     17567     17569     17568     17567     17570     17569     17567     17570
     22003     22002     22004     22003     22002     22006     22003     22002     22022
     22004     22002     22006     22004     22002     22022     22006     22002     22022
     22002     22004     22005     22002     22006     22007     22002     22006     22008
     22002     22006     22010     22007     22006     22008     22007     22006     22010
     22008     22006     22010     22006     22008     22009     22006     22010     22011
     22006     22010     22012     22006     22010     22014     22011     22010     22012
     22011     22010     22014     22012     22010     22014     22010     22012     22013
     22010     22014     22015     22010     22014     22016     22010     22014     22018
     22015     22014     22016     22015     22014     22018     22016     22014     22018
     22014     22016     22017     22014     22018     22019     22014     22018     22020
     22014     22018     22022     22019     22018     22020     22019     22018     22022
     22020     22018     22022     22018     22020     22021     22002     22022     22018
     22002     22022     22023     22002     22022     22027     22018     22022     22023
     22018     22022     22027     22023     22022     22027     22025     22024     22026
     22025     22024     22027     22025     22024     22028     22026     22024     22027
     22026     22024     22028     22027     22024     22028     22022     22027     22024
     22024     22028     22029     22028     22029     22030     22028     22029     22031
     22028     22029     22032     22030     22029     22031     22030     22029     22032
     22031     22029     22032     22029     22032     22033     22029     22032     22034
     22029     22032     22040     22033     22032     22034     22033     22032     22040
     22034     22032     22040     22032     22034     22035     22034     22035     22036
     22034     22035     22037     22036     22035     22037     22035     22037     22038
     22035     22037     22039     22035     22037     22049     22038     22037     22039
     22038     22037     22049     22039     22037     22049     22032     22040     22041
     22032     22040     22042     22032     22040     22043     22041     22040     22042
     22041     22040     22043     22042     22040     22043     22040     22043     22044
     22043     22044     22045     22043     22044     22046     22045     22044     22046
     22044     22046     22047     22044     22046     22048     22044     22046     22096
     22047     22046     22048     22047     22046     22096     22048     22046     22096
     22037     22049     22050     22037     22049     22051     22037     22049     22052
     22050     22049     22051     22050     22049     22052     22051     22049     22052
     22049     22052     22053     22049     22052     22054     22049     22052     22055
     22053     22052     22054     22053     22052     22055     22054     22052     22055
     22052     22055     22056     22052     22055     22057     22052     22055     22058
     22056     22055     22057     22056     22055     22058     22057     22055     22058
     22055     22058     22059     22055     22058     22060     22055     22058     22061
     22059     22058     22060     22059     22058     22061     22060     22058     22061
     22058     22061     22062     22058     22061     22063     22058     22061     22064
     22062     22061     22063     22062     22061     22064     22063     22061     22064
     22061     22064     22065     22061     22064     22066     22061     22064     22067
     22065     22064     22066     22065     22064     22067     22066     22064     22067
     22064     22067     22068     22064     22067     22069     22068     22067     22069
     22067     22069     22070     22067     22069     22071     22070     22069     22071
     22069     22071     22072     22069     22071     22073     22069     22071     22074
     22072     22071     22073     22072     22071     22074     22073     22071     22074
     22071     22074     22075     22071     22074     22076     22071     22074     22077
     22075     22074     22076     22075     22074     22077     22076     22074     22077
     22074     22077     22078     22074     22077     22079     22074     22077     22080
     22078     22077     22079     22078     22077     22080     22079     22077     22080
     22077     22080     22081     22077     22080     22082     22077     22080     22083
     22081     22080     22082     22081     22080     22083     22082     22080     22083
     22080     22083     22084     22080     22083     22085     22080     22083     22086
     22084     22083     22085     22084     22083     22086     22085     22083     22086
     22083     22086     22087     22083     22086     22088     22083     22086     22089
     22087     22086     22088     22087     22086     22089     22088     22086     22089
     22086     22089     22090     22086     22089     22091     22086     22089     22092
     22090     22089     22091     22090     22089     22092     22091     22089     22092
     22089     22092     22093     22089     22092     22094     22089     22092     22095
     22093     22092     22094     22093     22092     22095     22094     22092     22095
     22046     22096     22097     22046     22096     22098     22046     22096     22099
     22097     22096     22098     22097     22096     22099     22098     22096     22099
     22096     22099     22100     22096     22099     22101     22096     22099     22102
     22100     22099     22101     22100     22099     22102     22101     22099     22102
     22099     22102     22103     22099     22102     22104     22099     22102     22105
     22103     22102     22104     22103     22102     22105     22104     22102     22105
     22102     22105     22106     22102     22105     22107     22102     22105     22108
     22106     22105     22107     22106     22105     22108     22107     22105     22108
     22105     22108     22109     22105     22108     22110     22105     22108     22111
     22109     22108     22110     22109     22108     22111     22110     22108     22111
     22108     22111     22112     22108     22111     22113     22108     22111     22114
     22112     22111     22113     22112     22111     22114     22113     22111     22114
     22111     22114     22115     22111     22114     22116     22111     22114     22117
     22115     22114     22116     22115     22114     22117     22116     22114     22117
     22114     22117     22118     22114     22117     22119     22114     22117     22120
     22118     22117     22119     22118     22117     22120     22119     22117     22120
     22117     22120     22121     22117     22120     22122     22117     22120     22123
     22121     22120     22122     22121     22120     22123     22122     22120     22123
     22120     22123     22124     22120     22123     22125     22120     22123     22126
     22124     22123     22125     22124     22123     22126     22125     22123     22126
     22123     22126     22127     22123     22126     22128     22123     22126     22129
     22127     22126     22128     22127     22126     22129     22128     22126     22129
     22126     22129     22130     22126     22129     22131     22126     22129     22132
     22130     22129     22131     22130     22129     22132     22131     22129     22132
     22129     22132     22133     22129     22132     22134     22129     22132     22135
     22133     22132     22134     22133     22132     22135     22134     22132     22135
     22132     22135     22136     22132     22135     22137     22132     22135     22138
     22136     22135     22137     22136     22135     22138     22137     22135     22138
     22140     22139     22141     22140     22139     22143     22140     22139     22159
     22141     22139     22143     22141     22139     22159     22143     22139     22159
     22139     22141     22142     22139     22143     22144     22139     22143     22145
     22139     22143     22147     22144     22143     22145     22144     22143     22147
     22145     22143     22147     22143     22145     22146     22143     22147     22148
     22143     22147     22149     22143     22147     22151     22148     22147     22149
     22148     22147     22151     22149     22147     22151     22147     22149     22150
     22147     22151     22152     22147     22151     22153     22147     22151     22155
     22152     22151     22153     22152     22151     22155     22153     22151     22155
     22151     22153     22154     22151     22155     22156     22151     22155     22157
     22151     22155     22159     22156     22155     22157     22156     22155     22159
     22157     22155     22159     22155     22157     22158     22139     22159     22155
     22139     22159     22160     22139     22159     22164     22155     22159     22160
     22155     22159     22164     22160     22159     22164     22162     22161     22163
     22162     22161     22164     22162     22161     22165     22163     22161     22164
     22163     22161     22165     22164     22161     22165     22159     22164     22161
     22161     22165     22166     22165     22166     22167     22165     22166     22168
     22165     22166     22169     22167     22166     22168     22167     22166     22169
     22168     22166     22169     22166     22169     22170     22166     22169     22171
     22166     22169     22177     22170     22169     22171     22170     22169     22177
     22171     22169     22177     22169     22171     22172     22171     22172     22173
     22171     22172     22174     22173     22172     22174     22172     22174     22175
     22172     22174     22176     22172     22174     22186     22175     22174     22176
     22175     22174     22186     22176     22174     22186     22169     22177     22178
     22169     22177     22179     22169     22177     22180     22178     22177     22179
     22178     22177     22180     22179     22177     22180     22177     22180     22181
     22180     22181     22182     22180     22181     22183     22182     22181     22183
     22181     22183     22184     22181     22183     22185     22181     22183     22233
     22184     22183     22185     22184     22183     22233     22185     22183     22233
     22174     22186     22187     22174     22186     22188     22174     22186     22189
     22187     22186     22188     22187     22186     22189     22188     22186     22189
     22186     22189     22190     22186     22189     22191     22186     22189     22192
     22190     22189     22191     22190     22189     22192     22191     22189     22192
     22189     22192     22193     22189     22192     22194     22189     22192     22195
     22193     22192     22194     22193     22192     22195     22194     22192     22195
     22192     22195     22196     22192     22195     22197     22192     22195     22198
     22196     22195     22197     22196     22195     22198     22197     22195     22198
     22195     22198     22199     22195     22198     22200     22195     22198     22201
     22199     22198     22200     22199     22198     22201     22200     22198     22201
     22198     22201     22202     22198     22201     22203     22198     22201     22204
     22202     22201     22203     22202     22201     22204     22203     22201     22204
     22201     22204     22205     22201     22204     22206     22205     22204     22206
     22204     22206     22207     22204     22206     22208     22207     22206     22208
     22206     22208     22209     22206     22208     22210     22206     22208     22211
     22209     22208     22210     22209     22208     22211     22210     22208     22211
     22208     22211     22212     22208     22211     22213     22208     22211     22214
     22212     22211     22213     22212     22211     22214     22213     22211     22214
     22211     22214     22215     22211     22214     22216     22211     22214     22217
     22215     22214     22216     22215     22214     22217     22216     22214     22217
     22214     22217     22218     22214     22217     22219     22214     22217     22220
     22218     22217     22219     22218     22217     22220     22219     22217     22220
     22217     22220     22221     22217     22220     22222     22217     22220     22223
     22221     22220     22222     22221     22220     22223     22222     22220     22223
     22220     22223     22224     22220     22223     22225     22220     22223     22226
     22224     22223     22225     22224     22223     22226     22225     22223     22226
     22223     22226     22227     22223     22226     22228     22223     22226     22229
     22227     22226     22228     22227     22226     22229     22228     22226     22229
     22226     22229     22230     22226     22229     22231     22226     22229     22232
     22230     22229     22231     22230     22229     22232     22231     22229     22232
     22183     22233     22234     22183     22233     22235     22183     22233     22236
     22234     22233     22235     22234     22233     22236     22235     22233     22236
     22233     22236     22237     22233     22236     22238     22233     22236     22239
     22237     22236     22238     22237     22236     22239     22238     22236     22239
     22236     22239     22240     22236     22239     22241     22236     22239     22242
     22240     22239     22241     22240     22239     22242     22241     22239     22242
     22239     22242     22243     22239     22242     22244     22239     22242     22245
     22243     22242     22244     22243     22242     22245     22244     22242     22245
     22242     22245     22246     22242     22245     22247     22242     22245     22248
     22246     22245     22247     22246     22245     22248     22247     22245     22248
     22245     22248     22249     22245     22248     22250     22245     22248     22251
     22249     22248     22250     22249     22248     22251     22250     22248     22251
     22248     22251     22252     22248     22251     22253     22248     22251     22254
     22252     22251     22253     22252     22251     22254     22253     22251     22254
     22251     22254     22255     22251     22254     22256     22251     22254     22257
     22255     22254     22256     22255     22254     22257     22256     22254     22257
     22254     22257     22258     22254     22257     22259     22254     22257     22260
     22258     22257     22259     22258     22257     22260     22259     22257     22260
     22257     22260     22261     22257     22260     22262     22257     22260     22263
     22261     22260     22262     22261     22260     22263     22262     22260     22263
     22260     22263     22264     22260     22263     22265     22260     22263     22266
     22264     22263     22265     22264     22263     22266     22265     22263     22266
     22263     22266     22267     22263     22266     22268     22263     22266     22269
     22267     22266     22268     22267     22266     22269     22268     22266     22269
     22266     22269     22270     22266     22269     22271     22266     22269     22272
     22270     22269     22271     22270     22269     22272     22271     22269     22272
     22269     22272     22273     22269     22272     22274     22269     22272     22275
     22273     22272     22274     22273     22272     22275     22274     22272     22275
      5347      5346      5348      5347      5346      5349      5347      5346      5350
      5348      5346      5349      5348      5346      5350      5349      5346      5350
      5346      5350      5351      5346      5350      5352      5346      5350      5353
      5351      5350      5352      5351      5350      5353      5352      5350      5353
      5350      5353      5354      5350      5353      5355      5350      5353      5360
      5354      5353      5355      5354      5353      5360      5355      5353      5360
      5357      5356      5358      5357      5356      5359      5357      5356      5360
      5358      5356      5359      5358      5356      5360      5359      5356      5360
      5356      5359      5361      5353      5360      5356      5359      5361      5362
      5359      5361      5363      5359      5361      5364      5362      5361      5363
      5362      5361      5364      5363      5361      5364      5361      5364      5365
      5361      5364      5366      5361      5364      5372      5365      5364      5366
      5365      5364      5372      5366      5364      5372      5364      5366      5367
      5366      5367      5368      5366      5367      5369      5368      5367      5369
      5367      5369      5370      5367      5369      5371      5367      5369      5381
      5370      5369      5371      5370      5369      5381      5371      5369      5381
      5364      5372      5373      5364      5372      5374      5364      5372      5375
      5373      5372      5374      5373      5372      5375      5374      5372      5375
      5372      5375      5376      5375      5376      5377      5375      5376      5378
      5377      5376      5378      5376      5378      5379      5376      5378      5380
      5376      5378      5428      5379      5378      5380      5379      5378      5428
      5380      5378      5428      5369      5381      5382      5369      5381      5383
      5369      5381      5384      5382      5381      5383      5382      5381      5384
      5383      5381      5384      5381      5384      5385      5381      5384      5386
      5381      5384      5387      5385      5384      5386      5385      5384      5387
      5386      5384      5387      5384      5387      5388      5384      5387      5389
      5384      5387      5390      5388      5387      5389      5388      5387      5390
      5389      5387      5390      5387      5390      5391      5387      5390      5392
      5387      5390      5393      5391      5390      5392      5391      5390      5393
      5392      5390      5393      5390      5393      5394      5390      5393      5395
      5390      5393      5396      5394      5393      5395      5394      5393      5396
      5395      5393      5396      5393      5396      5397      5393      5396      5398
      5393      5396      5399      5397      5396      5398      5397      5396      5399
      5398      5396      5399      5396      5399      5400      5396      5399      5401
      5400      5399      5401      5399      5401      5402      5399      5401      5403
      5402      5401      5403      5401      5403      5404      5401      5403      5405
      5401      5403      5406      5404      5403      5405      5404      5403      5406
      5405      5403      5406      5403      5406      5407      5403      5406      5408
      5403      5406      5409      5407      5406      5408      5407      5406      5409
      5408      5406      5409      5406      5409      5410      5406      5409      5411
      5406      5409      5412      5410      5409      5411      5410      5409      5412
      5411      5409      5412      5409      5412      5413      5409      5412      5414
      5409      5412      5415      5413      5412      5414      5413      5412      5415
      5414      5412      5415      5412      5415      5416      5412      5415      5417
      5412      5415      5418      5416      5415      5417      5416      5415      5418
      5417      5415      5418      5415      5418      5419      5415      5418      5420
      5415      5418      5421      5419      5418      5420      5419      5418      5421
      5420      5418      5421      5418      5421      5422      5418      5421      5423
      5418      5421      5424      5422      5421      5423      5422      5421      5424
      5423      5421      5424      5421      5424      5425      5421      5424      5426
      5421      5424      5427      5425      5424      5426      5425      5424      5427
      5426      5424      5427      5378      5428      5429      5378      5428      5430
      5378      5428      5431      5429      5428      5430      5429      5428      5431
      5430      5428      5431      5428      5431      5432      5428      5431      5433
      5428      5431      5434      5432      5431      5433      5432      5431      5434
      5433      5431      5434      5431      5434      5435      5431      5434      5436
      5431      5434      5437      5435      5434      5436      5435      5434      5437
      5436      5434      5437      5434      5437      5438      5434      5437      5439
      5434      5437      5440      5438      5437      5439      5438      5437      5440
      5439      5437      5440      5437      5440      5441      5437      5440      5442
      5437      5440      5443      5441      5440      5442      5441      5440      5443
      5442      5440      5443      5440      5443      5444      5440      5443      5445
      5440      5443      5446      5444      5443      5445      5444      5443      5446
      5445      5443      5446      5443      5446      5447      5443      5446      5448
      5443      5446      5449      5447      5446      5448      5447      5446      5449
      5448      5446      5449      5446      5449      5450      5446      5449      5451
      5446      5449      5452      5450      5449      5451      5450      5449      5452
      5451      5449      5452      5449      5452      5453      5449      5452      5454
      5449      5452      5455      5453      5452      5454      5453      5452      5455
      5454      5452      5455      5452      5455      5456      5452      5455      5457
      5452      5455      5458      5456      5455      5457      5456      5455      5458
      5457      5455      5458      5455      5458      5459      5455      5458      5460
      5455      5458      5461      5459      5458      5460      5459      5458      5461
      5460      5458      5461      5458      5461      5462      5458      5461      5463
      5458      5461      5464      5462      5461      5463      5462      5461      5464
      5463      5461      5464      5461      5464      5465      5461      5464      5466
      5461      5464      5467      5465      5464      5466      5465      5464      5467
      5466      5464      5467      5464      5467      5468      5464      5467      5469
      5464      5467      5470      5468      5467      5469      5468      5467      5470
      5469      5467      5470      5472      5471      5473      5472      5471      5474
      5472      5471      5475      5473      5471      5474      5473      5471      5475
      5474      5471      5475      5471      5475      5476      5471      5475      5477
      5471      5475      5478      5476      5475      5477      5476      5475      5478
      5477      5475      5478      5475      5478      5479      5475      5478      5480
      5475      5478      5485      5479      5478      5480      5479      5478      5485
      5480      5478      5485      5482      5481      5483      5482      5481      5484
      5482      5481      5485      5483      5481      5484      5483      5481      5485
      5484      5481      5485      5481      5484      5486      5478      5485      5481
      5484      5486      5487      5484      5486      5488      5484      5486      5489
      5487      5486      5488      5487      5486      5489      5488      5486      5489
      5486      5489      5490      5486      5489      5491      5486      5489      5497
      5490      5489      5491      5490      5489      5497      5491      5489      5497
      5489      5491      5492      5491      5492      5493      5491      5492      5494
      5493      5492      5494      5492      5494      5495      5492      5494      5496
      5492      5494      5506      5495      5494      5496      5495      5494      5506
      5496      5494      5506      5489      5497      5498      5489      5497      5499
      5489      5497      5500      5498      5497      5499      5498      5497      5500
      5499      5497      5500      5497      5500      5501      5500      5501      5502
      5500      5501      5503      5502      5501      5503      5501      5503      5504
      5501      5503      5505      5501      5503      5553      5504      5503      5505
      5504      5503      5553      5505      5503      5553      5494      5506      5507
      5494      5506      5508      5494      5506      5509      5507      5506      5508
      5507      5506      5509      5508      5506      5509      5506      5509      5510
      5506      5509      5511      5506      5509      5512      5510      5509      5511
      5510      5509      5512      5511      5509      5512      5509      5512      5513
      5509      5512      5514      5509      5512      5515      5513      5512      5514
      5513      5512      5515      5514      5512      5515      5512      5515      5516
      5512      5515      5517      5512      5515      5518      5516      5515      5517
      5516      5515      5518      5517      5515      5518      5515      5518      5519
      5515      5518      5520      5515      5518      5521      5519      5518      5520
      5519      5518      5521      5520      5518      5521      5518      5521      5522
      5518      5521      5523      5518      5521      5524      5522      5521      5523
      5522      5521      5524      5523      5521      5524      5521      5524      5525
      5521      5524      5526      5525      5524      5526      5524      5526      5527
      5524      5526      5528      5527      5526      5528      5526      5528      5529
      5526      5528      5530      5526      5528      5531      5529      5528      5530
      5529      5528      5531      5530      5528      5531      5528      5531      5532
      5528      5531      5533      5528      5531      5534      5532      5531      5533
      5532      5531      5534      5533      5531      5534      5531      5534      5535
      5531      5534      5536      5531      5534      5537      5535      5534      5536
      5535      5534      5537      5536      5534      5537      5534      5537      5538
      5534      5537      5539      5534      5537      5540      5538      5537      5539
      5538      5537      5540      5539      5537      5540      5537      5540      5541
      5537      5540      5542      5537      5540      5543      5541      5540      5542
      5541      5540      5543      5542      5540      5543      5540      5543      5544
      5540      5543      5545      5540      5543      5546      5544      5543      5545
      5544      5543      5546      5545      5543      5546      5543      5546      5547
      5543      5546      5548      5543      5546      5549      5547      5546      5548
      5547      5546      5549      5548      5546      5549      5546      5549      5550
      5546      5549      5551      5546      5549      5552      5550      5549      5551
      5550      5549      5552      5551      5549      5552      5503      5553      5554
      5503      5553      5555      5503      5553      5556      5554      5553      5555
      5554      5553      5556      5555      5553      5556      5553      5556      5557
      5553      5556      5558      5553      5556      5559      5557      5556      5558
      5557      5556      5559      5558      5556      5559      5556      5559      5560
      5556      5559      5561      5556      5559      5562      5560      5559      5561
      5560      5559      5562      5561      5559      5562      5559      5562      5563
      5559      5562      5564      5559      5562      5565      5563      5562      5564
      5563      5562      5565      5564      5562      5565      5562      5565      5566
      5562      5565      5567      5562      5565      5568      5566      5565      5567
      5566      5565      5568      5567      5565      5568      5565      5568      5569
      5565      5568      5570      5565      5568      5571      5569      5568      5570
      5569      5568      5571      5570      5568      5571      5568      5571      5572
      5568      5571      5573      5568      5571      5574      5572      5571      5573
      5572      5571      5574      5573      5571      5574      5571      5574      5575
      5571      5574      5576      5571      5574      5577      5575      5574      5576
      5575      5574      5577      5576      5574      5577      5574      5577      5578
      5574      5577      5579      5574      5577      5580      5578      5577      5579
      5578      5577      5580      5579      5577      5580      5577      5580      5581
      5577      5580      5582      5577      5580      5583      5581      5580      5582
      5581      5580      5583      5582      5580      5583      5580      5583      5584
      5580      5583      5585      5580      5583      5586      5584      5583      5585
      5584      5583      5586      5585      5583      5586      5583      5586      5587
      5583      5586      5588      5583      5586      5589      5587      5586      5588
      5587      5586      5589      5588      5586      5589      5586      5589      5590
      5586      5589      5591      5586      5589      5592      5590      5589      5591
      5590      5589      5592      5591      5589      5592      5589      5592      5593
      5589      5592      5594      5589      5592      5595      5593      5592      5594
      5593      5592      5595      5594      5592      5595     17572     17571     17575
     17572     17571     17579     17572     17571     17583     17575     17571     17579
     17575     17571     17583     17579     17571     17583     17571     17572     17573
     17571     17572     17574     17571     17572     17587     17573     17572     17574
     17573     17572     17587     17574     17572     17587     17571     17575     17576
     17571     17575     17577     17571     17575     17578     17576     17575     17577
     17576     17575     17578     17577     17575     17578     17571     17579     17580
     17571     17579     17581     17571     17579     17582     17580     17579     17581
     17580     17579     17582     17581     17579     17582     17571     17583     17584
     17571     17583     17585     17571     17583     17586     17584     17583     17585
     17584     17583     17586     17585     17583     17586     17572     17587     17588
     17572     17587     17589     17572     17587     17593     17588     17587     17589
     17588     17587     17593     17589     17587     17593     17591     17590     17592
     17591     17590     17593     17591     17590     17594     17592     17590     17593
     17592     17590     17594     17593     17590     17594     17587     17593     17590
     17590     17594     17595     17594     17595     17596     17594     17595     17597
     17594     17595     17598     17596     17595     17597     17596     17595     17598
     17597     17595     17598     17595     17598     17599     17595     17598     17600
     17595     17598     17606     17599     17598     17600     17599     17598     17606
     17600     17598     17606     17598     17600     17601     17600     17601     17602
     17600     17601     17603     17602     17601     17603     17601     17603     17604
     17601     17603     17605     17601     17603     17615     17604     17603     17605
     17604     17603     17615     17605     17603     17615     17598     17606     17607
     17598     17606     17608     17598     17606     17609     17607     17606     17608
     17607     17606     17609     17608     17606     17609     17606     17609     17610
     17609     17610     17611     17609     17610     17612     17611     17610     17612
     17610     17612     17613     17610     17612     17614     17610     17612     17662
     17613     17612     17614     17613     17612     17662     17614     17612     17662
     17603     17615     17616     17603     17615     17617     17603     17615     17618
     17616     17615     17617     17616     17615     17618     17617     17615     17618
     17615     17618     17619     17615     17618     17620     17615     17618     17621
     17619     17618     17620     17619     17618     17621     17620     17618     17621
     17618     17621     17622     17618     17621     17623     17618     17621     17624
     17622     17621     17623     17622     17621     17624     17623     17621     17624
     17621     17624     17625     17621     17624     17626     17621     17624     17627
     17625     17624     17626     17625     17624     17627     17626     17624     17627
     17624     17627     17628     17624     17627     17629     17624     17627     17630
     17628     17627     17629     17628     17627     17630     17629     17627     17630
     17627     17630     17631     17627     17630     17632     17627     17630     17633
     17631     17630     17632     17631     17630     17633     17632     17630     17633
     17630     17633     17634     17630     17633     17635     17634     17633     17635
     17633     17635     17636     17633     17635     17637     17636     17635     17637
     17635     17637     17638     17635     17637     17639     17635     17637     17640
     17638     17637     17639     17638     17637     17640     17639     17637     17640
     17637     17640     17641     17637     17640     17642     17637     17640     17643
     17641     17640     17642     17641     17640     17643     17642     17640     17643
     17640     17643     17644     17640     17643     17645     17640     17643     17646
     17644     17643     17645     17644     17643     17646     17645     17643     17646
     17643     17646     17647     17643     17646     17648     17643     17646     17649
     17647     17646     17648     17647     17646     17649     17648     17646     17649
     17646     17649     17650     17646     17649     17651     17646     17649     17652
     17650     17649     17651     17650     17649     17652     17651     17649     17652
     17649     17652     17653     17649     17652     17654     17649     17652     17655
     17653     17652     17654     17653     17652     17655     17654     17652     17655
     17652     17655     17656     17652     17655     17657     17652     17655     17658
     17656     17655     17657     17656     17655     17658     17657     17655     17658
     17655     17658     17659     17655     17658     17660     17655     17658     17661
     17659     17658     17660     17659     17658     17661     17660     17658     17661
     17612     17662     17663     17612     17662     17664     17612     17662     17665
     17663     17662     17664     17663     17662     17665     17664     17662     17665
     17662     17665     17666     17662     17665     17667     17662     17665     17668
     17666     17665     17667     17666     17665     17668     17667     17665     17668
     17665     17668     17669     17665     17668     17670     17665     17668     17671
     17669     17668     17670     17669     17668     17671     17670     17668     17671
     17668     17671     17672     17668     17671     17673     17668     17671     17674
     17672     17671     17673     17672     17671     17674     17673     17671     17674
     17671     17674     17675     17671     17674     17676     17671     17674     17677
     17675     17674     17676     17675     17674     17677     17676     17674     17677
     17674     17677     17678     17674     17677     17679     17674     17677     17680
     17678     17677     17679     17678     17677     17680     17679     17677     17680
     17677     17680     17681     17677     17680     17682     17677     17680     17683
     17681     17680     17682     17681     17680     17683     17682     17680     17683
     17680     17683     17684     17680     17683     17685     17680     17683     17686
     17684     17683     17685     17684     17683     17686     17685     17683     17686
     17683     17686     17687     17683     17686     17688     17683     17686     17689
     17687     17686     17688     17687     17686     17689     17688     17686     17689
     17686     17689     17690     17686     17689     17691     17686     17689     17692
     17690     17689     17691     17690     17689     17692     17691     17689     17692
     17689     17692     17693     17689     17692     17694     17689     17692     17695
     17693     17692     17694     17693     17692     17695     17694     17692     17695
     17692     17695     17696     17692     17695     17697     17692     17695     17698
     17696     17695     17697     17696     17695     17698     17697     17695     17698
     17695     17698     17699     17695     17698     17700     17695     17698     17701
     17699     17698     17700     17699     17698     17701     17700     17698     17701
     17698     17701     17702     17698     17701     17703     17698     17701     17704
     17702     17701     17703     17702     17701     17704     17703     17701     17704
      1112      1111      1113      1112      1111      1115      1112      1111      1157
      1113      1111      1115      1113      1111      1157      1115      1111      1157
      1111      1113      1114      1111      1115      1116      1111      1115      1117
      1111      1115      1118      1116      1115      1117      1116      1115      1118
      1117      1115      1118      1115      1118      1119      1115      1118      1149
      1119      1118      1149      1118      1119      1120      1118      1119      1121
      1120      1119      1121      1119      1121      1122      1119      1121      1123
      1119      1121      1124      1122      1121      1123      1122      1121      1124
      1123      1121      1124      1121      1124      1125      1121      1124      1126
      1121      1124      1147      1125      1124      1126      1125      1124      1147
      1126      1124      1147      1124      1126      1127      1124      1126      1128
      1124      1126      1136      1127      1126      1128      1127      1126      1136
      1128      1126      1136      1126      1128      1129      1126      1128      1130
      1126      1128      1131      1129      1128      1130      1129      1128      1131
      1130      1128      1131      1128      1131      1132      1128      1131      1133
      1128      1131      1134      1132      1131      1133      1132      1131      1134
      1133      1131      1134      1131      1134      1135      1131      1134      1136
      1131      1134      1160      1135      1134      1136      1135      1134      1160
      1136      1134      1160      1126      1136      1134      1126      1136      1137
      1126      1136      1141      1134      1136      1137      1134      1136      1141
      1137      1136      1141      1136      1137      1138      1136      1137      1139
      1136      1137      1140      1138      1137      1139      1138      1137      1140
      1139      1137      1140      1136      1141      1142      1136      1141      1143
      1136      1141      1144      1142      1141      1143      1142      1141      1144
      1143      1141      1144      1141      1144      1145      1141      1144      1146
      1141      1144      1147      1145      1144      1146      1145      1144      1147
      1146      1144      1147      1124      1147      1144      1124      1147      1148
      1124      1147      1149      1144      1147      1148      1144      1147      1149
      1148      1147      1149      1118      1149      1147      1118      1149      1150
      1118      1149      1154      1147      1149      1150      1147      1149      1154
      1150      1149      1154      1149      1150      1151      1149      1150      1152
      1149      1150      1153      1151      1150      1152      1151      1150      1153
      1152      1150      1153      1149      1154      1155      1149      1154      1156
      1149      1154      1157      1155      1154      1156      1155      1154      1157
      1156      1154      1157      1111      1157      1154      1111      1157      1158
      1111      1157      1159      1154      1157      1158      1154      1157      1159
      1158      1157      1159      1134      1160      1161      1134      1160      1162
      1134      1160      1166      1161      1160      1162      1161      1160      1166
      1162      1160      1166      1160      1162      1163      1160      1162      1164
      1160      1162      1165      1163      1162      1164      1163      1162      1165
      1164      1162      1165      1160      1166      1167      1160      1166      1168
      1160      1166      1169      1167      1166      1168      1167      1166      1169
      1168      1166      1169      1166      1169      1170      1166      1169      1171
      1166      1169      1172      1170      1169      1171      1170      1169      1172
      1171      1169      1172      1169      1172      1173      1169      1172      1174
      1169      1172      1175      1173      1172      1174      1173      1172      1175
      1174      1172      1175      1172      1175      1176      1172      1175      1177
      1172      1175      1181      1176      1175      1177      1176      1175      1181
      1177      1175      1181      1175      1177      1178      1175      1177      1179
      1175      1177      1180      1178      1177      1179      1178      1177      1180
      1179      1177      1180      1175      1181      1182      1175      1181      1183
      1175      1181      1184      1182      1181      1183      1182      1181      1184
      1183      1181      1184     11012     11011     11013     11012     11011     11014
     11012     11011     11015     11013     11011     11014     11013     11011     11015
     11014     11011     11015     11011     11015     11016     11011     11015     11017
     11011     11015     11020     11016     11015     11017     11016     11015     11020
     11017     11015     11020     11015     11017     11018     11015     11017     11019
     11018     11017     11019     11015     11020     11021     11015     11020     11022
     11015     11020     11026     11021     11020     11022     11021     11020     11026
     11022     11020     11026     11024     11023     11025     11024     11023     11026
     11024     11023     11027     11025     11023     11026     11025     11023     11027
     11026     11023     11027     11020     11026     11023     11023     11027     11028
     11027     11028     11029     11027     11028     11030     11027     11028     11031
     11029     11028     11030     11029     11028     11031     11030     11028     11031
     11028     11031     11032     11028     11031     11033     11028     11031     11039
     11032     11031     11033     11032     11031     11039     11033     11031     11039
     11031     11033     11034     11033     11034     11035     11033     11034     11036
     11035     11034     11036     11034     11036     11037     11034     11036     11038
     11034     11036     11048     11037     11036     11038     11037     11036     11048
     11038     11036     11048     11031     11039     11040     11031     11039     11041
     11031     11039     11042     11040     11039     11041     11040     11039     11042
     11041     11039     11042     11039     11042     11043     11042     11043     11044
     11042     11043     11045     11044     11043     11045     11043     11045     11046
     11043     11045     11047     11043     11045     11095     11046     11045     11047
     11046     11045     11095     11047     11045     11095     11036     11048     11049
     11036     11048     11050     11036     11048     11051     11049     11048     11050
     11049     11048     11051     11050     11048     11051     11048     11051     11052
     11048     11051     11053     11048     11051     11054     11052     11051     11053
     11052     11051     11054     11053     11051     11054     11051     11054     11055
     11051     11054     11056     11051     11054     11057     11055     11054     11056
     11055     11054     11057     11056     11054     11057     11054     11057     11058
     11054     11057     11059     11054     11057     11060     11058     11057     11059
     11058     11057     11060     11059     11057     11060     11057     11060     11061
     11057     11060     11062     11057     11060     11063     11061     11060     11062
     11061     11060     11063     11062     11060     11063     11060     11063     11064
     11060     11063     11065     11060     11063     11066     11064     11063     11065
     11064     11063     11066     11065     11063     11066     11063     11066     11067
     11063     11066     11068     11067     11066     11068     11066     11068     11069
     11066     11068     11070     11069     11068     11070     11068     11070     11071
     11068     11070     11072     11068     11070     11073     11071     11070     11072
     11071     11070     11073     11072     11070     11073     11070     11073     11074
     11070     11073     11075     11070     11073     11076     11074     11073     11075
     11074     11073     11076     11075     11073     11076     11073     11076     11077
     11073     11076     11078     11073     11076     11079     11077     11076     11078
     11077     11076     11079     11078     11076     11079     11076     11079     11080
     11076     11079     11081     11076     11079     11082     11080     11079     11081
     11080     11079     11082     11081     11079     11082     11079     11082     11083
     11079     11082     11084     11079     11082     11085     11083     11082     11084
     11083     11082     11085     11084     11082     11085     11082     11085     11086
     11082     11085     11087     11082     11085     11088     11086     11085     11087
     11086     11085     11088     11087     11085     11088     11085     11088     11089
     11085     11088     11090     11085     11088     11091     11089     11088     11090
     11089     11088     11091     11090     11088     11091     11088     11091     11092
     11088     11091     11093     11088     11091     11094     11092     11091     11093
     11092     11091     11094     11093     11091     11094     11045     11095     11096
     11045     11095     11097     11045     11095     11098     11096     11095     11097
     11096     11095     11098     11097     11095     11098     11095     11098     11099
     11095     11098     11100     11095     11098     11101     11099     11098     11100
     11099     11098     11101     11100     11098     11101     11098     11101     11102
     11098     11101     11103     11098     11101     11104     11102     11101     11103
     11102     11101     11104     11103     11101     11104     11101     11104     11105
     11101     11104     11106     11101     11104     11107     11105     11104     11106
     11105     11104     11107     11106     11104     11107     11104     11107     11108
     11104     11107     11109     11104     11107     11110     11108     11107     11109
     11108     11107     11110     11109     11107     11110     11107     11110     11111
     11107     11110     11112     11107     11110     11113     11111     11110     11112
     11111     11110     11113     11112     11110     11113     11110     11113     11114
     11110     11113     11115     11110     11113     11116     11114     11113     11115
     11114     11113     11116     11115     11113     11116     11113     11116     11117
     11113     11116     11118     11113     11116     11119     11117     11116     11118
     11117     11116     11119     11118     11116     11119     11116     11119     11120
     11116     11119     11121     11116     11119     11122     11120     11119     11121
     11120     11119     11122     11121     11119     11122     11119     11122     11123
     11119     11122     11124     11119     11122     11125     11123     11122     11124
     11123     11122     11125     11124     11122     11125     11122     11125     11126
     11122     11125     11127     11122     11125     11128     11126     11125     11127
     11126     11125     11128     11127     11125     11128     11125     11128     11129
     11125     11128     11130     11125     11128     11131     11129     11128     11130
     11129     11128     11131     11130     11128     11131     11128     11131     11132
     11128     11131     11133     11128     11131     11134     11132     11131     11133
     11132     11131     11134     11133     11131     11134     11131     11134     11135
     11131     11134     11136     11131     11134     11137     11135     11134     11136
     11135     11134     11137     11136     11134     11137     11139     11138     11140
     11139     11138     11141     11139     11138     11142     11140     11138     11141
     11140     11138     11142     11141     11138     11142     11138     11142     11143
     11138     11142     11144     11138     11142     11147     11143     11142     11144
     11143     11142     11147     11144     11142     11147     11142     11144     11145
     11142     11144     11146     11145     11144     11146     11142     11147     11148
     11142     11147     11149     11142     11147     11153     11148     11147     11149
     11148     11147     11153     11149     11147     11153     11151     11150     11152
     11151     11150     11153     11151     11150     11154     11152     11150     11153
     11152     11150     11154     11153     11150     11154     11147     11153     11150
     11150     11154     11155     11154     11155     11156     11154     11155     11157
     11154     11155     11158     11156     11155     11157     11156     11155     11158
     11157     11155     11158     11155     11158     11159     11155     11158     11160
     11155     11158     11166     11159     11158     11160     11159     11158     11166
     11160     11158     11166     11158     11160     11161     11160     11161     11162
     11160     11161     11163     11162     11161     11163     11161     11163     11164
     11161     11163     11165     11161     11163     11175     11164     11163     11165
     11164     11163     11175     11165     11163     11175     11158     11166     11167
     11158     11166     11168     11158     11166     11169     11167     11166     11168
     11167     11166     11169     11168     11166     11169     11166     11169     11170
     11169     11170     11171     11169     11170     11172     11171     11170     11172
     11170     11172     11173     11170     11172     11174     11170     11172     11222
     11173     11172     11174     11173     11172     11222     11174     11172     11222
     11163     11175     11176     11163     11175     11177     11163     11175     11178
     11176     11175     11177     11176     11175     11178     11177     11175     11178
     11175     11178     11179     11175     11178     11180     11175     11178     11181
     11179     11178     11180     11179     11178     11181     11180     11178     11181
     11178     11181     11182     11178     11181     11183     11178     11181     11184
     11182     11181     11183     11182     11181     11184     11183     11181     11184
     11181     11184     11185     11181     11184     11186     11181     11184     11187
     11185     11184     11186     11185     11184     11187     11186     11184     11187
     11184     11187     11188     11184     11187     11189     11184     11187     11190
     11188     11187     11189     11188     11187     11190     11189     11187     11190
     11187     11190     11191     11187     11190     11192     11187     11190     11193
     11191     11190     11192     11191     11190     11193     11192     11190     11193
     11190     11193     11194     11190     11193     11195     11194     11193     11195
     11193     11195     11196     11193     11195     11197     11196     11195     11197
     11195     11197     11198     11195     11197     11199     11195     11197     11200
     11198     11197     11199     11198     11197     11200     11199     11197     11200
     11197     11200     11201     11197     11200     11202     11197     11200     11203
     11201     11200     11202     11201     11200     11203     11202     11200     11203
     11200     11203     11204     11200     11203     11205     11200     11203     11206
     11204     11203     11205     11204     11203     11206     11205     11203     11206
     11203     11206     11207     11203     11206     11208     11203     11206     11209
     11207     11206     11208     11207     11206     11209     11208     11206     11209
     11206     11209     11210     11206     11209     11211     11206     11209     11212
     11210     11209     11211     11210     11209     11212     11211     11209     11212
     11209     11212     11213     11209     11212     11214     11209     11212     11215
     11213     11212     11214     11213     11212     11215     11214     11212     11215
     11212     11215     11216     11212     11215     11217     11212     11215     11218
     11216     11215     11217     11216     11215     11218     11217     11215     11218
     11215     11218     11219     11215     11218     11220     11215     11218     11221
     11219     11218     11220     11219     11218     11221     11220     11218     11221
     11172     11222     11223     11172     11222     11224     11172     11222     11225
     11223     11222     11224     11223     11222     11225     11224     11222     11225
     11222     11225     11226     11222     11225     11227     11222     11225     11228
     11226     11225     11227     11226     11225     11228     11227     11225     11228
     11225     11228     11229     11225     11228     11230     11225     11228     11231
     11229     11228     11230     11229     11228     11231     11230     11228     11231
     11228     11231     11232     11228     11231     11233     11228     11231     11234
     11232     11231     11233     11232     11231     11234     11233     11231     11234
     11231     11234     11235     11231     11234     11236     11231     11234     11237
     11235     11234     11236     11235     11234     11237     11236     11234     11237
     11234     11237     11238     11234     11237     11239     11234     11237     11240
     11238     11237     11239     11238     11237     11240     11239     11237     11240
     11237     11240     11241     11237     11240     11242     11237     11240     11243
     11241     11240     11242     11241     11240     11243     11242     11240     11243
     11240     11243     11244     11240     11243     11245     11240     11243     11246
     11244     11243     11245     11244     11243     11246     11245     11243     11246
     11243     11246     11247     11243     11246     11248     11243     11246     11249
     11247     11246     11248     11247     11246     11249     11248     11246     11249
     11246     11249     11250     11246     11249     11251     11246     11249     11252
     11250     11249     11251     11250     11249     11252     11251     11249     11252
     11249     11252     11253     11249     11252     11254     11249     11252     11255
     11253     11252     11254     11253     11252     11255     11254     11252     11255
     11252     11255     11256     11252     11255     11257     11252     11255     11258
     11256     11255     11257     11256     11255     11258     11257     11255     11258
     11255     11258     11259     11255     11258     11260     11255     11258     11261
     11259     11258     11260     11259     11258     11261     11260     11258     11261
     11258     11261     11262     11258     11261     11263     11258     11261     11264
     11262     11261     11263     11262     11261     11264     11263     11261     11264
      1186      1185      1187      1186      1185      1189      1186      1185      1231
      1187      1185      1189      1187      1185      1231      1189      1185      1231
      1185      1187      1188      1185      1189      1190      1185      1189      1191
      1185      1189      1192      1190      1189      1191      1190      1189      1192
      1191      1189      1192      1189      1192      1193      1189      1192      1223
      1193      1192      1223      1192      1193      1194      1192      1193      1195
      1194      1193      1195      1193      1195      1196      1193      1195      1197
      1193      1195      1198      1196      1195      1197      1196      1195      1198
      1197      1195      1198      1195      1198      1199      1195      1198      1200
      1195      1198      1221      1199      1198      1200      1199      1198      1221
      1200      1198      1221      1198      1200      1201      1198      1200      1202
      1198      1200      1210      1201      1200      1202      1201      1200      1210
      1202      1200      1210      1200      1202      1203      1200      1202      1204
      1200      1202      1205      1203      1202      1204      1203      1202      1205
      1204      1202      1205      1202      1205      1206      1202      1205      1207
      1202      1205      1208      1206      1205      1207      1206      1205      1208
      1207      1205      1208      1205      1208      1209      1205      1208      1210
      1205      1208      1234      1209      1208      1210      1209      1208      1234
      1210      1208      1234      1200      1210      1208      1200      1210      1211
      1200      1210      1215      1208      1210      1211      1208      1210      1215
      1211      1210      1215      1210      1211      1212      1210      1211      1213
      1210      1211      1214      1212      1211      1213      1212      1211      1214
      1213      1211      1214      1210      1215      1216      1210      1215      1217
      1210      1215      1218      1216      1215      1217      1216      1215      1218
      1217      1215      1218      1215      1218      1219      1215      1218      1220
      1215      1218      1221      1219      1218      1220      1219      1218      1221
      1220      1218      1221      1198      1221      1218      1198      1221      1222
      1198      1221      1223      1218      1221      1222      1218      1221      1223
      1222      1221      1223      1192      1223      1221      1192      1223      1224
      1192      1223      1228      1221      1223      1224      1221      1223      1228
      1224      1223      1228      1223      1224      1225      1223      1224      1226
      1223      1224      1227      1225      1224      1226      1225      1224      1227
      1226      1224      1227      1223      1228      1229      1223      1228      1230
      1223      1228      1231      1229      1228      1230      1229      1228      1231
      1230      1228      1231      1185      1231      1228      1185      1231      1232
      1185      1231      1233      1228      1231      1232      1228      1231      1233
      1232      1231      1233      1208      1234      1235      1208      1234      1236
      1208      1234      1240      1235      1234      1236      1235      1234      1240
      1236      1234      1240      1234      1236      1237      1234      1236      1238
      1234      1236      1239      1237      1236      1238      1237      1236      1239
      1238      1236      1239      1234      1240      1241      1234      1240      1242
      1234      1240      1243      1241      1240      1242      1241      1240      1243
      1242      1240      1243      1240      1243      1244      1240      1243      1245
      1240      1243      1246      1244      1243      1245      1244      1243      1246
      1245      1243      1246      1243      1246      1247      1243      1246      1248
      1243      1246      1249      1247      1246      1248      1247      1246      1249
      1248      1246      1249      1246      1249      1250      1246      1249      1251
      1246      1249      1255      1250      1249      1251      1250      1249      1255
      1251      1249      1255      1249      1251      1252      1249      1251      1253
      1249      1251      1254      1252      1251      1253      1252      1251      1254
      1253      1251      1254      1249      1255      1256      1249      1255      1257
      1249      1255      1258      1256      1255      1257      1256      1255      1258
      1257      1255      1258      1260      1259      1261      1260      1259      1263
      1260      1259      1305      1261      1259      1263      1261      1259      1305
      1263      1259      1305      1259      1261      1262      1259      1263      1264
      1259      1263      1265      1259      1263      1266      1264      1263      1265
      1264      1263      1266      1265      1263      1266      1263      1266      1267
      1263      1266      1297      1267      1266      1297      1266      1267      1268
      1266      1267      1269      1268      1267      1269      1267      1269      1270
      1267      1269      1271      1267      1269      1272      1270      1269      1271
      1270      1269      1272      1271      1269      1272      1269      1272      1273
      1269      1272      1274      1269      1272      1295      1273      1272      1274
      1273      1272      1295      1274      1272      1295      1272      1274      1275
      1272      1274      1276      1272      1274      1284      1275      1274      1276
      1275      1274      1284      1276      1274      1284      1274      1276      1277
      1274      1276      1278      1274      1276      1279      1277      1276      1278
      1277      1276      1279      1278      1276      1279      1276      1279      1280
      1276      1279      1281      1276      1279      1282      1280      1279      1281
      1280      1279      1282      1281      1279      1282      1279      1282      1283
      1279      1282      1284      1279      1282      1308      1283      1282      1284
      1283      1282      1308      1284      1282      1308      1274      1284      1282
      1274      1284      1285      1274      1284      1289      1282      1284      1285
      1282      1284      1289      1285      1284      1289      1284      1285      1286
      1284      1285      1287      1284      1285      1288      1286      1285      1287
      1286      1285      1288      1287      1285      1288      1284      1289      1290
      1284      1289      1291      1284      1289      1292      1290      1289      1291
      1290      1289      1292      1291      1289      1292      1289      1292      1293
      1289      1292      1294      1289      1292      1295      1293      1292      1294
      1293      1292      1295      1294      1292      1295      1272      1295      1292
      1272      1295      1296      1272      1295      1297      1292      1295      1296
      1292      1295      1297      1296      1295      1297      1266      1297      1295
      1266      1297      1298      1266      1297      1302      1295      1297      1298
      1295      1297      1302      1298      1297      1302      1297      1298      1299
      1297      1298      1300      1297      1298      1301      1299      1298      1300
      1299      1298      1301      1300      1298      1301      1297      1302      1303
      1297      1302      1304      1297      1302      1305      1303      1302      1304
      1303      1302      1305      1304      1302      1305      1259      1305      1302
      1259      1305      1306      1259      1305      1307      1302      1305      1306
      1302      1305      1307      1306      1305      1307      1282      1308      1309
      1282      1308      1310      1282      1308      1314      1309      1308      1310
      1309      1308      1314      1310      1308      1314      1308      1310      1311
      1308      1310      1312      1308      1310      1313      1311      1310      1312
      1311      1310      1313      1312      1310      1313      1308      1314      1315
      1308      1314      1316      1308      1314      1317      1315      1314      1316
      1315      1314      1317      1316      1314      1317      1314      1317      1318
      1314      1317      1319      1314      1317      1320      1318      1317      1319
      1318      1317      1320      1319      1317      1320      1317      1320      1321
      1317      1320      1322      1317      1320      1323      1321      1320      1322
      1321      1320      1323      1322      1320      1323      1320      1323      1324
      1320      1323      1325      1320      1323      1329      1324      1323      1325
      1324      1323      1329      1325      1323      1329      1323      1325      1326
      1323      1325      1327      1323      1325      1328      1326      1325      1327
      1326      1325      1328      1327      1325      1328      1323      1329      1330
      1323      1329      1331      1323      1329      1332      1330      1329      1331
      1330      1329      1332      1331      1329      1332     17706     17705     17709
     17706     17705     17713     17706     17705     17717     17709     17705     17713
     17709     17705     17717     17713     17705     17717     17705     17706     17707
     17705     17706     17708     17705     17706     17721     17707     17706     17708
     17707     17706     17721     17708     17706     17721     17705     17709     17710
     17705     17709     17711     17705     17709     17712     17710     17709     17711
     17710     17709     17712     17711     17709     17712     17705     17713     17714
     17705     17713     17715     17705     17713     17716     17714     17713     17715
     17714     17713     17716     17715     17713     17716     17705     17717     17718
     17705     17717     17719     17705     17717     17720     17718     17717     17719
     17718     17717     17720     17719     17717     17720     17706     17721     17722
     17706     17721     17723     17706     17721     17727     17722     17721     17723
     17722     17721     17727     17723     17721     17727     17725     17724     17726
     17725     17724     17727     17725     17724     17728     17726     17724     17727
     17726     17724     17728     17727     17724     17728     17721     17727     17724
     17724     17728     17729     17728     17729     17730     17728     17729     17731
     17728     17729     17732     17730     17729     17731     17730     17729     17732
     17731     17729     17732     17729     17732     17733     17729     17732     17734
     17729     17732     17740     17733     17732     17734     17733     17732     17740
     17734     17732     17740     17732     17734     17735     17734     17735     17736
     17734     17735     17737     17736     17735     17737     17735     17737     17738
     17735     17737     17739     17735     17737     17749     17738     17737     17739
     17738     17737     17749     17739     17737     17749     17732     17740     17741
     17732     17740     17742     17732     17740     17743     17741     17740     17742
     17741     17740     17743     17742     17740     17743     17740     17743     17744
     17743     17744     17745     17743     17744     17746     17745     17744     17746
     17744     17746     17747     17744     17746     17748     17744     17746     17796
     17747     17746     17748     17747     17746     17796     17748     17746     17796
     17737     17749     17750     17737     17749     17751     17737     17749     17752
     17750     17749     17751     17750     17749     17752     17751     17749     17752
     17749     17752     17753     17749     17752     17754     17749     17752     17755
     17753     17752     17754     17753     17752     17755     17754     17752     17755
     17752     17755     17756     17752     17755     17757     17752     17755     17758
     17756     17755     17757     17756     17755     17758     17757     17755     17758
     17755     17758     17759     17755     17758     17760     17755     17758     17761
     17759     17758     17760     17759     17758     17761     17760     17758     17761
     17758     17761     17762     17758     17761     17763     17758     17761     17764
     17762     17761     17763     17762     17761     17764     17763     17761     17764
     17761     17764     17765     17761     17764     17766     17761     17764     17767
     17765     17764     17766     17765     17764     17767     17766     17764     17767
     17764     17767     17768     17764     17767     17769     17768     17767     17769
     17767     17769     17770     17767     17769     17771     17770     17769     17771
     17769     17771     17772     17769     17771     17773     17769     17771     17774
     17772     17771     17773     17772     17771     17774     17773     17771     17774
     17771     17774     17775     17771     17774     17776     17771     17774     17777
     17775     17774     17776     17775     17774     17777     17776     17774     17777
     17774     17777     17778     17774     17777     17779     17774     17777     17780
     17778     17777     17779     17778     17777     17780     17779     17777     17780
     17777     17780     17781     17777     17780     17782     17777     17780     17783
     17781     17780     17782     17781     17780     17783     17782     17780     17783
     17780     17783     17784     17780     17783     17785     17780     17783     17786
     17784     17783     17785     17784     17783     17786     17785     17783     17786
     17783     17786     17787     17783     17786     17788     17783     17786     17789
     17787     17786     17788     17787     17786     17789     17788     17786     17789
     17786     17789     17790     17786     17789     17791     17786     17789     17792
     17790     17789     17791     17790     17789     17792     17791     17789     17792
     17789     17792     17793     17789     17792     17794     17789     17792     17795
     17793     17792     17794     17793     17792     17795     17794     17792     17795
     17746     17796     17797     17746     17796     17798     17746     17796     17799
     17797     17796     17798     17797     17796     17799     17798     17796     17799
     17796     17799     17800     17796     17799     17801     17796     17799     17802
     17800     17799     17801     17800     17799     17802     17801     17799     17802
     17799     17802     17803     17799     17802     17804     17799     17802     17805
     17803     17802     17804     17803     17802     17805     17804     17802     17805
     17802     17805     17806     17802     17805     17807     17802     17805     17808
     17806     17805     17807     17806     17805     17808     17807     17805     17808
     17805     17808     17809     17805     17808     17810     17805     17808     17811
     17809     17808     17810     17809     17808     17811     17810     17808     17811
     17808     17811     17812     17808     17811     17813     17808     17811     17814
     17812     17811     17813     17812     17811     17814     17813     17811     17814
     17811     17814     17815     17811     17814     17816     17811     17814     17817
     17815     17814     17816     17815     17814     17817     17816     17814     17817
     17814     17817     17818     17814     17817     17819     17814     17817     17820
     17818     17817     17819     17818     17817     17820     17819     17817     17820
     17817     17820     17821     17817     17820     17822     17817     17820     17823
     17821     17820     17822     17821     17820     17823     17822     17820     17823
     17820     17823     17824     17820     17823     17825     17820     17823     17826
     17824     17823     17825     17824     17823     17826     17825     17823     17826
     17823     17826     17827     17823     17826     17828     17823     17826     17829
     17827     17826     17828     17827     17826     17829     17828     17826     17829
     17826     17829     17830     17826     17829     17831     17826     17829     17832
     17830     17829     17831     17830     17829     17832     17831     17829     17832
     17829     17832     17833     17829     17832     17834     17829     17832     17835
     17833     17832     17834     17833     17832     17835     17834     17832     17835
     17832     17835     17836     17832     17835     17837     17832     17835     17838
     17836     17835     17837     17836     17835     17838     17837     17835     17838
     17840     17839     17843     17840     17839     17847     17840     17839     17851
     17843     17839     17847     17843     17839     17851     17847     17839     17851
     17839     17840     17841     17839     17840     17842     17839     17840     17855
     17841     17840     17842     17841     17840     17855     17842     17840     17855
     17839     17843     17844     17839     17843     17845     17839     17843     17846
     17844     17843     17845     17844     17843     17846     17845     17843     17846
     17839     17847     17848     17839     17847     17849     17839     17847     17850
     17848     17847     17849     17848     17847     17850     17849     17847     17850
     17839     17851     17852     17839     17851     17853     17839     17851     17854
     17852     17851     17853     17852     17851     17854     17853     17851     17854
     17840     17855     17856     17840     17855     17857     17840     17855     17861
     17856     17855     17857     17856     17855     17861     17857     17855     17861
     17859     17858     17860     17859     17858     17861     17859     17858     17862
     17860     17858     17861     17860     17858     17862     17861     17858     17862
     17855     17861     17858     17858     17862     17863     17862     17863     17864
     17862     17863     17865     17862     17863     17866     17864     17863     17865
     17864     17863     17866     17865     17863     17866     17863     17866     17867
     17863     17866     17868     17863     17866     17874     17867     17866     17868
     17867     17866     17874     17868     17866     17874     17866     17868     17869
     17868     17869     17870     17868     17869     17871     17870     17869     17871
     17869     17871     17872     17869     17871     17873     17869     17871     17883
     17872     17871     17873     17872     17871     17883     17873     17871     17883
     17866     17874     17875     17866     17874     17876     17866     17874     17877
     17875     17874     17876     17875     17874     17877     17876     17874     17877
     17874     17877     17878     17877     17878     17879     17877     17878     17880
     17879     17878     17880     17878     17880     17881     17878     17880     17882
     17878     17880     17930     17881     17880     17882     17881     17880     17930
     17882     17880     17930     17871     17883     17884     17871     17883     17885
     17871     17883     17886     17884     17883     17885     17884     17883     17886
     17885     17883     17886     17883     17886     17887     17883     17886     17888
     17883     17886     17889     17887     17886     17888     17887     17886     17889
     17888     17886     17889     17886     17889     17890     17886     17889     17891
     17886     17889     17892     17890     17889     17891     17890     17889     17892
     17891     17889     17892     17889     17892     17893     17889     17892     17894
     17889     17892     17895     17893     17892     17894     17893     17892     17895
     17894     17892     17895     17892     17895     17896     17892     17895     17897
     17892     17895     17898     17896     17895     17897     17896     17895     17898
     17897     17895     17898     17895     17898     17899     17895     17898     17900
     17895     17898     17901     17899     17898     17900     17899     17898     17901
     17900     17898     17901     17898     17901     17902     17898     17901     17903
     17902     17901     17903     17901     17903     17904     17901     17903     17905
     17904     17903     17905     17903     17905     17906     17903     17905     17907
     17903     17905     17908     17906     17905     17907     17906     17905     17908
     17907     17905     17908     17905     17908     17909     17905     17908     17910
     17905     17908     17911     17909     17908     17910     17909     17908     17911
     17910     17908     17911     17908     17911     17912     17908     17911     17913
     17908     17911     17914     17912     17911     17913     17912     17911     17914
     17913     17911     17914     17911     17914     17915     17911     17914     17916
     17911     17914     17917     17915     17914     17916     17915     17914     17917
     17916     17914     17917     17914     17917     17918     17914     17917     17919
     17914     17917     17920     17918     17917     17919     17918     17917     17920
     17919     17917     17920     17917     17920     17921     17917     17920     17922
     17917     17920     17923     17921     17920     17922     17921     17920     17923
     17922     17920     17923     17920     17923     17924     17920     17923     17925
     17920     17923     17926     17924     17923     17925     17924     17923     17926
     17925     17923     17926     17923     17926     17927     17923     17926     17928
     17923     17926     17929     17927     17926     17928     17927     17926     17929
     17928     17926     17929     17880     17930     17931     17880     17930     17932
     17880     17930     17933     17931     17930     17932     17931     17930     17933
     17932     17930     17933     17930     17933     17934     17930     17933     17935
     17930     17933     17936     17934     17933     17935     17934     17933     17936
     17935     17933     17936     17933     17936     17937     17933     17936     17938
     17933     17936     17939     17937     17936     17938     17937     17936     17939
     17938     17936     17939     17936     17939     17940     17936     17939     17941
     17936     17939     17942     17940     17939     17941     17940     17939     17942
     17941     17939     17942     17939     17942     17943     17939     17942     17944
     17939     17942     17945     17943     17942     17944     17943     17942     17945
     17944     17942     17945     17942     17945     17946     17942     17945     17947
     17942     17945     17948     17946     17945     17947     17946     17945     17948
     17947     17945     17948     17945     17948     17949     17945     17948     17950
     17945     17948     17951     17949     17948     17950     17949     17948     17951
     17950     17948     17951     17948     17951     17952     17948     17951     17953
     17948     17951     17954     17952     17951     17953     17952     17951     17954
     17953     17951     17954     17951     17954     17955     17951     17954     17956
     17951     17954     17957     17955     17954     17956     17955     17954     17957
     17956     17954     17957     17954     17957     17958     17954     17957     17959
     17954     17957     17960     17958     17957     17959     17958     17957     17960
     17959     17957     17960     17957     17960     17961     17957     17960     17962
     17957     17960     17963     17961     17960     17962     17961     17960     17963
     17962     17960     17963     17960     17963     17964     17960     17963     17965
     17960     17963     17966     17964     17963     17965     17964     17963     17966
     17965     17963     17966     17963     17966     17967     17963     17966     17968
     17963     17966     17969     17967     17966     17968     17967     17966     17969
     17968     17966     17969     17966     17969     17970     17966     17969     17971
     17966     17969     17972     17970     17969     17971     17970     17969     17972
     17971     17969     17972     17974     17973     17977     17974     17973     17981
     17974     17973     17985     17977     17973     17981     17977     17973     17985
     17981     17973     17985     17973     17974     17975     17973     17974     17976
     17973     17974     17989     17975     17974     17976     17975     17974     17989
     17976     17974     17989     17973     17977     17978     17973     17977     17979
     17973     17977     17980     17978     17977     17979     17978     17977     17980
     17979     17977     17980     17973     17981     17982     17973     17981     17983
     17973     17981     17984     17982     17981     17983     17982     17981     17984
     17983     17981     17984     17973     17985     17986     17973     17985     17987
     17973     17985     17988     17986     17985     17987     17986     17985     17988
     17987     17985     17988     17974     17989     17990     17974     17989     17991
     17974     17989     17995     17990     17989     17991     17990     17989     17995
     17991     17989     17995     17993     17992     17994     17993     17992     17995
     17993     17992     17996     17994     17992     17995     17994     17992     17996
     17995     17992     17996     17989     17995     17992     17992     17996     17997
     17996     17997     17998     17996     17997     17999     17996     17997     18000
     17998     17997     17999     17998     17997     18000     17999     17997     18000
     17997     18000     18001     17997     18000     18002     17997     18000     18008
     18001     18000     18002     18001     18000     18008     18002     18000     18008
     18000     18002     18003     18002     18003     18004     18002     18003     18005
     18004     18003     18005     18003     18005     18006     18003     18005     18007
     18003     18005     18017     18006     18005     18007     18006     18005     18017
     18007     18005     18017     18000     18008     18009     18000     18008     18010
     18000     18008     18011     18009     18008     18010     18009     18008     18011
     18010     18008     18011     18008     18011     18012     18011     18012     18013
     18011     18012     18014     18013     18012     18014     18012     18014     18015
     18012     18014     18016     18012     18014     18064     18015     18014     18016
     18015     18014     18064     18016     18014     18064     18005     18017     18018
     18005     18017     18019     18005     18017     18020     18018     18017     18019
     18018     18017     18020     18019     18017     18020     18017     18020     18021
     18017     18020     18022     18017     18020     18023     18021     18020     18022
     18021     18020     18023     18022     18020     18023     18020     18023     18024
     18020     18023     18025     18020     18023     18026     18024     18023     18025
     18024     18023     18026     18025     18023     18026     18023     18026     18027
     18023     18026     18028     18023     18026     18029     18027     18026     18028
     18027     18026     18029     18028     18026     18029     18026     18029     18030
     18026     18029     18031     18026     18029     18032     18030     18029     18031
     18030     18029     18032     18031     18029     18032     18029     18032     18033
     18029     18032     18034     18029     18032     18035     18033     18032     18034
     18033     18032     18035     18034     18032     18035     18032     18035     18036
     18032     18035     18037     18036     18035     18037     18035     18037     18038
     18035     18037     18039     18038     18037     18039     18037     18039     18040
     18037     18039     18041     18037     18039     18042     18040     18039     18041
     18040     18039     18042     18041     18039     18042     18039     18042     18043
     18039     18042     18044     18039     18042     18045     18043     18042     18044
     18043     18042     18045     18044     18042     18045     18042     18045     18046
     18042     18045     18047     18042     18045     18048     18046     18045     18047
     18046     18045     18048     18047     18045     18048     18045     18048     18049
     18045     18048     18050     18045     18048     18051     18049     18048     18050
     18049     18048     18051     18050     18048     18051     18048     18051     18052
     18048     18051     18053     18048     18051     18054     18052     18051     18053
     18052     18051     18054     18053     18051     18054     18051     18054     18055
     18051     18054     18056     18051     18054     18057     18055     18054     18056
     18055     18054     18057     18056     18054     18057     18054     18057     18058
     18054     18057     18059     18054     18057     18060     18058     18057     18059
     18058     18057     18060     18059     18057     18060     18057     18060     18061
     18057     18060     18062     18057     18060     18063     18061     18060     18062
     18061     18060     18063     18062     18060     18063     18014     18064     18065
     18014     18064     18066     18014     18064     18067     18065     18064     18066
     18065     18064     18067     18066     18064     18067     18064     18067     18068
     18064     18067     18069     18064     18067     18070     18068     18067     18069
     18068     18067     18070     18069     18067     18070     18067     18070     18071
     18067     18070     18072     18067     18070     18073     18071     18070     18072
     18071     18070     18073     18072     18070     18073     18070     18073     18074
     18070     18073     18075     18070     18073     18076     18074     18073     18075
     18074     18073     18076     18075     18073     18076     18073     18076     18077
     18073     18076     18078     18073     18076     18079     18077     18076     18078
     18077     18076     18079     18078     18076     18079     18076     18079     18080
     18076     18079     18081     18076     18079     18082     18080     18079     18081
     18080     18079     18082     18081     18079     18082     18079     18082     18083
     18079     18082     18084     18079     18082     18085     18083     18082     18084
     18083     18082     18085     18084     18082     18085     18082     18085     18086
     18082     18085     18087     18082     18085     18088     18086     18085     18087
     18086     18085     18088     18087     18085     18088     18085     18088     18089
     18085     18088     18090     18085     18088     18091     18089     18088     18090
     18089     18088     18091     18090     18088     18091     18088     18091     18092
     18088     18091     18093     18088     18091     18094     18092     18091     18093
     18092     18091     18094     18093     18091     18094     18091     18094     18095
     18091     18094     18096     18091     18094     18097     18095     18094     18096
     18095     18094     18097     18096     18094     18097     18094     18097     18098
     18094     18097     18099     18094     18097     18100     18098     18097     18099
     18098     18097     18100     18099     18097     18100     18097     18100     18101
     18097     18100     18102     18097     18100     18103     18101     18100     18102
     18101     18100     18103     18102     18100     18103     18100     18103     18104
     18100     18103     18105     18100     18103     18106     18104     18103     18105
     18104     18103     18106     18105     18103     18106     18108     18107     18111
     18108     18107     18115     18108     18107     18119     18111     18107     18115
     18111     18107     18119     18115     18107     18119     18107     18108     18109
     18107     18108     18110     18107     18108     18123     18109     18108     18110
     18109     18108     18123     18110     18108     18123     18107     18111     18112
     18107     18111     18113     18107     18111     18114     18112     18111     18113
     18112     18111     18114     18113     18111     18114     18107     18115     18116
     18107     18115     18117     18107     18115     18118     18116     18115     18117
     18116     18115     18118     18117     18115     18118     18107     18119     18120
     18107     18119     18121     18107     18119     18122     18120     18119     18121
     18120     18119     18122     18121     18119     18122     18108     18123     18124
     18108     18123     18125     18108     18123     18129     18124     18123     18125
     18124     18123     18129     18125     18123     18129     18127     18126     18128
     18127     18126     18129     18127     18126     18130     18128     18126     18129
     18128     18126     18130     18129     18126     18130     18123     18129     18126
     18126     18130     18131     18130     18131     18132     18130     18131     18133
     18130     18131     18134     18132     18131     18133     18132     18131     18134
     18133     18131     18134     18131     18134     18135     18131     18134     18136
     18131     18134     18142     18135     18134     18136     18135     18134     18142
     18136     18134     18142     18134     18136     18137     18136     18137     18138
     18136     18137     18139     18138     18137     18139     18137     18139     18140
     18137     18139     18141     18137     18139     18151     18140     18139     18141
     18140     18139     18151     18141     18139     18151     18134     18142     18143
     18134     18142     18144     18134     18142     18145     18143     18142     18144
     18143     18142     18145     18144     18142     18145     18142     18145     18146
     18145     18146     18147     18145     18146     18148     18147     18146     18148
     18146     18148     18149     18146     18148     18150     18146     18148     18198
     18149     18148     18150     18149     18148     18198     18150     18148     18198
     18139     18151     18152     18139     18151     18153     18139     18151     18154
     18152     18151     18153     18152     18151     18154     18153     18151     18154
     18151     18154     18155     18151     18154     18156     18151     18154     18157
     18155     18154     18156     18155     18154     18157     18156     18154     18157
     18154     18157     18158     18154     18157     18159     18154     18157     18160
     18158     18157     18159     18158     18157     18160     18159     18157     18160
     18157     18160     18161     18157     18160     18162     18157     18160     18163
     18161     18160     18162     18161     18160     18163     18162     18160     18163
     18160     18163     18164     18160     18163     18165     18160     18163     18166
     18164     18163     18165     18164     18163     18166     18165     18163     18166
     18163     18166     18167     18163     18166     18168     18163     18166     18169
     18167     18166     18168     18167     18166     18169     18168     18166     18169
     18166     18169     18170     18166     18169     18171     18170     18169     18171
     18169     18171     18172     18169     18171     18173     18172     18171     18173
     18171     18173     18174     18171     18173     18175     18171     18173     18176
     18174     18173     18175     18174     18173     18176     18175     18173     18176
     18173     18176     18177     18173     18176     18178     18173     18176     18179
     18177     18176     18178     18177     18176     18179     18178     18176     18179
     18176     18179     18180     18176     18179     18181     18176     18179     18182
     18180     18179     18181     18180     18179     18182     18181     18179     18182
     18179     18182     18183     18179     18182     18184     18179     18182     18185
     18183     18182     18184     18183     18182     18185     18184     18182     18185
     18182     18185     18186     18182     18185     18187     18182     18185     18188
     18186     18185     18187     18186     18185     18188     18187     18185     18188
     18185     18188     18189     18185     18188     18190     18185     18188     18191
     18189     18188     18190     18189     18188     18191     18190     18188     18191
     18188     18191     18192     18188     18191     18193     18188     18191     18194
     18192     18191     18193     18192     18191     18194     18193     18191     18194
     18191     18194     18195     18191     18194     18196     18191     18194     18197
     18195     18194     18196     18195     18194     18197     18196     18194     18197
     18148     18198     18199     18148     18198     18200     18148     18198     18201
     18199     18198     18200     18199     18198     18201     18200     18198     18201
     18198     18201     18202     18198     18201     18203     18198     18201     18204
     18202     18201     18203     18202     18201     18204     18203     18201     18204
     18201     18204     18205     18201     18204     18206     18201     18204     18207
     18205     18204     18206     18205     18204     18207     18206     18204     18207
     18204     18207     18208     18204     18207     18209     18204     18207     18210
     18208     18207     18209     18208     18207     18210     18209     18207     18210
     18207     18210     18211     18207     18210     18212     18207     18210     18213
     18211     18210     18212     18211     18210     18213     18212     18210     18213
     18210     18213     18214     18210     18213     18215     18210     18213     18216
     18214     18213     18215     18214     18213     18216     18215     18213     18216
     18213     18216     18217     18213     18216     18218     18213     18216     18219
     18217     18216     18218     18217     18216     18219     18218     18216     18219
     18216     18219     18220     18216     18219     18221     18216     18219     18222
     18220     18219     18221     18220     18219     18222     18221     18219     18222
     18219     18222     18223     18219     18222     18224     18219     18222     18225
     18223     18222     18224     18223     18222     18225     18224     18222     18225
     18222     18225     18226     18222     18225     18227     18222     18225     18228
     18226     18225     18227     18226     18225     18228     18227     18225     18228
     18225     18228     18229     18225     18228     18230     18225     18228     18231
     18229     18228     18230     18229     18228     18231     18230     18228     18231
     18228     18231     18232     18228     18231     18233     18228     18231     18234
     18232     18231     18233     18232     18231     18234     18233     18231     18234
     18231     18234     18235     18231     18234     18236     18231     18234     18237
     18235     18234     18236     18235     18234     18237     18236     18234     18237
     18234     18237     18238     18234     18237     18239     18234     18237     18240
     18238     18237     18239     18238     18237     18240     18239     18237     18240
      5597      5596      5598      5597      5596      5599      5597      5596      5600
      5598      5596      5599      5598      5596      5600      5599      5596      5600
      5596      5600      5601      5596      5600      5602      5596      5600      5603
      5601      5600      5602      5601      5600      5603      5602      5600      5603
      5600      5603      5604      5600      5603      5605      5600      5603      5610
      5604      5603      5605      5604      5603      5610      5605      5603      5610
      5607      5606      5608      5607      5606      5609      5607      5606      5610
      5608      5606      5609      5608      5606      5610      5609      5606      5610
      5606      5609      5611      5603      5610      5606      5609      5611      5612
      5609      5611      5613      5609      5611      5614      5612      5611      5613
      5612      5611      5614      5613      5611      5614      5611      5614      5615
      5611      5614      5616      5611      5614      5622      5615      5614      5616
      5615      5614      5622      5616      5614      5622      5614      5616      5617
      5616      5617      5618      5616      5617      5619      5618      5617      5619
      5617      5619      5620      5617      5619      5621      5617      5619      5631
      5620      5619      5621      5620      5619      5631      5621      5619      5631
      5614      5622      5623      5614      5622      5624      5614      5622      5625
      5623      5622      5624      5623      5622      5625      5624      5622      5625
      5622      5625      5626      5625      5626      5627      5625      5626      5628
      5627      5626      5628      5626      5628      5629      5626      5628      5630
      5626      5628      5678      5629      5628      5630      5629      5628      5678
      5630      5628      5678      5619      5631      5632      5619      5631      5633
      5619      5631      5634      5632      5631      5633      5632      5631      5634
      5633      5631      5634      5631      5634      5635      5631      5634      5636
      5631      5634      5637      5635      5634      5636      5635      5634      5637
      5636      5634      5637      5634      5637      5638      5634      5637      5639
      5634      5637      5640      5638      5637      5639      5638      5637      5640
      5639      5637      5640      5637      5640      5641      5637      5640      5642
      5637      5640      5643      5641      5640      5642      5641      5640      5643
      5642      5640      5643      5640      5643      5644      5640      5643      5645
      5640      5643      5646      5644      5643      5645      5644      5643      5646
      5645      5643      5646      5643      5646      5647      5643      5646      5648
      5643      5646      5649      5647      5646      5648      5647      5646      5649
      5648      5646      5649      5646      5649      5650      5646      5649      5651
      5650      5649      5651      5649      5651      5652      5649      5651      5653
      5652      5651      5653      5651      5653      5654      5651      5653      5655
      5651      5653      5656      5654      5653      5655      5654      5653      5656
      5655      5653      5656      5653      5656      5657      5653      5656      5658
      5653      5656      5659      5657      5656      5658      5657      5656      5659
      5658      5656      5659      5656      5659      5660      5656      5659      5661
      5656      5659      5662      5660      5659      5661      5660      5659      5662
      5661      5659      5662      5659      5662      5663      5659      5662      5664
      5659      5662      5665      5663      5662      5664      5663      5662      5665
      5664      5662      5665      5662      5665      5666      5662      5665      5667
      5662      5665      5668      5666      5665      5667      5666      5665      5668
      5667      5665      5668      5665      5668      5669      5665      5668      5670
      5665      5668      5671      5669      5668      5670      5669      5668      5671
      5670      5668      5671      5668      5671      5672      5668      5671      5673
      5668      5671      5674      5672      5671      5673      5672      5671      5674
      5673      5671      5674      5671      5674      5675      5671      5674      5676
      5671      5674      5677      5675      5674      5676      5675      5674      5677
      5676      5674      5677      5628      5678      5679      5628      5678      5680
      5628      5678      5681      5679      5678      5680      5679      5678      5681
      5680      5678      5681      5678      5681      5682      5678      5681      5683
      5678      5681      5684      5682      5681      5683      5682      5681      5684
      5683      5681      5684      5681      5684      5685      5681      5684      5686
      5681      5684      5687      5685      5684      5686      5685      5684      5687
      5686      5684      5687      5684      5687      5688      5684      5687      5689
      5684      5687      5690      5688      5687      5689      5688      5687      5690
      5689      5687      5690      5687      5690      5691      5687      5690      5692
      5687      5690      5693      5691      5690      5692      5691      5690      5693
      5692      5690      5693      5690      5693      5694      5690      5693      5695
      5690      5693      5696      5694      5693      5695      5694      5693      5696
      5695      5693      5696      5693      5696      5697      5693      5696      5698
      5693      5696      5699      5697      5696      5698      5697      5696      5699
      5698      5696      5699      5696      5699      5700      5696      5699      5701
      5696      5699      5702      5700      5699      5701      5700      5699      5702
      5701      5699      5702      5699      5702      5703      5699      5702      5704
      5699      5702      5705      5703      5702      5704      5703      5702      5705
      5704      5702      5705      5702      5705      5706      5702      5705      5707
      5702      5705      5708      5706      5705      5707      5706      5705      5708
      5707      5705      5708      5705      5708      5709      5705      5708      5710
      5705      5708      5711      5709      5708      5710      5709      5708      5711
      5710      5708      5711      5708      5711      5712      5708      5711      5713
      5708      5711      5714      5712      5711      5713      5712      5711      5714
      5713      5711      5714      5711      5714      5715      5711      5714      5716
      5711      5714      5717      5715      5714      5716      5715      5714      5717
      5716      5714      5717      5714      5717      5718      5714      5717      5719
      5714      5717      5720      5718      5717      5719      5718      5717      5720
      5719      5717      5720     11266     11265     11267     11266     11265     11268
     11266     11265     11269     11267     11265     11268     11267     11265     11269
     11268     11265     11269     11265     11269     11270     11265     11269     11271
     11265     11269     11274     11270     11269     11271     11270     11269     11274
     11271     11269     11274     11269     11271     11272     11269     11271     11273
     11272     11271     11273     11269     11274     11275     11269     11274     11276
     11269     11274     11280     11275     11274     11276     11275     11274     11280
     11276     11274     11280     11278     11277     11279     11278     11277     11280
     11278     11277     11281     11279     11277     11280     11279     11277     11281
     11280     11277     11281     11274     11280     11277     11277     11281     11282
     11281     11282     11283     11281     11282     11284     11281     11282     11285
     11283     11282     11284     11283     11282     11285     11284     11282     11285
     11282     11285     11286     11282     11285     11287     11282     11285     11293
     11286     11285     11287     11286     11285     11293     11287     11285     11293
     11285     11287     11288     11287     11288     11289     11287     11288     11290
     11289     11288     11290     11288     11290     11291     11288     11290     11292
     11288     11290     11302     11291     11290     11292     11291     11290     11302
     11292     11290     11302     11285     11293     11294     11285     11293     11295
     11285     11293     11296     11294     11293     11295     11294     11293     11296
     11295     11293     11296     11293     11296     11297     11296     11297     11298
     11296     11297     11299     11298     11297     11299     11297     11299     11300
     11297     11299     11301     11297     11299     11349     11300     11299     11301
     11300     11299     11349     11301     11299     11349     11290     11302     11303
     11290     11302     11304     11290     11302     11305     11303     11302     11304
     11303     11302     11305     11304     11302     11305     11302     11305     11306
     11302     11305     11307     11302     11305     11308     11306     11305     11307
     11306     11305     11308     11307     11305     11308     11305     11308     11309
     11305     11308     11310     11305     11308     11311     11309     11308     11310
     11309     11308     11311     11310     11308     11311     11308     11311     11312
     11308     11311     11313     11308     11311     11314     11312     11311     11313
     11312     11311     11314     11313     11311     11314     11311     11314     11315
     11311     11314     11316     11311     11314     11317     11315     11314     11316
     11315     11314     11317     11316     11314     11317     11314     11317     11318
     11314     11317     11319     11314     11317     11320     11318     11317     11319
     11318     11317     11320     11319     11317     11320     11317     11320     11321
     11317     11320     11322     11321     11320     11322     11320     11322     11323
     11320     11322     11324     11323     11322     11324     11322     11324     11325
     11322     11324     11326     11322     11324     11327     11325     11324     11326
     11325     11324     11327     11326     11324     11327     11324     11327     11328
     11324     11327     11329     11324     11327     11330     11328     11327     11329
     11328     11327     11330     11329     11327     11330     11327     11330     11331
     11327     11330     11332     11327     11330     11333     11331     11330     11332
     11331     11330     11333     11332     11330     11333     11330     11333     11334
     11330     11333     11335     11330     11333     11336     11334     11333     11335
     11334     11333     11336     11335     11333     11336     11333     11336     11337
     11333     11336     11338     11333     11336     11339     11337     11336     11338
     11337     11336     11339     11338     11336     11339     11336     11339     11340
     11336     11339     11341     11336     11339     11342     11340     11339     11341
     11340     11339     11342     11341     11339     11342     11339     11342     11343
     11339     11342     11344     11339     11342     11345     11343     11342     11344
     11343     11342     11345     11344     11342     11345     11342     11345     11346
     11342     11345     11347     11342     11345     11348     11346     11345     11347
     11346     11345     11348     11347     11345     11348     11299     11349     11350
     11299     11349     11351     11299     11349     11352     11350     11349     11351
     11350     11349     11352     11351     11349     11352     11349     11352     11353
     11349     11352     11354     11349     11352     11355     11353     11352     11354
     11353     11352     11355     11354     11352     11355     11352     11355     11356
     11352     11355     11357     11352     11355     11358     11356     11355     11357
     11356     11355     11358     11357     11355     11358     11355     11358     11359
     11355     11358     11360     11355     11358     11361     11359     11358     11360
     11359     11358     11361     11360     11358     11361     11358     11361     11362
     11358     11361     11363     11358     11361     11364     11362     11361     11363
     11362     11361     11364     11363     11361     11364     11361     11364     11365
     11361     11364     11366     11361     11364     11367     11365     11364     11366
     11365     11364     11367     11366     11364     11367     11364     11367     11368
     11364     11367     11369     11364     11367     11370     11368     11367     11369
     11368     11367     11370     11369     11367     11370     11367     11370     11371
     11367     11370     11372     11367     11370     11373     11371     11370     11372
     11371     11370     11373     11372     11370     11373     11370     11373     11374
     11370     11373     11375     11370     11373     11376     11374     11373     11375
     11374     11373     11376     11375     11373     11376     11373     11376     11377
     11373     11376     11378     11373     11376     11379     11377     11376     11378
     11377     11376     11379     11378     11376     11379     11376     11379     11380
     11376     11379     11381     11376     11379     11382     11380     11379     11381
     11380     11379     11382     11381     11379     11382     11379     11382     11383
     11379     11382     11384     11379     11382     11385     11383     11382     11384
     11383     11382     11385     11384     11382     11385     11382     11385     11386
     11382     11385     11387     11382     11385     11388     11386     11385     11387
     11386     11385     11388     11387     11385     11388     11385     11388     11389
     11385     11388     11390     11385     11388     11391     11389     11388     11390
     11389     11388     11391     11390     11388     11391     18242     18241     18245
     18242     18241     18249     18242     18241     18253     18245     18241     18249
     18245     18241     18253     18249     18241     18253     18241     18242     18243
     18241     18242     18244     18241     18242     18257     18243     18242     18244
     18243     18242     18257     18244     18242     18257     18241     18245     18246
     18241     18245     18247     18241     18245     18248     18246     18245     18247
     18246     18245     18248     18247     18245     18248     18241     18249     18250
     18241     18249     18251     18241     18249     18252     18250     18249     18251
     18250     18249     18252     18251     18249     18252     18241     18253     18254
     18241     18253     18255     18241     18253     18256     18254     18253     18255
     18254     18253     18256     18255     18253     18256     18242     18257     18258
     18242     18257     18259     18242     18257     18263     18258     18257     18259
     18258     18257     18263     18259     18257     18263     18261     18260     18262
     18261     18260     18263     18261     18260     18264     18262     18260     18263
     18262     18260     18264     18263     18260     18264     18257     18263     18260
     18260     18264     18265     18264     18265     18266     18264     18265     18267
     18264     18265     18268     18266     18265     18267     18266     18265     18268
     18267     18265     18268     18265     18268     18269     18265     18268     18270
     18265     18268     18276     18269     18268     18270     18269     18268     18276
     18270     18268     18276     18268     18270     18271     18270     18271     18272
     18270     18271     18273     18272     18271     18273     18271     18273     18274
     18271     18273     18275     18271     18273     18285     18274     18273     18275
     18274     18273     18285     18275     18273     18285     18268     18276     18277
     18268     18276     18278     18268     18276     18279     18277     18276     18278
     18277     18276     18279     18278     18276     18279     18276     18279     18280
     18279     18280     18281     18279     18280     18282     18281     18280     18282
     18280     18282     18283     18280     18282     18284     18280     18282     18332
     18283     18282     18284     18283     18282     18332     18284     18282     18332
     18273     18285     18286     18273     18285     18287     18273     18285     18288
     18286     18285     18287     18286     18285     18288     18287     18285     18288
     18285     18288     18289     18285     18288     18290     18285     18288     18291
     18289     18288     18290     18289     18288     18291     18290     18288     18291
     18288     18291     18292     18288     18291     18293     18288     18291     18294
     18292     18291     18293     18292     18291     18294     18293     18291     18294
     18291     18294     18295     18291     18294     18296     18291     18294     18297
     18295     18294     18296     18295     18294     18297     18296     18294     18297
     18294     18297     18298     18294     18297     18299     18294     18297     18300
     18298     18297     18299     18298     18297     18300     18299     18297     18300
     18297     18300     18301     18297     18300     18302     18297     18300     18303
     18301     18300     18302     18301     18300     18303     18302     18300     18303
     18300     18303     18304     18300     18303     18305     18304     18303     18305
     18303     18305     18306     18303     18305     18307     18306     18305     18307
     18305     18307     18308     18305     18307     18309     18305     18307     18310
     18308     18307     18309     18308     18307     18310     18309     18307     18310
     18307     18310     18311     18307     18310     18312     18307     18310     18313
     18311     18310     18312     18311     18310     18313     18312     18310     18313
     18310     18313     18314     18310     18313     18315     18310     18313     18316
     18314     18313     18315     18314     18313     18316     18315     18313     18316
     18313     18316     18317     18313     18316     18318     18313     18316     18319
     18317     18316     18318     18317     18316     18319     18318     18316     18319
     18316     18319     18320     18316     18319     18321     18316     18319     18322
     18320     18319     18321     18320     18319     18322     18321     18319     18322
     18319     18322     18323     18319     18322     18324     18319     18322     18325
     18323     18322     18324     18323     18322     18325     18324     18322     18325
     18322     18325     18326     18322     18325     18327     18322     18325     18328
     18326     18325     18327     18326     18325     18328     18327     18325     18328
     18325     18328     18329     18325     18328     18330     18325     18328     18331
     18329     18328     18330     18329     18328     18331     18330     18328     18331
     18282     18332     18333     18282     18332     18334     18282     18332     18335
     18333     18332     18334     18333     18332     18335     18334     18332     18335
     18332     18335     18336     18332     18335     18337     18332     18335     18338
     18336     18335     18337     18336     18335     18338     18337     18335     18338
     18335     18338     18339     18335     18338     18340     18335     18338     18341
     18339     18338     18340     18339     18338     18341     18340     18338     18341
     18338     18341     18342     18338     18341     18343     18338     18341     18344
     18342     18341     18343     18342     18341     18344     18343     18341     18344
     18341     18344     18345     18341     18344     18346     18341     18344     18347
     18345     18344     18346     18345     18344     18347     18346     18344     18347
     18344     18347     18348     18344     18347     18349     18344     18347     18350
     18348     18347     18349     18348     18347     18350     18349     18347     18350
     18347     18350     18351     18347     18350     18352     18347     18350     18353
     18351     18350     18352     18351     18350     18353     18352     18350     18353
     18350     18353     18354     18350     18353     18355     18350     18353     18356
     18354     18353     18355     18354     18353     18356     18355     18353     18356
     18353     18356     18357     18353     18356     18358     18353     18356     18359
     18357     18356     18358     18357     18356     18359     18358     18356     18359
     18356     18359     18360     18356     18359     18361     18356     18359     18362
     18360     18359     18361     18360     18359     18362     18361     18359     18362
     18359     18362     18363     18359     18362     18364     18359     18362     18365
     18363     18362     18364     18363     18362     18365     18364     18362     18365
     18362     18365     18366     18362     18365     18367     18362     18365     18368
     18366     18365     18367     18366     18365     18368     18367     18365     18368
     18365     18368     18369     18365     18368     18370     18365     18368     18371
     18369     18368     18370     18369     18368     18371     18370     18368     18371
     18368     18371     18372     18368     18371     18373     18368     18371     18374
     18372     18371     18373     18372     18371     18374     18373     18371     18374
     11393     11392     11394     11393     11392     11395     11393     11392     11396
     11394     11392     11395     11394     11392     11396     11395     11392     11396
     11392     11396     11397     11392     11396     11398     11392     11396     11401
     11397     11396     11398     11397     11396     11401     11398     11396     11401
     11396     11398     11399     11396     11398     11400     11399     11398     11400
     11396     11401     11402     11396     11401     11403     11396     11401     11407
     11402     11401     11403     11402     11401     11407     11403     11401     11407
     11405     11404     11406     11405     11404     11407     11405     11404     11408
     11406     11404     11407     11406     11404     11408     11407     11404     11408
     11401     11407     11404     11404     11408     11409     11408     11409     11410
     11408     11409     11411     11408     11409     11412     11410     11409     11411
     11410     11409     11412     11411     11409     11412     11409     11412     11413
     11409     11412     11414     11409     11412     11420     11413     11412     11414
     11413     11412     11420     11414     11412     11420     11412     11414     11415
     11414     11415     11416     11414     11415     11417     11416     11415     11417
     11415     11417     11418     11415     11417     11419     11415     11417     11429
     11418     11417     11419     11418     11417     11429     11419     11417     11429
     11412     11420     11421     11412     11420     11422     11412     11420     11423
     11421     11420     11422     11421     11420     11423     11422     11420     11423
     11420     11423     11424     11423     11424     11425     11423     11424     11426
     11425     11424     11426     11424     11426     11427     11424     11426     11428
     11424     11426     11476     11427     11426     11428     11427     11426     11476
     11428     11426     11476     11417     11429     11430     11417     11429     11431
     11417     11429     11432     11430     11429     11431     11430     11429     11432
     11431     11429     11432     11429     11432     11433     11429     11432     11434
     11429     11432     11435     11433     11432     11434     11433     11432     11435
     11434     11432     11435     11432     11435     11436     11432     11435     11437
     11432     11435     11438     11436     11435     11437     11436     11435     11438
     11437     11435     11438     11435     11438     11439     11435     11438     11440
     11435     11438     11441     11439     11438     11440     11439     11438     11441
     11440     11438     11441     11438     11441     11442     11438     11441     11443
     11438     11441     11444     11442     11441     11443     11442     11441     11444
     11443     11441     11444     11441     11444     11445     11441     11444     11446
     11441     11444     11447     11445     11444     11446     11445     11444     11447
     11446     11444     11447     11444     11447     11448     11444     11447     11449
     11448     11447     11449     11447     11449     11450     11447     11449     11451
     11450     11449     11451     11449     11451     11452     11449     11451     11453
     11449     11451     11454     11452     11451     11453     11452     11451     11454
     11453     11451     11454     11451     11454     11455     11451     11454     11456
     11451     11454     11457     11455     11454     11456     11455     11454     11457
     11456     11454     11457     11454     11457     11458     11454     11457     11459
     11454     11457     11460     11458     11457     11459     11458     11457     11460
     11459     11457     11460     11457     11460     11461     11457     11460     11462
     11457     11460     11463     11461     11460     11462     11461     11460     11463
     11462     11460     11463     11460     11463     11464     11460     11463     11465
     11460     11463     11466     11464     11463     11465     11464     11463     11466
     11465     11463     11466     11463     11466     11467     11463     11466     11468
     11463     11466     11469     11467     11466     11468     11467     11466     11469
     11468     11466     11469     11466     11469     11470     11466     11469     11471
     11466     11469     11472     11470     11469     11471     11470     11469     11472
     11471     11469     11472     11469     11472     11473     11469     11472     11474
     11469     11472     11475     11473     11472     11474     11473     11472     11475
     11474     11472     11475     11426     11476     11477     11426     11476     11478
     11426     11476     11479     11477     11476     11478     11477     11476     11479
     11478     11476     11479     11476     11479     11480     11476     11479     11481
     11476     11479     11482     11480     11479     11481     11480     11479     11482
     11481     11479     11482     11479     11482     11483     11479     11482     11484
     11479     11482     11485     11483     11482     11484     11483     11482     11485
     11484     11482     11485     11482     11485     11486     11482     11485     11487
     11482     11485     11488     11486     11485     11487     11486     11485     11488
     11487     11485     11488     11485     11488     11489     11485     11488     11490
     11485     11488     11491     11489     11488     11490     11489     11488     11491
     11490     11488     11491     11488     11491     11492     11488     11491     11493
     11488     11491     11494     11492     11491     11493     11492     11491     11494
     11493     11491     11494     11491     11494     11495     11491     11494     11496
     11491     11494     11497     11495     11494     11496     11495     11494     11497
     11496     11494     11497     11494     11497     11498     11494     11497     11499
     11494     11497     11500     11498     11497     11499     11498     11497     11500
     11499     11497     11500     11497     11500     11501     11497     11500     11502
     11497     11500     11503     11501     11500     11502     11501     11500     11503
     11502     11500     11503     11500     11503     11504     11500     11503     11505
     11500     11503     11506     11504     11503     11505     11504     11503     11506
     11505     11503     11506     11503     11506     11507     11503     11506     11508
     11503     11506     11509     11507     11506     11508     11507     11506     11509
     11508     11506     11509     11506     11509     11510     11506     11509     11511
     11506     11509     11512     11510     11509     11511     11510     11509     11512
     11511     11509     11512     11509     11512     11513     11509     11512     11514
     11509     11512     11515     11513     11512     11514     11513     11512     11515
     11514     11512     11515     11512     11515     11516     11512     11515     11517
     11512     11515     11518     11516     11515     11517     11516     11515     11518
     11517     11515     11518      5722      5721      5723      5722      5721      5724
      5722      5721      5725      5723      5721      5724      5723      5721      5725
      5724      5721      5725      5721      5725      5726      5721      5725      5727
      5721      5725      5728      5726      5725      5727      5726      5725      5728
      5727      5725      5728      5725      5728      5729      5725      5728      5730
      5725      5728      5735      5729      5728      5730      5729      5728      5735
      5730      5728      5735      5732      5731      5733      5732      5731      5734
      5732      5731      5735      5733      5731      5734      5733      5731      5735
      5734      5731      5735      5731      5734      5736      5728      5735      5731
      5734      5736      5737      5734      5736      5738      5734      5736      5739
      5737      5736      5738      5737      5736      5739      5738      5736      5739
      5736      5739      5740      5736      5739      5741      5736      5739      5747
      5740      5739      5741      5740      5739      5747      5741      5739      5747
      5739      5741      5742      5741      5742      5743      5741      5742      5744
      5743      5742      5744      5742      5744      5745      5742      5744      5746
      5742      5744      5756      5745      5744      5746      5745      5744      5756
      5746      5744      5756      5739      5747      5748      5739      5747      5749
      5739      5747      5750      5748      5747      5749      5748      5747      5750
      5749      5747      5750      5747      5750      5751      5750      5751      5752
      5750      5751      5753      5752      5751      5753      5751      5753      5754
      5751      5753      5755      5751      5753      5803      5754      5753      5755
      5754      5753      5803      5755      5753      5803      5744      5756      5757
      5744      5756      5758      5744      5756      5759      5757      5756      5758
      5757      5756      5759      5758      5756      5759      5756      5759      5760
      5756      5759      5761      5756      5759      5762      5760      5759      5761
      5760      5759      5762      5761      5759      5762      5759      5762      5763
      5759      5762      5764      5759      5762      5765      5763      5762      5764
      5763      5762      5765      5764      5762      5765      5762      5765      5766
      5762      5765      5767      5762      5765      5768      5766      5765      5767
      5766      5765      5768      5767      5765      5768      5765      5768      5769
      5765      5768      5770      5765      5768      5771      5769      5768      5770
      5769      5768      5771      5770      5768      5771      5768      5771      5772
      5768      5771      5773      5768      5771      5774      5772      5771      5773
      5772      5771      5774      5773      5771      5774      5771      5774      5775
      5771      5774      5776      5775      5774      5776      5774      5776      5777
      5774      5776      5778      5777      5776      5778      5776      5778      5779
      5776      5778      5780      5776      5778      5781      5779      5778      5780
      5779      5778      5781      5780      5778      5781      5778      5781      5782
      5778      5781      5783      5778      5781      5784      5782      5781      5783
      5782      5781      5784      5783      5781      5784      5781      5784      5785
      5781      5784      5786      5781      5784      5787      5785      5784      5786
      5785      5784      5787      5786      5784      5787      5784      5787      5788
      5784      5787      5789      5784      5787      5790      5788      5787      5789
      5788      5787      5790      5789      5787      5790      5787      5790      5791
      5787      5790      5792      5787      5790      5793      5791      5790      5792
      5791      5790      5793      5792      5790      5793      5790      5793      5794
      5790      5793      5795      5790      5793      5796      5794      5793      5795
      5794      5793      5796      5795      5793      5796      5793      5796      5797
      5793      5796      5798      5793      5796      5799      5797      5796      5798
      5797      5796      5799      5798      5796      5799      5796      5799      5800
      5796      5799      5801      5796      5799      5802      5800      5799      5801
      5800      5799      5802      5801      5799      5802      5753      5803      5804
      5753      5803      5805      5753      5803      5806      5804      5803      5805
      5804      5803      5806      5805      5803      5806      5803      5806      5807
      5803      5806      5808      5803      5806      5809      5807      5806      5808
      5807      5806      5809      5808      5806      5809      5806      5809      5810
      5806      5809      5811      5806      5809      5812      5810      5809      5811
      5810      5809      5812      5811      5809      5812      5809      5812      5813
      5809      5812      5814      5809      5812      5815      5813      5812      5814
      5813      5812      5815      5814      5812      5815      5812      5815      5816
      5812      5815      5817      5812      5815      5818      5816      5815      5817
      5816      5815      5818      5817      5815      5818      5815      5818      5819
      5815      5818      5820      5815      5818      5821      5819      5818      5820
      5819      5818      5821      5820      5818      5821      5818      5821      5822
      5818      5821      5823      5818      5821      5824      5822      5821      5823
      5822      5821      5824      5823      5821      5824      5821      5824      5825
      5821      5824      5826      5821      5824      5827      5825      5824      5826
      5825      5824      5827      5826      5824      5827      5824      5827      5828
      5824      5827      5829      5824      5827      5830      5828      5827      5829
      5828      5827      5830      5829      5827      5830      5827      5830      5831
      5827      5830      5832      5827      5830      5833      5831      5830      5832
      5831      5830      5833      5832      5830      5833      5830      5833      5834
      5830      5833      5835      5830      5833      5836      5834      5833      5835
      5834      5833      5836      5835      5833      5836      5833      5836      5837
      5833      5836      5838      5833      5836      5839      5837      5836      5838
      5837      5836      5839      5838      5836      5839      5836      5839      5840
      5836      5839      5841      5836      5839      5842      5840      5839      5841
      5840      5839      5842      5841      5839      5842      5839      5842      5843
      5839      5842      5844      5839      5842      5845      5843      5842      5844
      5843      5842      5845      5844      5842      5845     18376     18375     18379
     18376     18375     18383     18376     18375     18387     18379     18375     18383
     18379     18375     18387     18383     18375     18387     18375     18376     18377
     18375     18376     18378     18375     18376     18391     18377     18376     18378
     18377     18376     18391     18378     18376     18391     18375     18379     18380
     18375     18379     18381     18375     18379     18382     18380     18379     18381
     18380     18379     18382     18381     18379     18382     18375     18383     18384
     18375     18383     18385     18375     18383     18386     18384     18383     18385
     18384     18383     18386     18385     18383     18386     18375     18387     18388
     18375     18387     18389     18375     18387     18390     18388     18387     18389
     18388     18387     18390     18389     18387     18390     18376     18391     18392
     18376     18391     18393     18376     18391     18397     18392     18391     18393
     18392     18391     18397     18393     18391     18397     18395     18394     18396
     18395     18394     18397     18395     18394     18398     18396     18394     18397
     18396     18394     18398     18397     18394     18398     18391     18397     18394
     18394     18398     18399     18398     18399     18400     18398     18399     18401
     18398     18399     18402     18400     18399     18401     18400     18399     18402
     18401     18399     18402     18399     18402     18403     18399     18402     18404
     18399     18402     18410     18403     18402     18404     18403     18402     18410
     18404     18402     18410     18402     18404     18405     18404     18405     18406
     18404     18405     18407     18406     18405     18407     18405     18407     18408
     18405     18407     18409     18405     18407     18419     18408     18407     18409
     18408     18407     18419     18409     18407     18419     18402     18410     18411
     18402     18410     18412     18402     18410     18413     18411     18410     18412
     18411     18410     18413     18412     18410     18413     18410     18413     18414
     18413     18414     18415     18413     18414     18416     18415     18414     18416
     18414     18416     18417     18414     18416     18418     18414     18416     18466
     18417     18416     18418     18417     18416     18466     18418     18416     18466
     18407     18419     18420     18407     18419     18421     18407     18419     18422
     18420     18419     18421     18420     18419     18422     18421     18419     18422
     18419     18422     18423     18419     18422     18424     18419     18422     18425
     18423     18422     18424     18423     18422     18425     18424     18422     18425
     18422     18425     18426     18422     18425     18427     18422     18425     18428
     18426     18425     18427     18426     18425     18428     18427     18425     18428
     18425     18428     18429     18425     18428     18430     18425     18428     18431
     18429     18428     18430     18429     18428     18431     18430     18428     18431
     18428     18431     18432     18428     18431     18433     18428     18431     18434
     18432     18431     18433     18432     18431     18434     18433     18431     18434
     18431     18434     18435     18431     18434     18436     18431     18434     18437
     18435     18434     18436     18435     18434     18437     18436     18434     18437
     18434     18437     18438     18434     18437     18439     18438     18437     18439
     18437     18439     18440     18437     18439     18441     18440     18439     18441
     18439     18441     18442     18439     18441     18443     18439     18441     18444
     18442     18441     18443     18442     18441     18444     18443     18441     18444
     18441     18444     18445     18441     18444     18446     18441     18444     18447
     18445     18444     18446     18445     18444     18447     18446     18444     18447
     18444     18447     18448     18444     18447     18449     18444     18447     18450
     18448     18447     18449     18448     18447     18450     18449     18447     18450
     18447     18450     18451     18447     18450     18452     18447     18450     18453
     18451     18450     18452     18451     18450     18453     18452     18450     18453
     18450     18453     18454     18450     18453     18455     18450     18453     18456
     18454     18453     18455     18454     18453     18456     18455     18453     18456
     18453     18456     18457     18453     18456     18458     18453     18456     18459
     18457     18456     18458     18457     18456     18459     18458     18456     18459
     18456     18459     18460     18456     18459     18461     18456     18459     18462
     18460     18459     18461     18460     18459     18462     18461     18459     18462
     18459     18462     18463     18459     18462     18464     18459     18462     18465
     18463     18462     18464     18463     18462     18465     18464     18462     18465
     18416     18466     18467     18416     18466     18468     18416     18466     18469
     18467     18466     18468     18467     18466     18469     18468     18466     18469
     18466     18469     18470     18466     18469     18471     18466     18469     18472
     18470     18469     18471     18470     18469     18472     18471     18469     18472
     18469     18472     18473     18469     18472     18474     18469     18472     18475
     18473     18472     18474     18473     18472     18475     18474     18472     18475
     18472     18475     18476     18472     18475     18477     18472     18475     18478
     18476     18475     18477     18476     18475     18478     18477     18475     18478
     18475     18478     18479     18475     18478     18480     18475     18478     18481
     18479     18478     18480     18479     18478     18481     18480     18478     18481
     18478     18481     18482     18478     18481     18483     18478     18481     18484
     18482     18481     18483     18482     18481     18484     18483     18481     18484
     18481     18484     18485     18481     18484     18486     18481     18484     18487
     18485     18484     18486     18485     18484     18487     18486     18484     18487
     18484     18487     18488     18484     18487     18489     18484     18487     18490
     18488     18487     18489     18488     18487     18490     18489     18487     18490
     18487     18490     18491     18487     18490     18492     18487     18490     18493
     18491     18490     18492     18491     18490     18493     18492     18490     18493
     18490     18493     18494     18490     18493     18495     18490     18493     18496
     18494     18493     18495     18494     18493     18496     18495     18493     18496
     18493     18496     18497     18493     18496     18498     18493     18496     18499
     18497     18496     18498     18497     18496     18499     18498     18496     18499
     18496     18499     18500     18496     18499     18501     18496     18499     18502
     18500     18499     18501     18500     18499     18502     18501     18499     18502
     18499     18502     18503     18499     18502     18504     18499     18502     18505
     18503     18502     18504     18503     18502     18505     18504     18502     18505
     18502     18505     18506     18502     18505     18507     18502     18505     18508
     18506     18505     18507     18506     18505     18508     18507     18505     18508
      1334      1333      1335      1334      1333      1337      1334      1333      1379
      1335      1333      1337      1335      1333      1379      1337      1333      1379
      1333      1335      1336      1333      1337      1338      1333      1337      1339
      1333      1337      1340      1338      1337      1339      1338      1337      1340
      1339      1337      1340      1337      1340      1341      1337      1340      1371
      1341      1340      1371      1340      1341      1342      1340      1341      1343
      1342      1341      1343      1341      1343      1344      1341      1343      1345
      1341      1343      1346      1344      1343      1345      1344      1343      1346
      1345      1343      1346      1343      1346      1347      1343      1346      1348
      1343      1346      1369      1347      1346      1348      1347      1346      1369
      1348      1346      1369      1346      1348      1349      1346      1348      1350
      1346      1348      1358      1349      1348      1350      1349      1348      1358
      1350      1348      1358      1348      1350      1351      1348      1350      1352
      1348      1350      1353      1351      1350      1352      1351      1350      1353
      1352      1350      1353      1350      1353      1354      1350      1353      1355
      1350      1353      1356      1354      1353      1355      1354      1353      1356
      1355      1353      1356      1353      1356      1357      1353      1356      1358
      1353      1356      1382      1357      1356      1358      1357      1356      1382
      1358      1356      1382      1348      1358      1356      1348      1358      1359
      1348      1358      1363      1356      1358      1359      1356      1358      1363
      1359      1358      1363      1358      1359      1360      1358      1359      1361
      1358      1359      1362      1360      1359      1361      1360      1359      1362
      1361      1359      1362      1358      1363      1364      1358      1363      1365
      1358      1363      1366      1364      1363      1365      1364      1363      1366
      1365      1363      1366      1363      1366      1367      1363      1366      1368
      1363      1366      1369      1367      1366      1368      1367      1366      1369
      1368      1366      1369      1346      1369      1366      1346      1369      1370
      1346      1369      1371      1366      1369      1370      1366      1369      1371
      1370      1369      1371      1340      1371      1369      1340      1371      1372
      1340      1371      1376      1369      1371      1372      1369      1371      1376
      1372      1371      1376      1371      1372      1373      1371      1372      1374
      1371      1372      1375      1373      1372      1374      1373      1372      1375
      1374      1372      1375      1371      1376      1377      1371      1376      1378
      1371      1376      1379      1377      1376      1378      1377      1376      1379
      1378      1376      1379      1333      1379      1376      1333      1379      1380
      1333      1379      1381      1376      1379      1380      1376      1379      1381
      1380      1379      1381      1356      1382      1383      1356      1382      1384
      1356      1382      1388      1383      1382      1384      1383      1382      1388
      1384      1382      1388      1382      1384      1385      1382      1384      1386
      1382      1384      1387      1385      1384      1386      1385      1384      1387
      1386      1384      1387      1382      1388      1389      1382      1388      1390
      1382      1388      1391      1389      1388      1390      1389      1388      1391
      1390      1388      1391      1388      1391      1392      1388      1391      1393
      1388      1391      1394      1392      1391      1393      1392      1391      1394
      1393      1391      1394      1391      1394      1395      1391      1394      1396
      1391      1394      1397      1395      1394      1396      1395      1394      1397
      1396      1394      1397      1394      1397      1398      1394      1397      1399
      1394      1397      1403      1398      1397      1399      1398      1397      1403
      1399      1397      1403      1397      1399      1400      1397      1399      1401
      1397      1399      1402      1400      1399      1401      1400      1399      1402
      1401      1399      1402      1397      1403      1404      1397      1403      1405
      1397      1403      1406      1404      1403      1405      1404      1403      1406
      1405      1403      1406     23597     23596     23601     23597     23596     23605
     23597     23596     23609     23601     23596     23605     23601     23596     23609
     23605     23596     23609     23596     23597     23598     23596     23597     23599
     23596     23597     23600     23598     23597     23599     23598     23597     23600
     23599     23597     23600     23596     23601     23602     23596     23601     23603
     23596     23601     23604     23602     23601     23603     23602     23601     23604
     23603     23601     23604     23596     23605     23606     23596     23605     23607
     23596     23605     23608     23606     23605     23607     23606     23605     23608
     23607     23605     23608     23596     23609     23610     23596     23609     23611
     23596     23609     23612     23610     23609     23611     23610     23609     23612
     23611     23609     23612     23609     23612     23613     23609     23612     23614
     23609     23612     23619     23613     23612     23614     23613     23612     23619
     23614     23612     23619     23616     23615     23617     23616     23615     23618
     23616     23615     23619     23617     23615     23618     23617     23615     23619
     23618     23615     23619     23615     23618     23620     23612     23619     23615
     23618     23620     23621     23618     23620     23622     23618     23620     23625
     23621     23620     23622     23621     23620     23625     23622     23620     23625
     23624     23623     23625     23624     23623     23675     23625     23623     23675
     23620     23625     23623     23620     23625     23626     23620     23625     23627
     23623     23625     23626     23623     23625     23627     23626     23625     23627
     23625     23627     23628     23625     23627     23629     23625     23627     23631
     23628     23627     23629     23628     23627     23631     23629     23627     23631
     23627     23629     23630     23627     23631     23632     23627     23631     23633
     23632     23631     23633     23631     23633     23634     23631     23633     23635
     23634     23633     23635     23633     23635     23636     23633     23635     23637
     23633     23635     23638     23636     23635     23637     23636     23635     23638
     23637     23635     23638     23635     23638     23639     23635     23638     23640
     23635     23638     23641     23639     23638     23640     23639     23638     23641
     23640     23638     23641     23638     23641     23642     23638     23641     23643
     23638     23641     23644     23642     23641     23643     23642     23641     23644
     23643     23641     23644     23641     23644     23645     23641     23644     23646
     23641     23644     23647     23645     23644     23646     23645     23644     23647
     23646     23644     23647     23644     23647     23648     23644     23647     23649
     23644     23647     23650     23648     23647     23649     23648     23647     23650
     23649     23647     23650     23647     23650     23651     23647     23650     23652
     23647     23650     23653     23651     23650     23652     23651     23650     23653
     23652     23650     23653     23650     23653     23654     23650     23653     23655
     23650     23653     23656     23654     23653     23655     23654     23653     23656
     23655     23653     23656     23653     23656     23657     23653     23656     23658
     23653     23656     23659     23657     23656     23658     23657     23656     23659
     23658     23656     23659     23656     23659     23660     23656     23659     23661
     23656     23659     23662     23660     23659     23661     23660     23659     23662
     23661     23659     23662     23659     23662     23663     23659     23662     23664
     23659     23662     23665     23663     23662     23664     23663     23662     23665
     23664     23662     23665     23662     23665     23666     23662     23665     23667
     23662     23665     23668     23666     23665     23667     23666     23665     23668
     23667     23665     23668     23665     23668     23669     23665     23668     23670
     23665     23668     23671     23669     23668     23670     23669     23668     23671
     23670     23668     23671     23668     23671     23672     23668     23671     23673
     23668     23671     23674     23672     23671     23673     23672     23671     23674
     23673     23671     23674     23623     23675     23676     23623     23675     23677
     23676     23675     23677     23675     23677     23678     23675     23677     23679
     23675     23677     23680     23678     23677     23679     23678     23677     23680
     23679     23677     23680     23677     23680     23681     23677     23680     23682
     23677     23680     23683     23681     23680     23682     23681     23680     23683
     23682     23680     23683     23680     23683     23684     23680     23683     23685
     23680     23683     23686     23684     23683     23685     23684     23683     23686
     23685     23683     23686     23683     23686     23687     23683     23686     23688
     23683     23686     23689     23687     23686     23688     23687     23686     23689
     23688     23686     23689     23686     23689     23690     23686     23689     23691
     23686     23689     23692     23690     23689     23691     23690     23689     23692
     23691     23689     23692     23689     23692     23693     23689     23692     23694
     23689     23692     23695     23693     23692     23694     23693     23692     23695
     23694     23692     23695     23692     23695     23696     23692     23695     23697
     23692     23695     23698     23696     23695     23697     23696     23695     23698
     23697     23695     23698     23695     23698     23699     23695     23698     23700
     23695     23698     23701     23699     23698     23700     23699     23698     23701
     23700     23698     23701     23698     23701     23702     23698     23701     23703
     23698     23701     23704     23702     23701     23703     23702     23701     23704
     23703     23701     23704     23701     23704     23705     23701     23704     23706
     23701     23704     23707     23705     23704     23706     23705     23704     23707
     23706     23704     23707     23704     23707     23708     23704     23707     23709
     23704     23707     23710     23708     23707     23709     23708     23707     23710
     23709     23707     23710     23707     23710     23711     23707     23710     23712
     23707     23710     23713     23711     23710     23712     23711     23710     23713
     23712     23710     23713     23710     23713     23714     23710     23713     23715
     23710     23713     23716     23714     23713     23715     23714     23713     23716
     23715     23713     23716     23713     23716     23717     23713     23716     23718
     23713     23716     23719     23717     23716     23718     23717     23716     23719
     23718     23716     23719     23716     23719     23720     23716     23719     23721
     23716     23719     23722     23720     23719     23721     23720     23719     23722
     23721     23719     23722     11520     11519     11521     11520     11519     11522
     11520     11519     11523     11521     11519     11522     11521     11519     11523
     11522     11519     11523     11519     11523     11524     11519     11523     11525
     11519     11523     11528     11524     11523     11525     11524     11523     11528
     11525     11523     11528     11523     11525     11526     11523     11525     11527
     11526     11525     11527     11523     11528     11529     11523     11528     11530
     11523     11528     11534     11529     11528     11530     11529     11528     11534
     11530     11528     11534     11532     11531     11533     11532     11531     11534
     11532     11531     11535     11533     11531     11534     11533     11531     11535
     11534     11531     11535     11528     11534     11531     11531     11535     11536
     11535     11536     11537     11535     11536     11538     11535     11536     11539
     11537     11536     11538     11537     11536     11539     11538     11536     11539
     11536     11539     11540     11536     11539     11541     11536     11539     11547
     11540     11539     11541     11540     11539     11547     11541     11539     11547
     11539     11541     11542     11541     11542     11543     11541     11542     11544
     11543     11542     11544     11542     11544     11545     11542     11544     11546
     11542     11544     11556     11545     11544     11546     11545     11544     11556
     11546     11544     11556     11539     11547     11548     11539     11547     11549
     11539     11547     11550     11548     11547     11549     11548     11547     11550
     11549     11547     11550     11547     11550     11551     11550     11551     11552
     11550     11551     11553     11552     11551     11553     11551     11553     11554
     11551     11553     11555     11551     11553     11603     11554     11553     11555
     11554     11553     11603     11555     11553     11603     11544     11556     11557
     11544     11556     11558     11544     11556     11559     11557     11556     11558
     11557     11556     11559     11558     11556     11559     11556     11559     11560
     11556     11559     11561     11556     11559     11562     11560     11559     11561
     11560     11559     11562     11561     11559     11562     11559     11562     11563
     11559     11562     11564     11559     11562     11565     11563     11562     11564
     11563     11562     11565     11564     11562     11565     11562     11565     11566
     11562     11565     11567     11562     11565     11568     11566     11565     11567
     11566     11565     11568     11567     11565     11568     11565     11568     11569
     11565     11568     11570     11565     11568     11571     11569     11568     11570
     11569     11568     11571     11570     11568     11571     11568     11571     11572
     11568     11571     11573     11568     11571     11574     11572     11571     11573
     11572     11571     11574     11573     11571     11574     11571     11574     11575
     11571     11574     11576     11575     11574     11576     11574     11576     11577
     11574     11576     11578     11577     11576     11578     11576     11578     11579
     11576     11578     11580     11576     11578     11581     11579     11578     11580
     11579     11578     11581     11580     11578     11581     11578     11581     11582
     11578     11581     11583     11578     11581     11584     11582     11581     11583
     11582     11581     11584     11583     11581     11584     11581     11584     11585
     11581     11584     11586     11581     11584     11587     11585     11584     11586
     11585     11584     11587     11586     11584     11587     11584     11587     11588
     11584     11587     11589     11584     11587     11590     11588     11587     11589
     11588     11587     11590     11589     11587     11590     11587     11590     11591
     11587     11590     11592     11587     11590     11593     11591     11590     11592
     11591     11590     11593     11592     11590     11593     11590     11593     11594
     11590     11593     11595     11590     11593     11596     11594     11593     11595
     11594     11593     11596     11595     11593     11596     11593     11596     11597
     11593     11596     11598     11593     11596     11599     11597     11596     11598
     11597     11596     11599     11598     11596     11599     11596     11599     11600
     11596     11599     11601     11596     11599     11602     11600     11599     11601
     11600     11599     11602     11601     11599     11602     11553     11603     11604
     11553     11603     11605     11553     11603     11606     11604     11603     11605
     11604     11603     11606     11605     11603     11606     11603     11606     11607
     11603     11606     11608     11603     11606     11609     11607     11606     11608
     11607     11606     11609     11608     11606     11609     11606     11609     11610
     11606     11609     11611     11606     11609     11612     11610     11609     11611
     11610     11609     11612     11611     11609     11612     11609     11612     11613
     11609     11612     11614     11609     11612     11615     11613     11612     11614
     11613     11612     11615     11614     11612     11615     11612     11615     11616
     11612     11615     11617     11612     11615     11618     11616     11615     11617
     11616     11615     11618     11617     11615     11618     11615     11618     11619
     11615     11618     11620     11615     11618     11621     11619     11618     11620
     11619     11618     11621     11620     11618     11621     11618     11621     11622
     11618     11621     11623     11618     11621     11624     11622     11621     11623
     11622     11621     11624     11623     11621     11624     11621     11624     11625
     11621     11624     11626     11621     11624     11627     11625     11624     11626
     11625     11624     11627     11626     11624     11627     11624     11627     11628
     11624     11627     11629     11624     11627     11630     11628     11627     11629
     11628     11627     11630     11629     11627     11630     11627     11630     11631
     11627     11630     11632     11627     11630     11633     11631     11630     11632
     11631     11630     11633     11632     11630     11633     11630     11633     11634
     11630     11633     11635     11630     11633     11636     11634     11633     11635
     11634     11633     11636     11635     11633     11636     11633     11636     11637
     11633     11636     11638     11633     11636     11639     11637     11636     11638
     11637     11636     11639     11638     11636     11639     11636     11639     11640
     11636     11639     11641     11636     11639     11642     11640     11639     11641
     11640     11639     11642     11641     11639     11642     11639     11642     11643
     11639     11642     11644     11639     11642     11645     11643     11642     11644
     11643     11642     11645     11644     11642     11645     23724     23723     23728
     23724     23723     23732     23724     23723     23736     23728     23723     23732
     23728     23723     23736     23732     23723     23736     23723     23724     23725
     23723     23724     23726     23723     23724     23727     23725     23724     23726
     23725     23724     23727     23726     23724     23727     23723     23728     23729
     23723     23728     23730     23723     23728     23731     23729     23728     23730
     23729     23728     23731     23730     23728     23731     23723     23732     23733
     23723     23732     23734     23723     23732     23735     23733     23732     23734
     23733     23732     23735     23734     23732     23735     23723     23736     23737
     23723     23736     23738     23723     23736     23739     23737     23736     23738
     23737     23736     23739     23738     23736     23739     23736     23739     23740
     23736     23739     23741     23736     23739     23746     23740     23739     23741
     23740     23739     23746     23741     23739     23746     23743     23742     23744
     23743     23742     23745     23743     23742     23746     23744     23742     23745
     23744     23742     23746     23745     23742     23746     23742     23745     23747
     23739     23746     23742     23745     23747     23748     23745     23747     23749
     23745     23747     23752     23748     23747     23749     23748     23747     23752
     23749     23747     23752     23751     23750     23752     23751     23750     23802
     23752     23750     23802     23747     23752     23750     23747     23752     23753
     23747     23752     23754     23750     23752     23753     23750     23752     23754
     23753     23752     23754     23752     23754     23755     23752     23754     23756
     23752     23754     23758     23755     23754     23756     23755     23754     23758
     23756     23754     23758     23754     23756     23757     23754     23758     23759
     23754     23758     23760     23759     23758     23760     23758     23760     23761
     23758     23760     23762     23761     23760     23762     23760     23762     23763
     23760     23762     23764     23760     23762     23765     23763     23762     23764
     23763     23762     23765     23764     23762     23765     23762     23765     23766
     23762     23765     23767     23762     23765     23768     23766     23765     23767
     23766     23765     23768     23767     23765     23768     23765     23768     23769
     23765     23768     23770     23765     23768     23771     23769     23768     23770
     23769     23768     23771     23770     23768     23771     23768     23771     23772
     23768     23771     23773     23768     23771     23774     23772     23771     23773
     23772     23771     23774     23773     23771     23774     23771     23774     23775
     23771     23774     23776     23771     23774     23777     23775     23774     23776
     23775     23774     23777     23776     23774     23777     23774     23777     23778
     23774     23777     23779     23774     23777     23780     23778     23777     23779
     23778     23777     23780     23779     23777     23780     23777     23780     23781
     23777     23780     23782     23777     23780     23783     23781     23780     23782
     23781     23780     23783     23782     23780     23783     23780     23783     23784
     23780     23783     23785     23780     23783     23786     23784     23783     23785
     23784     23783     23786     23785     23783     23786     23783     23786     23787
     23783     23786     23788     23783     23786     23789     23787     23786     23788
     23787     23786     23789     23788     23786     23789     23786     23789     23790
     23786     23789     23791     23786     23789     23792     23790     23789     23791
     23790     23789     23792     23791     23789     23792     23789     23792     23793
     23789     23792     23794     23789     23792     23795     23793     23792     23794
     23793     23792     23795     23794     23792     23795     23792     23795     23796
     23792     23795     23797     23792     23795     23798     23796     23795     23797
     23796     23795     23798     23797     23795     23798     23795     23798     23799
     23795     23798     23800     23795     23798     23801     23799     23798     23800
     23799     23798     23801     23800     23798     23801     23750     23802     23803
     23750     23802     23804     23803     23802     23804     23802     23804     23805
     23802     23804     23806     23802     23804     23807     23805     23804     23806
     23805     23804     23807     23806     23804     23807     23804     23807     23808
     23804     23807     23809     23804     23807     23810     23808     23807     23809
     23808     23807     23810     23809     23807     23810     23807     23810     23811
     23807     23810     23812     23807     23810     23813     23811     23810     23812
     23811     23810     23813     23812     23810     23813     23810     23813     23814
     23810     23813     23815     23810     23813     23816     23814     23813     23815
     23814     23813     23816     23815     23813     23816     23813     23816     23817
     23813     23816     23818     23813     23816     23819     23817     23816     23818
     23817     23816     23819     23818     23816     23819     23816     23819     23820
     23816     23819     23821     23816     23819     23822     23820     23819     23821
     23820     23819     23822     23821     23819     23822     23819     23822     23823
     23819     23822     23824     23819     23822     23825     23823     23822     23824
     23823     23822     23825     23824     23822     23825     23822     23825     23826
     23822     23825     23827     23822     23825     23828     23826     23825     23827
     23826     23825     23828     23827     23825     23828     23825     23828     23829
     23825     23828     23830     23825     23828     23831     23829     23828     23830
     23829     23828     23831     23830     23828     23831     23828     23831     23832
     23828     23831     23833     23828     23831     23834     23832     23831     23833
     23832     23831     23834     23833     23831     23834     23831     23834     23835
     23831     23834     23836     23831     23834     23837     23835     23834     23836
     23835     23834     23837     23836     23834     23837     23834     23837     23838
     23834     23837     23839     23834     23837     23840     23838     23837     23839
     23838     23837     23840     23839     23837     23840     23837     23840     23841
     23837     23840     23842     23837     23840     23843     23841     23840     23842
     23841     23840     23843     23842     23840     23843     23840     23843     23844
     23840     23843     23845     23840     23843     23846     23844     23843     23845
     23844     23843     23846     23845     23843     23846     23843     23846     23847
     23843     23846     23848     23843     23846     23849     23847     23846     23848
     23847     23846     23849     23848     23846     23849     23851     23850     23855
     23851     23850     23859     23851     23850     23863     23855     23850     23859
     23855     23850     23863     23859     23850     23863     23850     23851     23852
     23850     23851     23853     23850     23851     23854     23852     23851     23853
     23852     23851     23854     23853     23851     23854     23850     23855     23856
     23850     23855     23857     23850     23855     23858     23856     23855     23857
     23856     23855     23858     23857     23855     23858     23850     23859     23860
     23850     23859     23861     23850     23859     23862     23860     23859     23861
     23860     23859     23862     23861     23859     23862     23850     23863     23864
     23850     23863     23865     23850     23863     23866     23864     23863     23865
     23864     23863     23866     23865     23863     23866     23863     23866     23867
     23863     23866     23868     23863     23866     23873     23867     23866     23868
     23867     23866     23873     23868     23866     23873     23870     23869     23871
     23870     23869     23872     23870     23869     23873     23871     23869     23872
     23871     23869     23873     23872     23869     23873     23869     23872     23874
     23866     23873     23869     23872     23874     23875     23872     23874     23876
     23872     23874     23879     23875     23874     23876     23875     23874     23879
     23876     23874     23879     23878     23877     23879     23878     23877     23929
     23879     23877     23929     23874     23879     23877     23874     23879     23880
     23874     23879     23881     23877     23879     23880     23877     23879     23881
     23880     23879     23881     23879     23881     23882     23879     23881     23883
     23879     23881     23885     23882     23881     23883     23882     23881     23885
     23883     23881     23885     23881     23883     23884     23881     23885     23886
     23881     23885     23887     23886     23885     23887     23885     23887     23888
     23885     23887     23889     23888     23887     23889     23887     23889     23890
     23887     23889     23891     23887     23889     23892     23890     23889     23891
     23890     23889     23892     23891     23889     23892     23889     23892     23893
     23889     23892     23894     23889     23892     23895     23893     23892     23894
     23893     23892     23895     23894     23892     23895     23892     23895     23896
     23892     23895     23897     23892     23895     23898     23896     23895     23897
     23896     23895     23898     23897     23895     23898     23895     23898     23899
     23895     23898     23900     23895     23898     23901     23899     23898     23900
     23899     23898     23901     23900     23898     23901     23898     23901     23902
     23898     23901     23903     23898     23901     23904     23902     23901     23903
     23902     23901     23904     23903     23901     23904     23901     23904     23905
     23901     23904     23906     23901     23904     23907     23905     23904     23906
     23905     23904     23907     23906     23904     23907     23904     23907     23908
     23904     23907     23909     23904     23907     23910     23908     23907     23909
     23908     23907     23910     23909     23907     23910     23907     23910     23911
     23907     23910     23912     23907     23910     23913     23911     23910     23912
     23911     23910     23913     23912     23910     23913     23910     23913     23914
     23910     23913     23915     23910     23913     23916     23914     23913     23915
     23914     23913     23916     23915     23913     23916     23913     23916     23917
     23913     23916     23918     23913     23916     23919     23917     23916     23918
     23917     23916     23919     23918     23916     23919     23916     23919     23920
     23916     23919     23921     23916     23919     23922     23920     23919     23921
     23920     23919     23922     23921     23919     23922     23919     23922     23923
     23919     23922     23924     23919     23922     23925     23923     23922     23924
     23923     23922     23925     23924     23922     23925     23922     23925     23926
     23922     23925     23927     23922     23925     23928     23926     23925     23927
     23926     23925     23928     23927     23925     23928     23877     23929     23930
     23877     23929     23931     23930     23929     23931     23929     23931     23932
     23929     23931     23933     23929     23931     23934     23932     23931     23933
     23932     23931     23934     23933     23931     23934     23931     23934     23935
     23931     23934     23936     23931     23934     23937     23935     23934     23936
     23935     23934     23937     23936     23934     23937     23934     23937     23938
     23934     23937     23939     23934     23937     23940     23938     23937     23939
     23938     23937     23940     23939     23937     23940     23937     23940     23941
     23937     23940     23942     23937     23940     23943     23941     23940     23942
     23941     23940     23943     23942     23940     23943     23940     23943     23944
     23940     23943     23945     23940     23943     23946     23944     23943     23945
     23944     23943     23946     23945     23943     23946     23943     23946     23947
     23943     23946     23948     23943     23946     23949     23947     23946     23948
     23947     23946     23949     23948     23946     23949     23946     23949     23950
     23946     23949     23951     23946     23949     23952     23950     23949     23951
     23950     23949     23952     23951     23949     23952     23949     23952     23953
     23949     23952     23954     23949     23952     23955     23953     23952     23954
     23953     23952     23955     23954     23952     23955     23952     23955     23956
     23952     23955     23957     23952     23955     23958     23956     23955     23957
     23956     23955     23958     23957     23955     23958     23955     23958     23959
     23955     23958     23960     23955     23958     23961     23959     23958     23960
     23959     23958     23961     23960     23958     23961     23958     23961     23962
     23958     23961     23963     23958     23961     23964     23962     23961     23963
     23962     23961     23964     23963     23961     23964     23961     23964     23965
     23961     23964     23966     23961     23964     23967     23965     23964     23966
     23965     23964     23967     23966     23964     23967     23964     23967     23968
     23964     23967     23969     23964     23967     23970     23968     23967     23969
     23968     23967     23970     23969     23967     23970     23967     23970     23971
     23967     23970     23972     23967     23970     23973     23971     23970     23972
     23971     23970     23973     23972     23970     23973     23970     23973     23974
     23970     23973     23975     23970     23973     23976     23974     23973     23975
     23974     23973     23976     23975     23973     23976     23978     23977     23982
     23978     23977     23986     23978     23977     23990     23982     23977     23986
     23982     23977     23990     23986     23977     23990     23977     23978     23979
     23977     23978     23980     23977     23978     23981     23979     23978     23980
     23979     23978     23981     23980     23978     23981     23977     23982     23983
     23977     23982     23984     23977     23982     23985     23983     23982     23984
     23983     23982     23985     23984     23982     23985     23977     23986     23987
     23977     23986     23988     23977     23986     23989     23987     23986     23988
     23987     23986     23989     23988     23986     23989     23977     23990     23991
     23977     23990     23992     23977     23990     23993     23991     23990     23992
     23991     23990     23993     23992     23990     23993     23990     23993     23994
     23990     23993     23995     23990     23993     24000     23994     23993     23995
     23994     23993     24000     23995     23993     24000     23997     23996     23998
     23997     23996     23999     23997     23996     24000     23998     23996     23999
     23998     23996     24000     23999     23996     24000     23996     23999     24001
     23993     24000     23996     23999     24001     24002     23999     24001     24003
     23999     24001     24006     24002     24001     24003     24002     24001     24006
     24003     24001     24006     24005     24004     24006     24005     24004     24056
     24006     24004     24056     24001     24006     24004     24001     24006     24007
     24001     24006     24008     24004     24006     24007     24004     24006     24008
     24007     24006     24008     24006     24008     24009     24006     24008     24010
     24006     24008     24012     24009     24008     24010     24009     24008     24012
     24010     24008     24012     24008     24010     24011     24008     24012     24013
     24008     24012     24014     24013     24012     24014     24012     24014     24015
     24012     24014     24016     24015     24014     24016     24014     24016     24017
     24014     24016     24018     24014     24016     24019     24017     24016     24018
     24017     24016     24019     24018     24016     24019     24016     24019     24020
     24016     24019     24021     24016     24019     24022     24020     24019     24021
     24020     24019     24022     24021     24019     24022     24019     24022     24023
     24019     24022     24024     24019     24022     24025     24023     24022     24024
     24023     24022     24025     24024     24022     24025     24022     24025     24026
     24022     24025     24027     24022     24025     24028     24026     24025     24027
     24026     24025     24028     24027     24025     24028     24025     24028     24029
     24025     24028     24030     24025     24028     24031     24029     24028     24030
     24029     24028     24031     24030     24028     24031     24028     24031     24032
     24028     24031     24033     24028     24031     24034     24032     24031     24033
     24032     24031     24034     24033     24031     24034     24031     24034     24035
     24031     24034     24036     24031     24034     24037     24035     24034     24036
     24035     24034     24037     24036     24034     24037     24034     24037     24038
     24034     24037     24039     24034     24037     24040     24038     24037     24039
     24038     24037     24040     24039     24037     24040     24037     24040     24041
     24037     24040     24042     24037     24040     24043     24041     24040     24042
     24041     24040     24043     24042     24040     24043     24040     24043     24044
     24040     24043     24045     24040     24043     24046     24044     24043     24045
     24044     24043     24046     24045     24043     24046     24043     24046     24047
     24043     24046     24048     24043     24046     24049     24047     24046     24048
     24047     24046     24049     24048     24046     24049     24046     24049     24050
     24046     24049     24051     24046     24049     24052     24050     24049     24051
     24050     24049     24052     24051     24049     24052     24049     24052     24053
     24049     24052     24054     24049     24052     24055     24053     24052     24054
     24053     24052     24055     24054     24052     24055     24004     24056     24057
     24004     24056     24058     24057     24056     24058     24056     24058     24059
     24056     24058     24060     24056     24058     24061     24059     24058     24060
     24059     24058     24061     24060     24058     24061     24058     24061     24062
     24058     24061     24063     24058     24061     24064     24062     24061     24063
     24062     24061     24064     24063     24061     24064     24061     24064     24065
     24061     24064     24066     24061     24064     24067     24065     24064     24066
     24065     24064     24067     24066     24064     24067     24064     24067     24068
     24064     24067     24069     24064     24067     24070     24068     24067     24069
     24068     24067     24070     24069     24067     24070     24067     24070     24071
     24067     24070     24072     24067     24070     24073     24071     24070     24072
     24071     24070     24073     24072     24070     24073     24070     24073     24074
     24070     24073     24075     24070     24073     24076     24074     24073     24075
     24074     24073     24076     24075     24073     24076     24073     24076     24077
     24073     24076     24078     24073     24076     24079     24077     24076     24078
     24077     24076     24079     24078     24076     24079     24076     24079     24080
     24076     24079     24081     24076     24079     24082     24080     24079     24081
     24080     24079     24082     24081     24079     24082     24079     24082     24083
     24079     24082     24084     24079     24082     24085     24083     24082     24084
     24083     24082     24085     24084     24082     24085     24082     24085     24086
     24082     24085     24087     24082     24085     24088     24086     24085     24087
     24086     24085     24088     24087     24085     24088     24085     24088     24089
     24085     24088     24090     24085     24088     24091     24089     24088     24090
     24089     24088     24091     24090     24088     24091     24088     24091     24092
     24088     24091     24093     24088     24091     24094     24092     24091     24093
     24092     24091     24094     24093     24091     24094     24091     24094     24095
     24091     24094     24096     24091     24094     24097     24095     24094     24096
     24095     24094     24097     24096     24094     24097     24094     24097     24098
     24094     24097     24099     24094     24097     24100     24098     24097     24099
     24098     24097     24100     24099     24097     24100     24097     24100     24101
     24097     24100     24102     24097     24100     24103     24101     24100     24102
     24101     24100     24103     24102     24100     24103     24105     24104     24109
     24105     24104     24113     24105     24104     24117     24109     24104     24113
     24109     24104     24117     24113     24104     24117     24104     24105     24106
     24104     24105     24107     24104     24105     24108     24106     24105     24107
     24106     24105     24108     24107     24105     24108     24104     24109     24110
     24104     24109     24111     24104     24109     24112     24110     24109     24111
     24110     24109     24112     24111     24109     24112     24104     24113     24114
     24104     24113     24115     24104     24113     24116     24114     24113     24115
     24114     24113     24116     24115     24113     24116     24104     24117     24118
     24104     24117     24119     24104     24117     24120     24118     24117     24119
     24118     24117     24120     24119     24117     24120     24117     24120     24121
     24117     24120     24122     24117     24120     24127     24121     24120     24122
     24121     24120     24127     24122     24120     24127     24124     24123     24125
     24124     24123     24126     24124     24123     24127     24125     24123     24126
     24125     24123     24127     24126     24123     24127     24123     24126     24128
     24120     24127     24123     24126     24128     24129     24126     24128     24130
     24126     24128     24133     24129     24128     24130     24129     24128     24133
     24130     24128     24133     24132     24131     24133     24132     24131     24183
     24133     24131     24183     24128     24133     24131     24128     24133     24134
     24128     24133     24135     24131     24133     24134     24131     24133     24135
     24134     24133     24135     24133     24135     24136     24133     24135     24137
     24133     24135     24139     24136     24135     24137     24136     24135     24139
     24137     24135     24139     24135     24137     24138     24135     24139     24140
     24135     24139     24141     24140     24139     24141     24139     24141     24142
     24139     24141     24143     24142     24141     24143     24141     24143     24144
     24141     24143     24145     24141     24143     24146     24144     24143     24145
     24144     24143     24146     24145     24143     24146     24143     24146     24147
     24143     24146     24148     24143     24146     24149     24147     24146     24148
     24147     24146     24149     24148     24146     24149     24146     24149     24150
     24146     24149     24151     24146     24149     24152     24150     24149     24151
     24150     24149     24152     24151     24149     24152     24149     24152     24153
     24149     24152     24154     24149     24152     24155     24153     24152     24154
     24153     24152     24155     24154     24152     24155     24152     24155     24156
     24152     24155     24157     24152     24155     24158     24156     24155     24157
     24156     24155     24158     24157     24155     24158     24155     24158     24159
     24155     24158     24160     24155     24158     24161     24159     24158     24160
     24159     24158     24161     24160     24158     24161     24158     24161     24162
     24158     24161     24163     24158     24161     24164     24162     24161     24163
     24162     24161     24164     24163     24161     24164     24161     24164     24165
     24161     24164     24166     24161     24164     24167     24165     24164     24166
     24165     24164     24167     24166     24164     24167     24164     24167     24168
     24164     24167     24169     24164     24167     24170     24168     24167     24169
     24168     24167     24170     24169     24167     24170     24167     24170     24171
     24167     24170     24172     24167     24170     24173     24171     24170     24172
     24171     24170     24173     24172     24170     24173     24170     24173     24174
     24170     24173     24175     24170     24173     24176     24174     24173     24175
     24174     24173     24176     24175     24173     24176     24173     24176     24177
     24173     24176     24178     24173     24176     24179     24177     24176     24178
     24177     24176     24179     24178     24176     24179     24176     24179     24180
     24176     24179     24181     24176     24179     24182     24180     24179     24181
     24180     24179     24182     24181     24179     24182     24131     24183     24184
     24131     24183     24185     24184     24183     24185     24183     24185     24186
     24183     24185     24187     24183     24185     24188     24186     24185     24187
     24186     24185     24188     24187     24185     24188     24185     24188     24189
     24185     24188     24190     24185     24188     24191     24189     24188     24190
     24189     24188     24191     24190     24188     24191     24188     24191     24192
     24188     24191     24193     24188     24191     24194     24192     24191     24193
     24192     24191     24194     24193     24191     24194     24191     24194     24195
     24191     24194     24196     24191     24194     24197     24195     24194     24196
     24195     24194     24197     24196     24194     24197     24194     24197     24198
     24194     24197     24199     24194     24197     24200     24198     24197     24199
     24198     24197     24200     24199     24197     24200     24197     24200     24201
     24197     24200     24202     24197     24200     24203     24201     24200     24202
     24201     24200     24203     24202     24200     24203     24200     24203     24204
     24200     24203     24205     24200     24203     24206     24204     24203     24205
     24204     24203     24206     24205     24203     24206     24203     24206     24207
     24203     24206     24208     24203     24206     24209     24207     24206     24208
     24207     24206     24209     24208     24206     24209     24206     24209     24210
     24206     24209     24211     24206     24209     24212     24210     24209     24211
     24210     24209     24212     24211     24209     24212     24209     24212     24213
     24209     24212     24214     24209     24212     24215     24213     24212     24214
     24213     24212     24215     24214     24212     24215     24212     24215     24216
     24212     24215     24217     24212     24215     24218     24216     24215     24217
     24216     24215     24218     24217     24215     24218     24215     24218     24219
     24215     24218     24220     24215     24218     24221     24219     24218     24220
     24219     24218     24221     24220     24218     24221     24218     24221     24222
     24218     24221     24223     24218     24221     24224     24222     24221     24223
     24222     24221     24224     24223     24221     24224     24221     24224     24225
     24221     24224     24226     24221     24224     24227     24225     24224     24226
     24225     24224     24227     24226     24224     24227     24224     24227     24228
     24224     24227     24229     24224     24227     24230     24228     24227     24229
     24228     24227     24230     24229     24227     24230      5847      5846      5848
      5847      5846      5849      5847      5846      5850      5848      5846      5849
      5848      5846      5850      5849      5846      5850      5846      5850      5851
      5846      5850      5852      5846      5850      5853      5851      5850      5852
      5851      5850      5853      5852      5850      5853      5850      5853      5854
      5850      5853      5855      5850      5853      5860      5854      5853      5855
      5854      5853      5860      5855      5853      5860      5857      5856      5858
      5857      5856      5859      5857      5856      5860      5858      5856      5859
      5858      5856      5860      5859      5856      5860      5856      5859      5861
      5853      5860      5856      5859      5861      5862      5859      5861      5863
      5859      5861      5864      5862      5861      5863      5862      5861      5864
      5863      5861      5864      5861      5864      5865      5861      5864      5866
      5861      5864      5872      5865      5864      5866      5865      5864      5872
      5866      5864      5872      5864      5866      5867      5866      5867      5868
      5866      5867      5869      5868      5867      5869      5867      5869      5870
      5867      5869      5871      5867      5869      5881      5870      5869      5871
      5870      5869      5881      5871      5869      5881      5864      5872      5873
      5864      5872      5874      5864      5872      5875      5873      5872      5874
      5873      5872      5875      5874      5872      5875      5872      5875      5876
      5875      5876      5877      5875      5876      5878      5877      5876      5878
      5876      5878      5879      5876      5878      5880      5876      5878      5928
      5879      5878      5880      5879      5878      5928      5880      5878      5928
      5869      5881      5882      5869      5881      5883      5869      5881      5884
      5882      5881      5883      5882      5881      5884      5883      5881      5884
      5881      5884      5885      5881      5884      5886      5881      5884      5887
      5885      5884      5886      5885      5884      5887      5886      5884      5887
      5884      5887      5888      5884      5887      5889      5884      5887      5890
      5888      5887      5889      5888      5887      5890      5889      5887      5890
      5887      5890      5891      5887      5890      5892      5887      5890      5893
      5891      5890      5892      5891      5890      5893      5892      5890      5893
      5890      5893      5894      5890      5893      5895      5890      5893      5896
      5894      5893      5895      5894      5893      5896      5895      5893      5896
      5893      5896      5897      5893      5896      5898      5893      5896      5899
      5897      5896      5898      5897      5896      5899      5898      5896      5899
      5896      5899      5900      5896      5899      5901      5900      5899      5901
      5899      5901      5902      5899      5901      5903      5902      5901      5903
      5901      5903      5904      5901      5903      5905      5901      5903      5906
      5904      5903      5905      5904      5903      5906      5905      5903      5906
      5903      5906      5907      5903      5906      5908      5903      5906      5909
      5907      5906      5908      5907      5906      5909      5908      5906      5909
      5906      5909      5910      5906      5909      5911      5906      5909      5912
      5910      5909      5911      5910      5909      5912      5911      5909      5912
      5909      5912      5913      5909      5912      5914      5909      5912      5915
      5913      5912      5914      5913      5912      5915      5914      5912      5915
      5912      5915      5916      5912      5915      5917      5912      5915      5918
      5916      5915      5917      5916      5915      5918      5917      5915      5918
      5915      5918      5919      5915      5918      5920      5915      5918      5921
      5919      5918      5920      5919      5918      5921      5920      5918      5921
      5918      5921      5922      5918      5921      5923      5918      5921      5924
      5922      5921      5923      5922      5921      5924      5923      5921      5924
      5921      5924      5925      5921      5924      5926      5921      5924      5927
      5925      5924      5926      5925      5924      5927      5926      5924      5927
      5878      5928      5929      5878      5928      5930      5878      5928      5931
      5929      5928      5930      5929      5928      5931      5930      5928      5931
      5928      5931      5932      5928      5931      5933      5928      5931      5934
      5932      5931      5933      5932      5931      5934      5933      5931      5934
      5931      5934      5935      5931      5934      5936      5931      5934      5937
      5935      5934      5936      5935      5934      5937      5936      5934      5937
      5934      5937      5938      5934      5937      5939      5934      5937      5940
      5938      5937      5939      5938      5937      5940      5939      5937      5940
      5937      5940      5941      5937      5940      5942      5937      5940      5943
      5941      5940      5942      5941      5940      5943      5942      5940      5943
      5940      5943      5944      5940      5943      5945      5940      5943      5946
      5944      5943      5945      5944      5943      5946      5945      5943      5946
      5943      5946      5947      5943      5946      5948      5943      5946      5949
      5947      5946      5948      5947      5946      5949      5948      5946      5949
      5946      5949      5950      5946      5949      5951      5946      5949      5952
      5950      5949      5951      5950      5949      5952      5951      5949      5952
      5949      5952      5953      5949      5952      5954      5949      5952      5955
      5953      5952      5954      5953      5952      5955      5954      5952      5955
      5952      5955      5956      5952      5955      5957      5952      5955      5958
      5956      5955      5957      5956      5955      5958      5957      5955      5958
      5955      5958      5959      5955      5958      5960      5955      5958      5961
      5959      5958      5960      5959      5958      5961      5960      5958      5961
      5958      5961      5962      5958      5961      5963      5958      5961      5964
      5962      5961      5963      5962      5961      5964      5963      5961      5964
      5961      5964      5965      5961      5964      5966      5961      5964      5967
      5965      5964      5966      5965      5964      5967      5966      5964      5967
      5964      5967      5968      5964      5967      5969      5964      5967      5970
      5968      5967      5969      5968      5967      5970      5969      5967      5970
     18510     18509     18513     18510     18509     18517     18510     18509     18521
     18513     18509     18517     18513     18509     18521     18517     18509     18521
     18509     18510     18511     18509     18510     18512     18509     18510     18525
     18511     18510     18512     18511     18510     18525     18512     18510     18525
     18509     18513     18514     18509     18513     18515     18509     18513     18516
     18514     18513     18515     18514     18513     18516     18515     18513     18516
     18509     18517     18518     18509     18517     18519     18509     18517     18520
     18518     18517     18519     18518     18517     18520     18519     18517     18520
     18509     18521     18522     18509     18521     18523     18509     18521     18524
     18522     18521     18523     18522     18521     18524     18523     18521     18524
     18510     18525     18526     18510     18525     18527     18510     18525     18531
     18526     18525     18527     18526     18525     18531     18527     18525     18531
     18529     18528     18530     18529     18528     18531     18529     18528     18532
     18530     18528     18531     18530     18528     18532     18531     18528     18532
     18525     18531     18528     18528     18532     18533     18532     18533     18534
     18532     18533     18535     18532     18533     18536     18534     18533     18535
     18534     18533     18536     18535     18533     18536     18533     18536     18537
     18533     18536     18538     18533     18536     18544     18537     18536     18538
     18537     18536     18544     18538     18536     18544     18536     18538     18539
     18538     18539     18540     18538     18539     18541     18540     18539     18541
     18539     18541     18542     18539     18541     18543     18539     18541     18553
     18542     18541     18543     18542     18541     18553     18543     18541     18553
     18536     18544     18545     18536     18544     18546     18536     18544     18547
     18545     18544     18546     18545     18544     18547     18546     18544     18547
     18544     18547     18548     18547     18548     18549     18547     18548     18550
     18549     18548     18550     18548     18550     18551     18548     18550     18552
     18548     18550     18600     18551     18550     18552     18551     18550     18600
     18552     18550     18600     18541     18553     18554     18541     18553     18555
     18541     18553     18556     18554     18553     18555     18554     18553     18556
     18555     18553     18556     18553     18556     18557     18553     18556     18558
     18553     18556     18559     18557     18556     18558     18557     18556     18559
     18558     18556     18559     18556     18559     18560     18556     18559     18561
     18556     18559     18562     18560     18559     18561     18560     18559     18562
     18561     18559     18562     18559     18562     18563     18559     18562     18564
     18559     18562     18565     18563     18562     18564     18563     18562     18565
     18564     18562     18565     18562     18565     18566     18562     18565     18567
     18562     18565     18568     18566     18565     18567     18566     18565     18568
     18567     18565     18568     18565     18568     18569     18565     18568     18570
     18565     18568     18571     18569     18568     18570     18569     18568     18571
     18570     18568     18571     18568     18571     18572     18568     18571     18573
     18572     18571     18573     18571     18573     18574     18571     18573     18575
     18574     18573     18575     18573     18575     18576     18573     18575     18577
     18573     18575     18578     18576     18575     18577     18576     18575     18578
     18577     18575     18578     18575     18578     18579     18575     18578     18580
     18575     18578     18581     18579     18578     18580     18579     18578     18581
     18580     18578     18581     18578     18581     18582     18578     18581     18583
     18578     18581     18584     18582     18581     18583     18582     18581     18584
     18583     18581     18584     18581     18584     18585     18581     18584     18586
     18581     18584     18587     18585     18584     18586     18585     18584     18587
     18586     18584     18587     18584     18587     18588     18584     18587     18589
     18584     18587     18590     18588     18587     18589     18588     18587     18590
     18589     18587     18590     18587     18590     18591     18587     18590     18592
     18587     18590     18593     18591     18590     18592     18591     18590     18593
     18592     18590     18593     18590     18593     18594     18590     18593     18595
     18590     18593     18596     18594     18593     18595     18594     18593     18596
     18595     18593     18596     18593     18596     18597     18593     18596     18598
     18593     18596     18599     18597     18596     18598     18597     18596     18599
     18598     18596     18599     18550     18600     18601     18550     18600     18602
     18550     18600     18603     18601     18600     18602     18601     18600     18603
     18602     18600     18603     18600     18603     18604     18600     18603     18605
     18600     18603     18606     18604     18603     18605     18604     18603     18606
     18605     18603     18606     18603     18606     18607     18603     18606     18608
     18603     18606     18609     18607     18606     18608     18607     18606     18609
     18608     18606     18609     18606     18609     18610     18606     18609     18611
     18606     18609     18612     18610     18609     18611     18610     18609     18612
     18611     18609     18612     18609     18612     18613     18609     18612     18614
     18609     18612     18615     18613     18612     18614     18613     18612     18615
     18614     18612     18615     18612     18615     18616     18612     18615     18617
     18612     18615     18618     18616     18615     18617     18616     18615     18618
     18617     18615     18618     18615     18618     18619     18615     18618     18620
     18615     18618     18621     18619     18618     18620     18619     18618     18621
     18620     18618     18621     18618     18621     18622     18618     18621     18623
     18618     18621     18624     18622     18621     18623     18622     18621     18624
     18623     18621     18624     18621     18624     18625     18621     18624     18626
     18621     18624     18627     18625     18624     18626     18625     18624     18627
     18626     18624     18627     18624     18627     18628     18624     18627     18629
     18624     18627     18630     18628     18627     18629     18628     18627     18630
     18629     18627     18630     18627     18630     18631     18627     18630     18632
     18627     18630     18633     18631     18630     18632     18631     18630     18633
     18632     18630     18633     18630     18633     18634     18630     18633     18635
     18630     18633     18636     18634     18633     18635     18634     18633     18636
     18635     18633     18636     18633     18636     18637     18633     18636     18638
     18633     18636     18639     18637     18636     18638     18637     18636     18639
     18638     18636     18639     18636     18639     18640     18636     18639     18641
     18636     18639     18642     18640     18639     18641     18640     18639     18642
     18641     18639     18642     22277     22276     22278     22277     22276     22280
     22277     22276     22296     22278     22276     22280     22278     22276     22296
     22280     22276     22296     22276     22278     22279     22276     22280     22281
     22276     22280     22282     22276     22280     22284     22281     22280     22282
     22281     22280     22284     22282     22280     22284     22280     22282     22283
     22280     22284     22285     22280     22284     22286     22280     22284     22288
     22285     22284     22286     22285     22284     22288     22286     22284     22288
     22284     22286     22287     22284     22288     22289     22284     22288     22290
     22284     22288     22292     22289     22288     22290     22289     22288     22292
     22290     22288     22292     22288     22290     22291     22288     22292     22293
     22288     22292     22294     22288     22292     22296     22293     22292     22294
     22293     22292     22296     22294     22292     22296     22292     22294     22295
     22276     22296     22292     22276     22296     22297     22276     22296     22301
     22292     22296     22297     22292     22296     22301     22297     22296     22301
     22299     22298     22300     22299     22298     22301     22299     22298     22302
     22300     22298     22301     22300     22298     22302     22301     22298     22302
     22296     22301     22298     22298     22302     22303     22302     22303     22304
     22302     22303     22305     22302     22303     22306     22304     22303     22305
     22304     22303     22306     22305     22303     22306     22303     22306     22307
     22303     22306     22308     22303     22306     22314     22307     22306     22308
     22307     22306     22314     22308     22306     22314     22306     22308     22309
     22308     22309     22310     22308     22309     22311     22310     22309     22311
     22309     22311     22312     22309     22311     22313     22309     22311     22323
     22312     22311     22313     22312     22311     22323     22313     22311     22323
     22306     22314     22315     22306     22314     22316     22306     22314     22317
     22315     22314     22316     22315     22314     22317     22316     22314     22317
     22314     22317     22318     22317     22318     22319     22317     22318     22320
     22319     22318     22320     22318     22320     22321     22318     22320     22322
     22318     22320     22370     22321     22320     22322     22321     22320     22370
     22322     22320     22370     22311     22323     22324     22311     22323     22325
     22311     22323     22326     22324     22323     22325     22324     22323     22326
     22325     22323     22326     22323     22326     22327     22323     22326     22328
     22323     22326     22329     22327     22326     22328     22327     22326     22329
     22328     22326     22329     22326     22329     22330     22326     22329     22331
     22326     22329     22332     22330     22329     22331     22330     22329     22332
     22331     22329     22332     22329     22332     22333     22329     22332     22334
     22329     22332     22335     22333     22332     22334     22333     22332     22335
     22334     22332     22335     22332     22335     22336     22332     22335     22337
     22332     22335     22338     22336     22335     22337     22336     22335     22338
     22337     22335     22338     22335     22338     22339     22335     22338     22340
     22335     22338     22341     22339     22338     22340     22339     22338     22341
     22340     22338     22341     22338     22341     22342     22338     22341     22343
     22342     22341     22343     22341     22343     22344     22341     22343     22345
     22344     22343     22345     22343     22345     22346     22343     22345     22347
     22343     22345     22348     22346     22345     22347     22346     22345     22348
     22347     22345     22348     22345     22348     22349     22345     22348     22350
     22345     22348     22351     22349     22348     22350     22349     22348     22351
     22350     22348     22351     22348     22351     22352     22348     22351     22353
     22348     22351     22354     22352     22351     22353     22352     22351     22354
     22353     22351     22354     22351     22354     22355     22351     22354     22356
     22351     22354     22357     22355     22354     22356     22355     22354     22357
     22356     22354     22357     22354     22357     22358     22354     22357     22359
     22354     22357     22360     22358     22357     22359     22358     22357     22360
     22359     22357     22360     22357     22360     22361     22357     22360     22362
     22357     22360     22363     22361     22360     22362     22361     22360     22363
     22362     22360     22363     22360     22363     22364     22360     22363     22365
     22360     22363     22366     22364     22363     22365     22364     22363     22366
     22365     22363     22366     22363     22366     22367     22363     22366     22368
     22363     22366     22369     22367     22366     22368     22367     22366     22369
     22368     22366     22369     22320     22370     22371     22320     22370     22372
     22320     22370     22373     22371     22370     22372     22371     22370     22373
     22372     22370     22373     22370     22373     22374     22370     22373     22375
     22370     22373     22376     22374     22373     22375     22374     22373     22376
     22375     22373     22376     22373     22376     22377     22373     22376     22378
     22373     22376     22379     22377     22376     22378     22377     22376     22379
     22378     22376     22379     22376     22379     22380     22376     22379     22381
     22376     22379     22382     22380     22379     22381     22380     22379     22382
     22381     22379     22382     22379     22382     22383     22379     22382     22384
     22379     22382     22385     22383     22382     22384     22383     22382     22385
     22384     22382     22385     22382     22385     22386     22382     22385     22387
     22382     22385     22388     22386     22385     22387     22386     22385     22388
     22387     22385     22388     22385     22388     22389     22385     22388     22390
     22385     22388     22391     22389     22388     22390     22389     22388     22391
     22390     22388     22391     22388     22391     22392     22388     22391     22393
     22388     22391     22394     22392     22391     22393     22392     22391     22394
     22393     22391     22394     22391     22394     22395     22391     22394     22396
     22391     22394     22397     22395     22394     22396     22395     22394     22397
     22396     22394     22397     22394     22397     22398     22394     22397     22399
     22394     22397     22400     22398     22397     22399     22398     22397     22400
     22399     22397     22400     22397     22400     22401     22397     22400     22402
     22397     22400     22403     22401     22400     22402     22401     22400     22403
     22402     22400     22403     22400     22403     22404     22400     22403     22405
     22400     22403     22406     22404     22403     22405     22404     22403     22406
     22405     22403     22406     22403     22406     22407     22403     22406     22408
     22403     22406     22409     22407     22406     22408     22407     22406     22409
     22408     22406     22409     22406     22409     22410     22406     22409     22411
     22406     22409     22412     22410     22409     22411     22410     22409     22412
     22411     22409     22412      1408      1407      1409      1408      1407      1411
      1408      1407      1453      1409      1407      1411      1409      1407      1453
      1411      1407      1453      1407      1409      1410      1407      1411      1412
      1407      1411      1413      1407      1411      1414      1412      1411      1413
      1412      1411      1414      1413      1411      1414      1411      1414      1415
      1411      1414      1445      1415      1414      1445      1414      1415      1416
      1414      1415      1417      1416      1415      1417      1415      1417      1418
      1415      1417      1419      1415      1417      1420      1418      1417      1419
      1418      1417      1420      1419      1417      1420      1417      1420      1421
      1417      1420      1422      1417      1420      1443      1421      1420      1422
      1421      1420      1443      1422      1420      1443      1420      1422      1423
      1420      1422      1424      1420      1422      1432      1423      1422      1424
      1423      1422      1432      1424      1422      1432      1422      1424      1425
      1422      1424      1426      1422      1424      1427      1425      1424      1426
      1425      1424      1427      1426      1424      1427      1424      1427      1428
      1424      1427      1429      1424      1427      1430      1428      1427      1429
      1428      1427      1430      1429      1427      1430      1427      1430      1431
      1427      1430      1432      1427      1430      1456      1431      1430      1432
      1431      1430      1456      1432      1430      1456      1422      1432      1430
      1422      1432      1433      1422      1432      1437      1430      1432      1433
      1430      1432      1437      1433      1432      1437      1432      1433      1434
      1432      1433      1435      1432      1433      1436      1434      1433      1435
      1434      1433      1436      1435      1433      1436      1432      1437      1438
      1432      1437      1439      1432      1437      1440      1438      1437      1439
      1438      1437      1440      1439      1437      1440      1437      1440      1441
      1437      1440      1442      1437      1440      1443      1441      1440      1442
      1441      1440      1443      1442      1440      1443      1420      1443      1440
      1420      1443      1444      1420      1443      1445      1440      1443      1444
      1440      1443      1445      1444      1443      1445      1414      1445      1443
      1414      1445      1446      1414      1445      1450      1443      1445      1446
      1443      1445      1450      1446      1445      1450      1445      1446      1447
      1445      1446      1448      1445      1446      1449      1447      1446      1448
      1447      1446      1449      1448      1446      1449      1445      1450      1451
      1445      1450      1452      1445      1450      1453      1451      1450      1452
      1451      1450      1453      1452      1450      1453      1407      1453      1450
      1407      1453      1454      1407      1453      1455      1450      1453      1454
      1450      1453      1455      1454      1453      1455      1430      1456      1457
      1430      1456      1458      1430      1456      1462      1457      1456      1458
      1457      1456      1462      1458      1456      1462      1456      1458      1459
      1456      1458      1460      1456      1458      1461      1459      1458      1460
      1459      1458      1461      1460      1458      1461      1456      1462      1463
      1456      1462      1464      1456      1462      1465      1463      1462      1464
      1463      1462      1465      1464      1462      1465      1462      1465      1466
      1462      1465      1467      1462      1465      1468      1466      1465      1467
      1466      1465      1468      1467      1465      1468      1465      1468      1469
      1465      1468      1470      1465      1468      1471      1469      1468      1470
      1469      1468      1471      1470      1468      1471      1468      1471      1472
      1468      1471      1473      1468      1471      1477      1472      1471      1473
      1472      1471      1477      1473      1471      1477      1471      1473      1474
      1471      1473      1475      1471      1473      1476      1474      1473      1475
      1474      1473      1476      1475      1473      1476      1471      1477      1478
      1471      1477      1479      1471      1477      1480      1478      1477      1479
      1478      1477      1480      1479      1477      1480     11647     11646     11648
     11647     11646     11649     11647     11646     11650     11648     11646     11649
     11648     11646     11650     11649     11646     11650     11646     11650     11651
     11646     11650     11652     11646     11650     11655     11651     11650     11652
     11651     11650     11655     11652     11650     11655     11650     11652     11653
     11650     11652     11654     11653     11652     11654     11650     11655     11656
     11650     11655     11657     11650     11655     11661     11656     11655     11657
     11656     11655     11661     11657     11655     11661     11659     11658     11660
     11659     11658     11661     11659     11658     11662     11660     11658     11661
     11660     11658     11662     11661     11658     11662     11655     11661     11658
     11658     11662     11663     11662     11663     11664     11662     11663     11665
     11662     11663     11666     11664     11663     11665     11664     11663     11666
     11665     11663     11666     11663     11666     11667     11663     11666     11668
     11663     11666     11674     11667     11666     11668     11667     11666     11674
     11668     11666     11674     11666     11668     11669     11668     11669     11670
     11668     11669     11671     11670     11669     11671     11669     11671     11672
     11669     11671     11673     11669     11671     11683     11672     11671     11673
     11672     11671     11683     11673     11671     11683     11666     11674     11675
     11666     11674     11676     11666     11674     11677     11675     11674     11676
     11675     11674     11677     11676     11674     11677     11674     11677     11678
     11677     11678     11679     11677     11678     11680     11679     11678     11680
     11678     11680     11681     11678     11680     11682     11678     11680     11730
     11681     11680     11682     11681     11680     11730     11682     11680     11730
     11671     11683     11684     11671     11683     11685     11671     11683     11686
     11684     11683     11685     11684     11683     11686     11685     11683     11686
     11683     11686     11687     11683     11686     11688     11683     11686     11689
     11687     11686     11688     11687     11686     11689     11688     11686     11689
     11686     11689     11690     11686     11689     11691     11686     11689     11692
     11690     11689     11691     11690     11689     11692     11691     11689     11692
     11689     11692     11693     11689     11692     11694     11689     11692     11695
     11693     11692     11694     11693     11692     11695     11694     11692     11695
     11692     11695     11696     11692     11695     11697     11692     11695     11698
     11696     11695     11697     11696     11695     11698     11697     11695     11698
     11695     11698     11699     11695     11698     11700     11695     11698     11701
     11699     11698     11700     11699     11698     11701     11700     11698     11701
     11698     11701     11702     11698     11701     11703     11702     11701     11703
     11701     11703     11704     11701     11703     11705     11704     11703     11705
     11703     11705     11706     11703     11705     11707     11703     11705     11708
     11706     11705     11707     11706     11705     11708     11707     11705     11708
     11705     11708     11709     11705     11708     11710     11705     11708     11711
     11709     11708     11710     11709     11708     11711     11710     11708     11711
     11708     11711     11712     11708     11711     11713     11708     11711     11714
     11712     11711     11713     11712     11711     11714     11713     11711     11714
     11711     11714     11715     11711     11714     11716     11711     11714     11717
     11715     11714     11716     11715     11714     11717     11716     11714     11717
     11714     11717     11718     11714     11717     11719     11714     11717     11720
     11718     11717     11719     11718     11717     11720     11719     11717     11720
     11717     11720     11721     11717     11720     11722     11717     11720     11723
     11721     11720     11722     11721     11720     11723     11722     11720     11723
     11720     11723     11724     11720     11723     11725     11720     11723     11726
     11724     11723     11725     11724     11723     11726     11725     11723     11726
     11723     11726     11727     11723     11726     11728     11723     11726     11729
     11727     11726     11728     11727     11726     11729     11728     11726     11729
     11680     11730     11731     11680     11730     11732     11680     11730     11733
     11731     11730     11732     11731     11730     11733     11732     11730     11733
     11730     11733     11734     11730     11733     11735     11730     11733     11736
     11734     11733     11735     11734     11733     11736     11735     11733     11736
     11733     11736     11737     11733     11736     11738     11733     11736     11739
     11737     11736     11738     11737     11736     11739     11738     11736     11739
     11736     11739     11740     11736     11739     11741     11736     11739     11742
     11740     11739     11741     11740     11739     11742     11741     11739     11742
     11739     11742     11743     11739     11742     11744     11739     11742     11745
     11743     11742     11744     11743     11742     11745     11744     11742     11745
     11742     11745     11746     11742     11745     11747     11742     11745     11748
     11746     11745     11747     11746     11745     11748     11747     11745     11748
     11745     11748     11749     11745     11748     11750     11745     11748     11751
     11749     11748     11750     11749     11748     11751     11750     11748     11751
     11748     11751     11752     11748     11751     11753     11748     11751     11754
     11752     11751     11753     11752     11751     11754     11753     11751     11754
     11751     11754     11755     11751     11754     11756     11751     11754     11757
     11755     11754     11756     11755     11754     11757     11756     11754     11757
     11754     11757     11758     11754     11757     11759     11754     11757     11760
     11758     11757     11759     11758     11757     11760     11759     11757     11760
     11757     11760     11761     11757     11760     11762     11757     11760     11763
     11761     11760     11762     11761     11760     11763     11762     11760     11763
     11760     11763     11764     11760     11763     11765     11760     11763     11766
     11764     11763     11765     11764     11763     11766     11765     11763     11766
     11763     11766     11767     11763     11766     11768     11763     11766     11769
     11767     11766     11768     11767     11766     11769     11768     11766     11769
     11766     11769     11770     11766     11769     11771     11766     11769     11772
     11770     11769     11771     11770     11769     11772     11771     11769     11772
      5972      5971      5973      5972      5971      5974      5972      5971      5975
      5973      5971      5974      5973      5971      5975      5974      5971      5975
      5971      5975      5976      5971      5975      5977      5971      5975      5978
      5976      5975      5977      5976      5975      5978      5977      5975      5978
      5975      5978      5979      5975      5978      5980      5975      5978      5985
      5979      5978      5980      5979      5978      5985      5980      5978      5985
      5982      5981      5983      5982      5981      5984      5982      5981      5985
      5983      5981      5984      5983      5981      5985      5984      5981      5985
      5981      5984      5986      5978      5985      5981      5984      5986      5987
      5984      5986      5988      5984      5986      5989      5987      5986      5988
      5987      5986      5989      5988      5986      5989      5986      5989      5990
      5986      5989      5991      5986      5989      5997      5990      5989      5991
      5990      5989      5997      5991      5989      5997      5989      5991      5992
      5991      5992      5993      5991      5992      5994      5993      5992      5994
      5992      5994      5995      5992      5994      5996      5992      5994      6006
      5995      5994      5996      5995      5994      6006      5996      5994      6006
      5989      5997      5998      5989      5997      5999      5989      5997      6000
      5998      5997      5999      5998      5997      6000      5999      5997      6000
      5997      6000      6001      6000      6001      6002      6000      6001      6003
      6002      6001      6003      6001      6003      6004      6001      6003      6005
      6001      6003      6053      6004      6003      6005      6004      6003      6053
      6005      6003      6053      5994      6006      6007      5994      6006      6008
      5994      6006      6009      6007      6006      6008      6007      6006      6009
      6008      6006      6009      6006      6009      6010      6006      6009      6011
      6006      6009      6012      6010      6009      6011      6010      6009      6012
      6011      6009      6012      6009      6012      6013      6009      6012      6014
      6009      6012      6015      6013      6012      6014      6013      6012      6015
      6014      6012      6015      6012      6015      6016      6012      6015      6017
      6012      6015      6018      6016      6015      6017      6016      6015      6018
      6017      6015      6018      6015      6018      6019      6015      6018      6020
      6015      6018      6021      6019      6018      6020      6019      6018      6021
      6020      6018      6021      6018      6021      6022      6018      6021      6023
      6018      6021      6024      6022      6021      6023      6022      6021      6024
      6023      6021      6024      6021      6024      6025      6021      6024      6026
      6025      6024      6026      6024      6026      6027      6024      6026      6028
      6027      6026      6028      6026      6028      6029      6026      6028      6030
      6026      6028      6031      6029      6028      6030      6029      6028      6031
      6030      6028      6031      6028      6031      6032      6028      6031      6033
      6028      6031      6034      6032      6031      6033      6032      6031      6034
      6033      6031      6034      6031      6034      6035      6031      6034      6036
      6031      6034      6037      6035      6034      6036      6035      6034      6037
      6036      6034      6037      6034      6037      6038      6034      6037      6039
      6034      6037      6040      6038      6037      6039      6038      6037      6040
      6039      6037      6040      6037      6040      6041      6037      6040      6042
      6037      6040      6043      6041      6040      6042      6041      6040      6043
      6042      6040      6043      6040      6043      6044      6040      6043      6045
      6040      6043      6046      6044      6043      6045      6044      6043      6046
      6045      6043      6046      6043      6046      6047      6043      6046      6048
      6043      6046      6049      6047      6046      6048      6047      6046      6049
      6048      6046      6049      6046      6049      6050      6046      6049      6051
      6046      6049      6052      6050      6049      6051      6050      6049      6052
      6051      6049      6052      6003      6053      6054      6003      6053      6055
      6003      6053      6056      6054      6053      6055      6054      6053      6056
      6055      6053      6056      6053      6056      6057      6053      6056      6058
      6053      6056      6059      6057      6056      6058      6057      6056      6059
      6058      6056      6059      6056      6059      6060      6056      6059      6061
      6056      6059      6062      6060      6059      6061      6060      6059      6062
      6061      6059      6062      6059      6062      6063      6059      6062      6064
      6059      6062      6065      6063      6062      6064      6063      6062      6065
      6064      6062      6065      6062      6065      6066      6062      6065      6067
      6062      6065      6068      6066      6065      6067      6066      6065      6068
      6067      6065      6068      6065      6068      6069      6065      6068      6070
      6065      6068      6071      6069      6068      6070      6069      6068      6071
      6070      6068      6071      6068      6071      6072      6068      6071      6073
      6068      6071      6074      6072      6071      6073      6072      6071      6074
      6073      6071      6074      6071      6074      6075      6071      6074      6076
      6071      6074      6077      6075      6074      6076      6075      6074      6077
      6076      6074      6077      6074      6077      6078      6074      6077      6079
      6074      6077      6080      6078      6077      6079      6078      6077      6080
      6079      6077      6080      6077      6080      6081      6077      6080      6082
      6077      6080      6083      6081      6080      6082      6081      6080      6083
      6082      6080      6083      6080      6083      6084      6080      6083      6085
      6080      6083      6086      6084      6083      6085      6084      6083      6086
      6085      6083      6086      6083      6086      6087      6083      6086      6088
      6083      6086      6089      6087      6086      6088      6087      6086      6089
      6088      6086      6089      6086      6089      6090      6086      6089      6091
      6086      6089      6092      6090      6089      6091      6090      6089      6092
      6091      6089      6092      6089      6092      6093      6089      6092      6094
      6089      6092      6095      6093      6092      6094      6093      6092      6095
      6094      6092      6095     18644     18643     18647     18644     18643     18651
     18644     18643     18655     18647     18643     18651     18647     18643     18655
     18651     18643     18655     18643     18644     18645     18643     18644     18646
     18643     18644     18659     18645     18644     18646     18645     18644     18659
     18646     18644     18659     18643     18647     18648     18643     18647     18649
     18643     18647     18650     18648     18647     18649     18648     18647     18650
     18649     18647     18650     18643     18651     18652     18643     18651     18653
     18643     18651     18654     18652     18651     18653     18652     18651     18654
     18653     18651     18654     18643     18655     18656     18643     18655     18657
     18643     18655     18658     18656     18655     18657     18656     18655     18658
     18657     18655     18658     18644     18659     18660     18644     18659     18661
     18644     18659     18665     18660     18659     18661     18660     18659     18665
     18661     18659     18665     18663     18662     18664     18663     18662     18665
     18663     18662     18666     18664     18662     18665     18664     18662     18666
     18665     18662     18666     18659     18665     18662     18662     18666     18667
     18666     18667     18668     18666     18667     18669     18666     18667     18670
     18668     18667     18669     18668     18667     18670     18669     18667     18670
     18667     18670     18671     18667     18670     18672     18667     18670     18678
     18671     18670     18672     18671     18670     18678     18672     18670     18678
     18670     18672     18673     18672     18673     18674     18672     18673     18675
     18674     18673     18675     18673     18675     18676     18673     18675     18677
     18673     18675     18687     18676     18675     18677     18676     18675     18687
     18677     18675     18687     18670     18678     18679     18670     18678     18680
     18670     18678     18681     18679     18678     18680     18679     18678     18681
     18680     18678     18681     18678     18681     18682     18681     18682     18683
     18681     18682     18684     18683     18682     18684     18682     18684     18685
     18682     18684     18686     18682     18684     18734     18685     18684     18686
     18685     18684     18734     18686     18684     18734     18675     18687     18688
     18675     18687     18689     18675     18687     18690     18688     18687     18689
     18688     18687     18690     18689     18687     18690     18687     18690     18691
     18687     18690     18692     18687     18690     18693     18691     18690     18692
     18691     18690     18693     18692     18690     18693     18690     18693     18694
     18690     18693     18695     18690     18693     18696     18694     18693     18695
     18694     18693     18696     18695     18693     18696     18693     18696     18697
     18693     18696     18698     18693     18696     18699     18697     18696     18698
     18697     18696     18699     18698     18696     18699     18696     18699     18700
     18696     18699     18701     18696     18699     18702     18700     18699     18701
     18700     18699     18702     18701     18699     18702     18699     18702     18703
     18699     18702     18704     18699     18702     18705     18703     18702     18704
     18703     18702     18705     18704     18702     18705     18702     18705     18706
     18702     18705     18707     18706     18705     18707     18705     18707     18708
     18705     18707     18709     18708     18707     18709     18707     18709     18710
     18707     18709     18711     18707     18709     18712     18710     18709     18711
     18710     18709     18712     18711     18709     18712     18709     18712     18713
     18709     18712     18714     18709     18712     18715     18713     18712     18714
     18713     18712     18715     18714     18712     18715     18712     18715     18716
     18712     18715     18717     18712     18715     18718     18716     18715     18717
     18716     18715     18718     18717     18715     18718     18715     18718     18719
     18715     18718     18720     18715     18718     18721     18719     18718     18720
     18719     18718     18721     18720     18718     18721     18718     18721     18722
     18718     18721     18723     18718     18721     18724     18722     18721     18723
     18722     18721     18724     18723     18721     18724     18721     18724     18725
     18721     18724     18726     18721     18724     18727     18725     18724     18726
     18725     18724     18727     18726     18724     18727     18724     18727     18728
     18724     18727     18729     18724     18727     18730     18728     18727     18729
     18728     18727     18730     18729     18727     18730     18727     18730     18731
     18727     18730     18732     18727     18730     18733     18731     18730     18732
     18731     18730     18733     18732     18730     18733     18684     18734     18735
     18684     18734     18736     18684     18734     18737     18735     18734     18736
     18735     18734     18737     18736     18734     18737     18734     18737     18738
     18734     18737     18739     18734     18737     18740     18738     18737     18739
     18738     18737     18740     18739     18737     18740     18737     18740     18741
     18737     18740     18742     18737     18740     18743     18741     18740     18742
     18741     18740     18743     18742     18740     18743     18740     18743     18744
     18740     18743     18745     18740     18743     18746     18744     18743     18745
     18744     18743     18746     18745     18743     18746     18743     18746     18747
     18743     18746     18748     18743     18746     18749     18747     18746     18748
     18747     18746     18749     18748     18746     18749     18746     18749     18750
     18746     18749     18751     18746     18749     18752     18750     18749     18751
     18750     18749     18752     18751     18749     18752     18749     18752     18753
     18749     18752     18754     18749     18752     18755     18753     18752     18754
     18753     18752     18755     18754     18752     18755     18752     18755     18756
     18752     18755     18757     18752     18755     18758     18756     18755     18757
     18756     18755     18758     18757     18755     18758     18755     18758     18759
     18755     18758     18760     18755     18758     18761     18759     18758     18760
     18759     18758     18761     18760     18758     18761     18758     18761     18762
     18758     18761     18763     18758     18761     18764     18762     18761     18763
     18762     18761     18764     18763     18761     18764     18761     18764     18765
     18761     18764     18766     18761     18764     18767     18765     18764     18766
     18765     18764     18767     18766     18764     18767     18764     18767     18768
     18764     18767     18769     18764     18767     18770     18768     18767     18769
     18768     18767     18770     18769     18767     18770     18767     18770     18771
     18767     18770     18772     18767     18770     18773     18771     18770     18772
     18771     18770     18773     18772     18770     18773     18770     18773     18774
     18770     18773     18775     18770     18773     18776     18774     18773     18775
     18774     18773     18776     18775     18773     18776     18778     18777     18781
     18778     18777     18785     18778     18777     18789     18781     18777     18785
     18781     18777     18789     18785     18777     18789     18777     18778     18779
     18777     18778     18780     18777     18778     18793     18779     18778     18780
     18779     18778     18793     18780     18778     18793     18777     18781     18782
     18777     18781     18783     18777     18781     18784     18782     18781     18783
     18782     18781     18784     18783     18781     18784     18777     18785     18786
     18777     18785     18787     18777     18785     18788     18786     18785     18787
     18786     18785     18788     18787     18785     18788     18777     18789     18790
     18777     18789     18791     18777     18789     18792     18790     18789     18791
     18790     18789     18792     18791     18789     18792     18778     18793     18794
     18778     18793     18795     18778     18793     18799     18794     18793     18795
     18794     18793     18799     18795     18793     18799     18797     18796     18798
     18797     18796     18799     18797     18796     18800     18798     18796     18799
     18798     18796     18800     18799     18796     18800     18793     18799     18796
     18796     18800     18801     18800     18801     18802     18800     18801     18803
     18800     18801     18804     18802     18801     18803     18802     18801     18804
     18803     18801     18804     18801     18804     18805     18801     18804     18806
     18801     18804     18812     18805     18804     18806     18805     18804     18812
     18806     18804     18812     18804     18806     18807     18806     18807     18808
     18806     18807     18809     18808     18807     18809     18807     18809     18810
     18807     18809     18811     18807     18809     18821     18810     18809     18811
     18810     18809     18821     18811     18809     18821     18804     18812     18813
     18804     18812     18814     18804     18812     18815     18813     18812     18814
     18813     18812     18815     18814     18812     18815     18812     18815     18816
     18815     18816     18817     18815     18816     18818     18817     18816     18818
     18816     18818     18819     18816     18818     18820     18816     18818     18868
     18819     18818     18820     18819     18818     18868     18820     18818     18868
     18809     18821     18822     18809     18821     18823     18809     18821     18824
     18822     18821     18823     18822     18821     18824     18823     18821     18824
     18821     18824     18825     18821     18824     18826     18821     18824     18827
     18825     18824     18826     18825     18824     18827     18826     18824     18827
     18824     18827     18828     18824     18827     18829     18824     18827     18830
     18828     18827     18829     18828     18827     18830     18829     18827     18830
     18827     18830     18831     18827     18830     18832     18827     18830     18833
     18831     18830     18832     18831     18830     18833     18832     18830     18833
     18830     18833     18834     18830     18833     18835     18830     18833     18836
     18834     18833     18835     18834     18833     18836     18835     18833     18836
     18833     18836     18837     18833     18836     18838     18833     18836     18839
     18837     18836     18838     18837     18836     18839     18838     18836     18839
     18836     18839     18840     18836     18839     18841     18840     18839     18841
     18839     18841     18842     18839     18841     18843     18842     18841     18843
     18841     18843     18844     18841     18843     18845     18841     18843     18846
     18844     18843     18845     18844     18843     18846     18845     18843     18846
     18843     18846     18847     18843     18846     18848     18843     18846     18849
     18847     18846     18848     18847     18846     18849     18848     18846     18849
     18846     18849     18850     18846     18849     18851     18846     18849     18852
     18850     18849     18851     18850     18849     18852     18851     18849     18852
     18849     18852     18853     18849     18852     18854     18849     18852     18855
     18853     18852     18854     18853     18852     18855     18854     18852     18855
     18852     18855     18856     18852     18855     18857     18852     18855     18858
     18856     18855     18857     18856     18855     18858     18857     18855     18858
     18855     18858     18859     18855     18858     18860     18855     18858     18861
     18859     18858     18860     18859     18858     18861     18860     18858     18861
     18858     18861     18862     18858     18861     18863     18858     18861     18864
     18862     18861     18863     18862     18861     18864     18863     18861     18864
     18861     18864     18865     18861     18864     18866     18861     18864     18867
     18865     18864     18866     18865     18864     18867     18866     18864     18867
     18818     18868     18869     18818     18868     18870     18818     18868     18871
     18869     18868     18870     18869     18868     18871     18870     18868     18871
     18868     18871     18872     18868     18871     18873     18868     18871     18874
     18872     18871     18873     18872     18871     18874     18873     18871     18874
     18871     18874     18875     18871     18874     18876     18871     18874     18877
     18875     18874     18876     18875     18874     18877     18876     18874     18877
     18874     18877     18878     18874     18877     18879     18874     18877     18880
     18878     18877     18879     18878     18877     18880     18879     18877     18880
     18877     18880     18881     18877     18880     18882     18877     18880     18883
     18881     18880     18882     18881     18880     18883     18882     18880     18883
     18880     18883     18884     18880     18883     18885     18880     18883     18886
     18884     18883     18885     18884     18883     18886     18885     18883     18886
     18883     18886     18887     18883     18886     18888     18883     18886     18889
     18887     18886     18888     18887     18886     18889     18888     18886     18889
     18886     18889     18890     18886     18889     18891     18886     18889     18892
     18890     18889     18891     18890     18889     18892     18891     18889     18892
     18889     18892     18893     18889     18892     18894     18889     18892     18895
     18893     18892     18894     18893     18892     18895     18894     18892     18895
     18892     18895     18896     18892     18895     18897     18892     18895     18898
     18896     18895     18897     18896     18895     18898     18897     18895     18898
     18895     18898     18899     18895     18898     18900     18895     18898     18901
     18899     18898     18900     18899     18898     18901     18900     18898     18901
     18898     18901     18902     18898     18901     18903     18898     18901     18904
     18902     18901     18903     18902     18901     18904     18903     18901     18904
     18901     18904     18905     18901     18904     18906     18901     18904     18907
     18905     18904     18906     18905     18904     18907     18906     18904     18907
     18904     18907     18908     18904     18907     18909     18904     18907     18910
     18908     18907     18909     18908     18907     18910     18909     18907     18910
      6097      6096      6098      6097      6096      6099      6097      6096      6100
      6098      6096      6099      6098      6096      6100      6099      6096      6100
      6096      6100      6101      6096      6100      6102      6096      6100      6103
      6101      6100      6102      6101      6100      6103      6102      6100      6103
      6100      6103      6104      6100      6103      6105      6100      6103      6110
      6104      6103      6105      6104      6103      6110      6105      6103      6110
      6107      6106      6108      6107      6106      6109      6107      6106      6110
      6108      6106      6109      6108      6106      6110      6109      6106      6110
      6106      6109      6111      6103      6110      6106      6109      6111      6112
      6109      6111      6113      6109      6111      6114      6112      6111      6113
      6112      6111      6114      6113      6111      6114      6111      6114      6115
      6111      6114      6116      6111      6114      6122      6115      6114      6116
      6115      6114      6122      6116      6114      6122      6114      6116      6117
      6116      6117      6118      6116      6117      6119      6118      6117      6119
      6117      6119      6120      6117      6119      6121      6117      6119      6131
      6120      6119      6121      6120      6119      6131      6121      6119      6131
      6114      6122      6123      6114      6122      6124      6114      6122      6125
      6123      6122      6124      6123      6122      6125      6124      6122      6125
      6122      6125      6126      6125      6126      6127      6125      6126      6128
      6127      6126      6128      6126      6128      6129      6126      6128      6130
      6126      6128      6178      6129      6128      6130      6129      6128      6178
      6130      6128      6178      6119      6131      6132      6119      6131      6133
      6119      6131      6134      6132      6131      6133      6132      6131      6134
      6133      6131      6134      6131      6134      6135      6131      6134      6136
      6131      6134      6137      6135      6134      6136      6135      6134      6137
      6136      6134      6137      6134      6137      6138      6134      6137      6139
      6134      6137      6140      6138      6137      6139      6138      6137      6140
      6139      6137      6140      6137      6140      6141      6137      6140      6142
      6137      6140      6143      6141      6140      6142      6141      6140      6143
      6142      6140      6143      6140      6143      6144      6140      6143      6145
      6140      6143      6146      6144      6143      6145      6144      6143      6146
      6145      6143      6146      6143      6146      6147      6143      6146      6148
      6143      6146      6149      6147      6146      6148      6147      6146      6149
      6148      6146      6149      6146      6149      6150      6146      6149      6151
      6150      6149      6151      6149      6151      6152      6149      6151      6153
      6152      6151      6153      6151      6153      6154      6151      6153      6155
      6151      6153      6156      6154      6153      6155      6154      6153      6156
      6155      6153      6156      6153      6156      6157      6153      6156      6158
      6153      6156      6159      6157      6156      6158      6157      6156      6159
      6158      6156      6159      6156      6159      6160      6156      6159      6161
      6156      6159      6162      6160      6159      6161      6160      6159      6162
      6161      6159      6162      6159      6162      6163      6159      6162      6164
      6159      6162      6165      6163      6162      6164      6163      6162      6165
      6164      6162      6165      6162      6165      6166      6162      6165      6167
      6162      6165      6168      6166      6165      6167      6166      6165      6168
      6167      6165      6168      6165      6168      6169      6165      6168      6170
      6165      6168      6171      6169      6168      6170      6169      6168      6171
      6170      6168      6171      6168      6171      6172      6168      6171      6173
      6168      6171      6174      6172      6171      6173      6172      6171      6174
      6173      6171      6174      6171      6174      6175      6171      6174      6176
      6171      6174      6177      6175      6174      6176      6175      6174      6177
      6176      6174      6177      6128      6178      6179      6128      6178      6180
      6128      6178      6181      6179      6178      6180      6179      6178      6181
      6180      6178      6181      6178      6181      6182      6178      6181      6183
      6178      6181      6184      6182      6181      6183      6182      6181      6184
      6183      6181      6184      6181      6184      6185      6181      6184      6186
      6181      6184      6187      6185      6184      6186      6185      6184      6187
      6186      6184      6187      6184      6187      6188      6184      6187      6189
      6184      6187      6190      6188      6187      6189      6188      6187      6190
      6189      6187      6190      6187      6190      6191      6187      6190      6192
      6187      6190      6193      6191      6190      6192      6191      6190      6193
      6192      6190      6193      6190      6193      6194      6190      6193      6195
      6190      6193      6196      6194      6193      6195      6194      6193      6196
      6195      6193      6196      6193      6196      6197      6193      6196      6198
      6193      6196      6199      6197      6196      6198      6197      6196      6199
      6198      6196      6199      6196      6199      6200      6196      6199      6201
      6196      6199      6202      6200      6199      6201      6200      6199      6202
      6201      6199      6202      6199      6202      6203      6199      6202      6204
      6199      6202      6205      6203      6202      6204      6203      6202      6205
      6204      6202      6205      6202      6205      6206      6202      6205      6207
      6202      6205      6208      6206      6205      6207      6206      6205      6208
      6207      6205      6208      6205      6208      6209      6205      6208      6210
      6205      6208      6211      6209      6208      6210      6209      6208      6211
      6210      6208      6211      6208      6211      6212      6208      6211      6213
      6208      6211      6214      6212      6211      6213      6212      6211      6214
      6213      6211      6214      6211      6214      6215      6211      6214      6216
      6211      6214      6217      6215      6214      6216      6215      6214      6217
      6216      6214      6217      6214      6217      6218      6214      6217      6219
      6214      6217      6220      6218      6217      6219      6218      6217      6220
      6219      6217      6220      1482      1481      1483      1482      1481      1485
      1482      1481      1527      1483      1481      1485      1483      1481      1527
      1485      1481      1527      1481      1483      1484      1481      1485      1486
      1481      1485      1487      1481      1485      1488      1486      1485      1487
      1486      1485      1488      1487      1485      1488      1485      1488      1489
      1485      1488      1519      1489      1488      1519      1488      1489      1490
      1488      1489      1491      1490      1489      1491      1489      1491      1492
      1489      1491      1493      1489      1491      1494      1492      1491      1493
      1492      1491      1494      1493      1491      1494      1491      1494      1495
      1491      1494      1496      1491      1494      1517      1495      1494      1496
      1495      1494      1517      1496      1494      1517      1494      1496      1497
      1494      1496      1498      1494      1496      1506      1497      1496      1498
      1497      1496      1506      1498      1496      1506      1496      1498      1499
      1496      1498      1500      1496      1498      1501      1499      1498      1500
      1499      1498      1501      1500      1498      1501      1498      1501      1502
      1498      1501      1503      1498      1501      1504      1502      1501      1503
      1502      1501      1504      1503      1501      1504      1501      1504      1505
      1501      1504      1506      1501      1504      1530      1505      1504      1506
      1505      1504      1530      1506      1504      1530      1496      1506      1504
      1496      1506      1507      1496      1506      1511      1504      1506      1507
      1504      1506      1511      1507      1506      1511      1506      1507      1508
      1506      1507      1509      1506      1507      1510      1508      1507      1509
      1508      1507      1510      1509      1507      1510      1506      1511      1512
      1506      1511      1513      1506      1511      1514      1512      1511      1513
      1512      1511      1514      1513      1511      1514      1511      1514      1515
      1511      1514      1516      1511      1514      1517      1515      1514      1516
      1515      1514      1517      1516      1514      1517      1494      1517      1514
      1494      1517      1518      1494      1517      1519      1514      1517      1518
      1514      1517      1519      1518      1517      1519      1488      1519      1517
      1488      1519      1520      1488      1519      1524      1517      1519      1520
      1517      1519      1524      1520      1519      1524      1519      1520      1521
      1519      1520      1522      1519      1520      1523      1521      1520      1522
      1521      1520      1523      1522      1520      1523      1519      1524      1525
      1519      1524      1526      1519      1524      1527      1525      1524      1526
      1525      1524      1527      1526      1524      1527      1481      1527      1524
      1481      1527      1528      1481      1527      1529      1524      1527      1528
      1524      1527      1529      1528      1527      1529      1504      1530      1531
      1504      1530      1532      1504      1530      1536      1531      1530      1532
      1531      1530      1536      1532      1530      1536      1530      1532      1533
      1530      1532      1534      1530      1532      1535      1533      1532      1534
      1533      1532      1535      1534      1532      1535      1530      1536      1537
      1530      1536      1538      1530      1536      1539      1537      1536      1538
      1537      1536      1539      1538      1536      1539      1536      1539      1540
      1536      1539      1541      1536      1539      1542      1540      1539      1541
      1540      1539      1542      1541      1539      1542      1539      1542      1543
      1539      1542      1544      1539      1542      1545      1543      1542      1544
      1543      1542      1545      1544      1542      1545      1542      1545      1546
      1542      1545      1547      1542      1545      1551      1546      1545      1547
      1546      1545      1551      1547      1545      1551      1545      1547      1548
      1545      1547      1549      1545      1547      1550      1548      1547      1549
      1548      1547      1550      1549      1547      1550      1545      1551      1552
      1545      1551      1553      1545      1551      1554      1552      1551      1553
      1552      1551      1554      1553      1551      1554     18912     18911     18915
     18912     18911     18919     18912     18911     18923     18915     18911     18919
     18915     18911     18923     18919     18911     18923     18911     18912     18913
     18911     18912     18914     18911     18912     18927     18913     18912     18914
     18913     18912     18927     18914     18912     18927     18911     18915     18916
     18911     18915     18917     18911     18915     18918     18916     18915     18917
     18916     18915     18918     18917     18915     18918     18911     18919     18920
     18911     18919     18921     18911     18919     18922     18920     18919     18921
     18920     18919     18922     18921     18919     18922     18911     18923     18924
     18911     18923     18925     18911     18923     18926     18924     18923     18925
     18924     18923     18926     18925     18923     18926     18912     18927     18928
     18912     18927     18929     18912     18927     18933     18928     18927     18929
     18928     18927     18933     18929     18927     18933     18931     18930     18932
     18931     18930     18933     18931     18930     18934     18932     18930     18933
     18932     18930     18934     18933     18930     18934     18927     18933     18930
     18930     18934     18935     18934     18935     18936     18934     18935     18937
     18934     18935     18938     18936     18935     18937     18936     18935     18938
     18937     18935     18938     18935     18938     18939     18935     18938     18940
     18935     18938     18946     18939     18938     18940     18939     18938     18946
     18940     18938     18946     18938     18940     18941     18940     18941     18942
     18940     18941     18943     18942     18941     18943     18941     18943     18944
     18941     18943     18945     18941     18943     18955     18944     18943     18945
     18944     18943     18955     18945     18943     18955     18938     18946     18947
     18938     18946     18948     18938     18946     18949     18947     18946     18948
     18947     18946     18949     18948     18946     18949     18946     18949     18950
     18949     18950     18951     18949     18950     18952     18951     18950     18952
     18950     18952     18953     18950     18952     18954     18950     18952     19002
     18953     18952     18954     18953     18952     19002     18954     18952     19002
     18943     18955     18956     18943     18955     18957     18943     18955     18958
     18956     18955     18957     18956     18955     18958     18957     18955     18958
     18955     18958     18959     18955     18958     18960     18955     18958     18961
     18959     18958     18960     18959     18958     18961     18960     18958     18961
     18958     18961     18962     18958     18961     18963     18958     18961     18964
     18962     18961     18963     18962     18961     18964     18963     18961     18964
     18961     18964     18965     18961     18964     18966     18961     18964     18967
     18965     18964     18966     18965     18964     18967     18966     18964     18967
     18964     18967     18968     18964     18967     18969     18964     18967     18970
     18968     18967     18969     18968     18967     18970     18969     18967     18970
     18967     18970     18971     18967     18970     18972     18967     18970     18973
     18971     18970     18972     18971     18970     18973     18972     18970     18973
     18970     18973     18974     18970     18973     18975     18974     18973     18975
     18973     18975     18976     18973     18975     18977     18976     18975     18977
     18975     18977     18978     18975     18977     18979     18975     18977     18980
     18978     18977     18979     18978     18977     18980     18979     18977     18980
     18977     18980     18981     18977     18980     18982     18977     18980     18983
     18981     18980     18982     18981     18980     18983     18982     18980     18983
     18980     18983     18984     18980     18983     18985     18980     18983     18986
     18984     18983     18985     18984     18983     18986     18985     18983     18986
     18983     18986     18987     18983     18986     18988     18983     18986     18989
     18987     18986     18988     18987     18986     18989     18988     18986     18989
     18986     18989     18990     18986     18989     18991     18986     18989     18992
     18990     18989     18991     18990     18989     18992     18991     18989     18992
     18989     18992     18993     18989     18992     18994     18989     18992     18995
     18993     18992     18994     18993     18992     18995     18994     18992     18995
     18992     18995     18996     18992     18995     18997     18992     18995     18998
     18996     18995     18997     18996     18995     18998     18997     18995     18998
     18995     18998     18999     18995     18998     19000     18995     18998     19001
     18999     18998     19000     18999     18998     19001     19000     18998     19001
     18952     19002     19003     18952     19002     19004     18952     19002     19005
     19003     19002     19004     19003     19002     19005     19004     19002     19005
     19002     19005     19006     19002     19005     19007     19002     19005     19008
     19006     19005     19007     19006     19005     19008     19007     19005     19008
     19005     19008     19009     19005     19008     19010     19005     19008     19011
     19009     19008     19010     19009     19008     19011     19010     19008     19011
     19008     19011     19012     19008     19011     19013     19008     19011     19014
     19012     19011     19013     19012     19011     19014     19013     19011     19014
     19011     19014     19015     19011     19014     19016     19011     19014     19017
     19015     19014     19016     19015     19014     19017     19016     19014     19017
     19014     19017     19018     19014     19017     19019     19014     19017     19020
     19018     19017     19019     19018     19017     19020     19019     19017     19020
     19017     19020     19021     19017     19020     19022     19017     19020     19023
     19021     19020     19022     19021     19020     19023     19022     19020     19023
     19020     19023     19024     19020     19023     19025     19020     19023     19026
     19024     19023     19025     19024     19023     19026     19025     19023     19026
     19023     19026     19027     19023     19026     19028     19023     19026     19029
     19027     19026     19028     19027     19026     19029     19028     19026     19029
     19026     19029     19030     19026     19029     19031     19026     19029     19032
     19030     19029     19031     19030     19029     19032     19031     19029     19032
     19029     19032     19033     19029     19032     19034     19029     19032     19035
     19033     19032     19034     19033     19032     19035     19034     19032     19035
     19032     19035     19036     19032     19035     19037     19032     19035     19038
     19036     19035     19037     19036     19035     19038     19037     19035     19038
     19035     19038     19039     19035     19038     19040     19035     19038     19041
     19039     19038     19040     19039     19038     19041     19040     19038     19041
     19038     19041     19042     19038     19041     19043     19038     19041     19044
     19042     19041     19043     19042     19041     19044     19043     19041     19044
     22414     22413     22415     22414     22413     22417     22414     22413     22433
     22415     22413     22417     22415     22413     22433     22417     22413     22433
     22413     22415     22416     22413     22417     22418     22413     22417     22419
     22413     22417     22421     22418     22417     22419     22418     22417     22421
     22419     22417     22421     22417     22419     22420     22417     22421     22422
     22417     22421     22423     22417     22421     22425     22422     22421     22423
     22422     22421     22425     22423     22421     22425     22421     22423     22424
     22421     22425     22426     22421     22425     22427     22421     22425     22429
     22426     22425     22427     22426     22425     22429     22427     22425     22429
     22425     22427     22428     22425     22429     22430     22425     22429     22431
     22425     22429     22433     22430     22429     22431     22430     22429     22433
     22431     22429     22433     22429     22431     22432     22413     22433     22429
     22413     22433     22434     22413     22433     22438     22429     22433     22434
     22429     22433     22438     22434     22433     22438     22436     22435     22437
     22436     22435     22438     22436     22435     22439     22437     22435     22438
     22437     22435     22439     22438     22435     22439     22433     22438     22435
     22435     22439     22440     22439     22440     22441     22439     22440     22442
     22439     22440     22443     22441     22440     22442     22441     22440     22443
     22442     22440     22443     22440     22443     22444     22440     22443     22445
     22440     22443     22451     22444     22443     22445     22444     22443     22451
     22445     22443     22451     22443     22445     22446     22445     22446     22447
     22445     22446     22448     22447     22446     22448     22446     22448     22449
     22446     22448     22450     22446     22448     22460     22449     22448     22450
     22449     22448     22460     22450     22448     22460     22443     22451     22452
     22443     22451     22453     22443     22451     22454     22452     22451     22453
     22452     22451     22454     22453     22451     22454     22451     22454     22455
     22454     22455     22456     22454     22455     22457     22456     22455     22457
     22455     22457     22458     22455     22457     22459     22455     22457     22507
     22458     22457     22459     22458     22457     22507     22459     22457     22507
     22448     22460     22461     22448     22460     22462     22448     22460     22463
     22461     22460     22462     22461     22460     22463     22462     22460     22463
     22460     22463     22464     22460     22463     22465     22460     22463     22466
     22464     22463     22465     22464     22463     22466     22465     22463     22466
     22463     22466     22467     22463     22466     22468     22463     22466     22469
     22467     22466     22468     22467     22466     22469     22468     22466     22469
     22466     22469     22470     22466     22469     22471     22466     22469     22472
     22470     22469     22471     22470     22469     22472     22471     22469     22472
     22469     22472     22473     22469     22472     22474     22469     22472     22475
     22473     22472     22474     22473     22472     22475     22474     22472     22475
     22472     22475     22476     22472     22475     22477     22472     22475     22478
     22476     22475     22477     22476     22475     22478     22477     22475     22478
     22475     22478     22479     22475     22478     22480     22479     22478     22480
     22478     22480     22481     22478     22480     22482     22481     22480     22482
     22480     22482     22483     22480     22482     22484     22480     22482     22485
     22483     22482     22484     22483     22482     22485     22484     22482     22485
     22482     22485     22486     22482     22485     22487     22482     22485     22488
     22486     22485     22487     22486     22485     22488     22487     22485     22488
     22485     22488     22489     22485     22488     22490     22485     22488     22491
     22489     22488     22490     22489     22488     22491     22490     22488     22491
     22488     22491     22492     22488     22491     22493     22488     22491     22494
     22492     22491     22493     22492     22491     22494     22493     22491     22494
     22491     22494     22495     22491     22494     22496     22491     22494     22497
     22495     22494     22496     22495     22494     22497     22496     22494     22497
     22494     22497     22498     22494     22497     22499     22494     22497     22500
     22498     22497     22499     22498     22497     22500     22499     22497     22500
     22497     22500     22501     22497     22500     22502     22497     22500     22503
     22501     22500     22502     22501     22500     22503     22502     22500     22503
     22500     22503     22504     22500     22503     22505     22500     22503     22506
     22504     22503     22505     22504     22503     22506     22505     22503     22506
     22457     22507     22508     22457     22507     22509     22457     22507     22510
     22508     22507     22509     22508     22507     22510     22509     22507     22510
     22507     22510     22511     22507     22510     22512     22507     22510     22513
     22511     22510     22512     22511     22510     22513     22512     22510     22513
     22510     22513     22514     22510     22513     22515     22510     22513     22516
     22514     22513     22515     22514     22513     22516     22515     22513     22516
     22513     22516     22517     22513     22516     22518     22513     22516     22519
     22517     22516     22518     22517     22516     22519     22518     22516     22519
     22516     22519     22520     22516     22519     22521     22516     22519     22522
     22520     22519     22521     22520     22519     22522     22521     22519     22522
     22519     22522     22523     22519     22522     22524     22519     22522     22525
     22523     22522     22524     22523     22522     22525     22524     22522     22525
     22522     22525     22526     22522     22525     22527     22522     22525     22528
     22526     22525     22527     22526     22525     22528     22527     22525     22528
     22525     22528     22529     22525     22528     22530     22525     22528     22531
     22529     22528     22530     22529     22528     22531     22530     22528     22531
     22528     22531     22532     22528     22531     22533     22528     22531     22534
     22532     22531     22533     22532     22531     22534     22533     22531     22534
     22531     22534     22535     22531     22534     22536     22531     22534     22537
     22535     22534     22536     22535     22534     22537     22536     22534     22537
     22534     22537     22538     22534     22537     22539     22534     22537     22540
     22538     22537     22539     22538     22537     22540     22539     22537     22540
     22537     22540     22541     22537     22540     22542     22537     22540     22543
     22541     22540     22542     22541     22540     22543     22542     22540     22543
     22540     22543     22544     22540     22543     22545     22540     22543     22546
     22544     22543     22545     22544     22543     22546     22545     22543     22546
     22543     22546     22547     22543     22546     22548     22543     22546     22549
     22547     22546     22548     22547     22546     22549     22548     22546     22549
     22551     22550     22552     22551     22550     22554     22551     22550     22570
     22552     22550     22554     22552     22550     22570     22554     22550     22570
     22550     22552     22553     22550     22554     22555     22550     22554     22556
     22550     22554     22558     22555     22554     22556     22555     22554     22558
     22556     22554     22558     22554     22556     22557     22554     22558     22559
     22554     22558     22560     22554     22558     22562     22559     22558     22560
     22559     22558     22562     22560     22558     22562     22558     22560     22561
     22558     22562     22563     22558     22562     22564     22558     22562     22566
     22563     22562     22564     22563     22562     22566     22564     22562     22566
     22562     22564     22565     22562     22566     22567     22562     22566     22568
     22562     22566     22570     22567     22566     22568     22567     22566     22570
     22568     22566     22570     22566     22568     22569     22550     22570     22566
     22550     22570     22571     22550     22570     22575     22566     22570     22571
     22566     22570     22575     22571     22570     22575     22573     22572     22574
     22573     22572     22575     22573     22572     22576     22574     22572     22575
     22574     22572     22576     22575     22572     22576     22570     22575     22572
     22572     22576     22577     22576     22577     22578     22576     22577     22579
     22576     22577     22580     22578     22577     22579     22578     22577     22580
     22579     22577     22580     22577     22580     22581     22577     22580     22582
     22577     22580     22588     22581     22580     22582     22581     22580     22588
     22582     22580     22588     22580     22582     22583     22582     22583     22584
     22582     22583     22585     22584     22583     22585     22583     22585     22586
     22583     22585     22587     22583     22585     22597     22586     22585     22587
     22586     22585     22597     22587     22585     22597     22580     22588     22589
     22580     22588     22590     22580     22588     22591     22589     22588     22590
     22589     22588     22591     22590     22588     22591     22588     22591     22592
     22591     22592     22593     22591     22592     22594     22593     22592     22594
     22592     22594     22595     22592     22594     22596     22592     22594     22644
     22595     22594     22596     22595     22594     22644     22596     22594     22644
     22585     22597     22598     22585     22597     22599     22585     22597     22600
     22598     22597     22599     22598     22597     22600     22599     22597     22600
     22597     22600     22601     22597     22600     22602     22597     22600     22603
     22601     22600     22602     22601     22600     22603     22602     22600     22603
     22600     22603     22604     22600     22603     22605     22600     22603     22606
     22604     22603     22605     22604     22603     22606     22605     22603     22606
     22603     22606     22607     22603     22606     22608     22603     22606     22609
     22607     22606     22608     22607     22606     22609     22608     22606     22609
     22606     22609     22610     22606     22609     22611     22606     22609     22612
     22610     22609     22611     22610     22609     22612     22611     22609     22612
     22609     22612     22613     22609     22612     22614     22609     22612     22615
     22613     22612     22614     22613     22612     22615     22614     22612     22615
     22612     22615     22616     22612     22615     22617     22616     22615     22617
     22615     22617     22618     22615     22617     22619     22618     22617     22619
     22617     22619     22620     22617     22619     22621     22617     22619     22622
     22620     22619     22621     22620     22619     22622     22621     22619     22622
     22619     22622     22623     22619     22622     22624     22619     22622     22625
     22623     22622     22624     22623     22622     22625     22624     22622     22625
     22622     22625     22626     22622     22625     22627     22622     22625     22628
     22626     22625     22627     22626     22625     22628     22627     22625     22628
     22625     22628     22629     22625     22628     22630     22625     22628     22631
     22629     22628     22630     22629     22628     22631     22630     22628     22631
     22628     22631     22632     22628     22631     22633     22628     22631     22634
     22632     22631     22633     22632     22631     22634     22633     22631     22634
     22631     22634     22635     22631     22634     22636     22631     22634     22637
     22635     22634     22636     22635     22634     22637     22636     22634     22637
     22634     22637     22638     22634     22637     22639     22634     22637     22640
     22638     22637     22639     22638     22637     22640     22639     22637     22640
     22637     22640     22641     22637     22640     22642     22637     22640     22643
     22641     22640     22642     22641     22640     22643     22642     22640     22643
     22594     22644     22645     22594     22644     22646     22594     22644     22647
     22645     22644     22646     22645     22644     22647     22646     22644     22647
     22644     22647     22648     22644     22647     22649     22644     22647     22650
     22648     22647     22649     22648     22647     22650     22649     22647     22650
     22647     22650     22651     22647     22650     22652     22647     22650     22653
     22651     22650     22652     22651     22650     22653     22652     22650     22653
     22650     22653     22654     22650     22653     22655     22650     22653     22656
     22654     22653     22655     22654     22653     22656     22655     22653     22656
     22653     22656     22657     22653     22656     22658     22653     22656     22659
     22657     22656     22658     22657     22656     22659     22658     22656     22659
     22656     22659     22660     22656     22659     22661     22656     22659     22662
     22660     22659     22661     22660     22659     22662     22661     22659     22662
     22659     22662     22663     22659     22662     22664     22659     22662     22665
     22663     22662     22664     22663     22662     22665     22664     22662     22665
     22662     22665     22666     22662     22665     22667     22662     22665     22668
     22666     22665     22667     22666     22665     22668     22667     22665     22668
     22665     22668     22669     22665     22668     22670     22665     22668     22671
     22669     22668     22670     22669     22668     22671     22670     22668     22671
     22668     22671     22672     22668     22671     22673     22668     22671     22674
     22672     22671     22673     22672     22671     22674     22673     22671     22674
     22671     22674     22675     22671     22674     22676     22671     22674     22677
     22675     22674     22676     22675     22674     22677     22676     22674     22677
     22674     22677     22678     22674     22677     22679     22674     22677     22680
     22678     22677     22679     22678     22677     22680     22679     22677     22680
     22677     22680     22681     22677     22680     22682     22677     22680     22683
     22681     22680     22682     22681     22680     22683     22682     22680     22683
     22680     22683     22684     22680     22683     22685     22680     22683     22686
     22684     22683     22685     22684     22683     22686     22685     22683     22686
      1556      1555      1557      1556      1555      1559      1556      1555      1601
      1557      1555      1559      1557      1555      1601      1559      1555      1601
      1555      1557      1558      1555      1559      1560      1555      1559      1561
      1555      1559      1562      1560      1559      1561      1560      1559      1562
      1561      1559      1562      1559      1562      1563      1559      1562      1593
      1563      1562      1593      1562      1563      1564      1562      1563      1565
      1564      1563      1565      1563      1565      1566      1563      1565      1567
      1563      1565      1568      1566      1565      1567      1566      1565      1568
      1567      1565      1568      1565      1568      1569      1565      1568      1570
      1565      1568      1591      1569      1568      1570      1569      1568      1591
      1570      1568      1591      1568      1570      1571      1568      1570      1572
      1568      1570      1580      1571      1570      1572      1571      1570      1580
      1572      1570      1580      1570      1572      1573      1570      1572      1574
      1570      1572      1575      1573      1572      1574      1573      1572      1575
      1574      1572      1575      1572      1575      1576      1572      1575      1577
      1572      1575      1578      1576      1575      1577      1576      1575      1578
      1577      1575      1578      1575      1578      1579      1575      1578      1580
      1575      1578      1604      1579      1578      1580      1579      1578      1604
      1580      1578      1604      1570      1580      1578      1570      1580      1581
      1570      1580      1585      1578      1580      1581      1578      1580      1585
      1581      1580      1585      1580      1581      1582      1580      1581      1583
      1580      1581      1584      1582      1581      1583      1582      1581      1584
      1583      1581      1584      1580      1585      1586      1580      1585      1587
      1580      1585      1588      1586      1585      1587      1586      1585      1588
      1587      1585      1588      1585      1588      1589      1585      1588      1590
      1585      1588      1591      1589      1588      1590      1589      1588      1591
      1590      1588      1591      1568      1591      1588      1568      1591      1592
      1568      1591      1593      1588      1591      1592      1588      1591      1593
      1592      1591      1593      1562      1593      1591      1562      1593      1594
      1562      1593      1598      1591      1593      1594      1591      1593      1598
      1594      1593      1598      1593      1594      1595      1593      1594      1596
      1593      1594      1597      1595      1594      1596      1595      1594      1597
      1596      1594      1597      1593      1598      1599      1593      1598      1600
      1593      1598      1601      1599      1598      1600      1599      1598      1601
      1600      1598      1601      1555      1601      1598      1555      1601      1602
      1555      1601      1603      1598      1601      1602      1598      1601      1603
      1602      1601      1603      1578      1604      1605      1578      1604      1606
      1578      1604      1610      1605      1604      1606      1605      1604      1610
      1606      1604      1610      1604      1606      1607      1604      1606      1608
      1604      1606      1609      1607      1606      1608      1607      1606      1609
      1608      1606      1609      1604      1610      1611      1604      1610      1612
      1604      1610      1613      1611      1610      1612      1611      1610      1613
      1612      1610      1613      1610      1613      1614      1610      1613      1615
      1610      1613      1616      1614      1613      1615      1614      1613      1616
      1615      1613      1616      1613      1616      1617      1613      1616      1618
      1613      1616      1619      1617      1616      1618      1617      1616      1619
      1618      1616      1619      1616      1619      1620      1616      1619      1621
      1616      1619      1625      1620      1619      1621      1620      1619      1625
      1621      1619      1625      1619      1621      1622      1619      1621      1623
      1619      1621      1624      1622      1621      1623      1622      1621      1624
      1623      1621      1624      1619      1625      1626      1619      1625      1627
      1619      1625      1628      1626      1625      1627      1626      1625      1628
      1627      1625      1628     19046     19045     19049     19046     19045     19053
     19046     19045     19057     19049     19045     19053     19049     19045     19057
     19053     19045     19057     19045     19046     19047     19045     19046     19048
     19045     19046     19061     19047     19046     19048     19047     19046     19061
     19048     19046     19061     19045     19049     19050     19045     19049     19051
     19045     19049     19052     19050     19049     19051     19050     19049     19052
     19051     19049     19052     19045     19053     19054     19045     19053     19055
     19045     19053     19056     19054     19053     19055     19054     19053     19056
     19055     19053     19056     19045     19057     19058     19045     19057     19059
     19045     19057     19060     19058     19057     19059     19058     19057     19060
     19059     19057     19060     19046     19061     19062     19046     19061     19063
     19046     19061     19067     19062     19061     19063     19062     19061     19067
     19063     19061     19067     19065     19064     19066     19065     19064     19067
     19065     19064     19068     19066     19064     19067     19066     19064     19068
     19067     19064     19068     19061     19067     19064     19064     19068     19069
     19068     19069     19070     19068     19069     19071     19068     19069     19072
     19070     19069     19071     19070     19069     19072     19071     19069     19072
     19069     19072     19073     19069     19072     19074     19069     19072     19080
     19073     19072     19074     19073     19072     19080     19074     19072     19080
     19072     19074     19075     19074     19075     19076     19074     19075     19077
     19076     19075     19077     19075     19077     19078     19075     19077     19079
     19075     19077     19089     19078     19077     19079     19078     19077     19089
     19079     19077     19089     19072     19080     19081     19072     19080     19082
     19072     19080     19083     19081     19080     19082     19081     19080     19083
     19082     19080     19083     19080     19083     19084     19083     19084     19085
     19083     19084     19086     19085     19084     19086     19084     19086     19087
     19084     19086     19088     19084     19086     19136     19087     19086     19088
     19087     19086     19136     19088     19086     19136     19077     19089     19090
     19077     19089     19091     19077     19089     19092     19090     19089     19091
     19090     19089     19092     19091     19089     19092     19089     19092     19093
     19089     19092     19094     19089     19092     19095     19093     19092     19094
     19093     19092     19095     19094     19092     19095     19092     19095     19096
     19092     19095     19097     19092     19095     19098     19096     19095     19097
     19096     19095     19098     19097     19095     19098     19095     19098     19099
     19095     19098     19100     19095     19098     19101     19099     19098     19100
     19099     19098     19101     19100     19098     19101     19098     19101     19102
     19098     19101     19103     19098     19101     19104     19102     19101     19103
     19102     19101     19104     19103     19101     19104     19101     19104     19105
     19101     19104     19106     19101     19104     19107     19105     19104     19106
     19105     19104     19107     19106     19104     19107     19104     19107     19108
     19104     19107     19109     19108     19107     19109     19107     19109     19110
     19107     19109     19111     19110     19109     19111     19109     19111     19112
     19109     19111     19113     19109     19111     19114     19112     19111     19113
     19112     19111     19114     19113     19111     19114     19111     19114     19115
     19111     19114     19116     19111     19114     19117     19115     19114     19116
     19115     19114     19117     19116     19114     19117     19114     19117     19118
     19114     19117     19119     19114     19117     19120     19118     19117     19119
     19118     19117     19120     19119     19117     19120     19117     19120     19121
     19117     19120     19122     19117     19120     19123     19121     19120     19122
     19121     19120     19123     19122     19120     19123     19120     19123     19124
     19120     19123     19125     19120     19123     19126     19124     19123     19125
     19124     19123     19126     19125     19123     19126     19123     19126     19127
     19123     19126     19128     19123     19126     19129     19127     19126     19128
     19127     19126     19129     19128     19126     19129     19126     19129     19130
     19126     19129     19131     19126     19129     19132     19130     19129     19131
     19130     19129     19132     19131     19129     19132     19129     19132     19133
     19129     19132     19134     19129     19132     19135     19133     19132     19134
     19133     19132     19135     19134     19132     19135     19086     19136     19137
     19086     19136     19138     19086     19136     19139     19137     19136     19138
     19137     19136     19139     19138     19136     19139     19136     19139     19140
     19136     19139     19141     19136     19139     19142     19140     19139     19141
     19140     19139     19142     19141     19139     19142     19139     19142     19143
     19139     19142     19144     19139     19142     19145     19143     19142     19144
     19143     19142     19145     19144     19142     19145     19142     19145     19146
     19142     19145     19147     19142     19145     19148     19146     19145     19147
     19146     19145     19148     19147     19145     19148     19145     19148     19149
     19145     19148     19150     19145     19148     19151     19149     19148     19150
     19149     19148     19151     19150     19148     19151     19148     19151     19152
     19148     19151     19153     19148     19151     19154     19152     19151     19153
     19152     19151     19154     19153     19151     19154     19151     19154     19155
     19151     19154     19156     19151     19154     19157     19155     19154     19156
     19155     19154     19157     19156     19154     19157     19154     19157     19158
     19154     19157     19159     19154     19157     19160     19158     19157     19159
     19158     19157     19160     19159     19157     19160     19157     19160     19161
     19157     19160     19162     19157     19160     19163     19161     19160     19162
     19161     19160     19163     19162     19160     19163     19160     19163     19164
     19160     19163     19165     19160     19163     19166     19164     19163     19165
     19164     19163     19166     19165     19163     19166     19163     19166     19167
     19163     19166     19168     19163     19166     19169     19167     19166     19168
     19167     19166     19169     19168     19166     19169     19166     19169     19170
     19166     19169     19171     19166     19169     19172     19170     19169     19171
     19170     19169     19172     19171     19169     19172     19169     19172     19173
     19169     19172     19174     19169     19172     19175     19173     19172     19174
     19173     19172     19175     19174     19172     19175     19172     19175     19176
     19172     19175     19177     19172     19175     19178     19176     19175     19177
     19176     19175     19178     19177     19175     19178      6222      6221      6223
      6222      6221      6224      6222      6221      6225      6223      6221      6224
      6223      6221      6225      6224      6221      6225      6221      6225      6226
      6221      6225      6227      6221      6225      6228      6226      6225      6227
      6226      6225      6228      6227      6225      6228      6225      6228      6229
      6225      6228      6230      6225      6228      6235      6229      6228      6230
      6229      6228      6235      6230      6228      6235      6232      6231      6233
      6232      6231      6234      6232      6231      6235      6233      6231      6234
      6233      6231      6235      6234      6231      6235      6231      6234      6236
      6228      6235      6231      6234      6236      6237      6234      6236      6238
      6234      6236      6239      6237      6236      6238      6237      6236      6239
      6238      6236      6239      6236      6239      6240      6236      6239      6241
      6236      6239      6247      6240      6239      6241      6240      6239      6247
      6241      6239      6247      6239      6241      6242      6241      6242      6243
      6241      6242      6244      6243      6242      6244      6242      6244      6245
      6242      6244      6246      6242      6244      6256      6245      6244      6246
      6245      6244      6256      6246      6244      6256      6239      6247      6248
      6239      6247      6249      6239      6247      6250      6248      6247      6249
      6248      6247      6250      6249      6247      6250      6247      6250      6251
      6250      6251      6252      6250      6251      6253      6252      6251      6253
      6251      6253      6254      6251      6253      6255      6251      6253      6303
      6254      6253      6255      6254      6253      6303      6255      6253      6303
      6244      6256      6257      6244      6256      6258      6244      6256      6259
      6257      6256      6258      6257      6256      6259      6258      6256      6259
      6256      6259      6260      6256      6259      6261      6256      6259      6262
      6260      6259      6261      6260      6259      6262      6261      6259      6262
      6259      6262      6263      6259      6262      6264      6259      6262      6265
      6263      6262      6264      6263      6262      6265      6264      6262      6265
      6262      6265      6266      6262      6265      6267      6262      6265      6268
      6266      6265      6267      6266      6265      6268      6267      6265      6268
      6265      6268      6269      6265      6268      6270      6265      6268      6271
      6269      6268      6270      6269      6268      6271      6270      6268      6271
      6268      6271      6272      6268      6271      6273      6268      6271      6274
      6272      6271      6273      6272      6271      6274      6273      6271      6274
      6271      6274      6275      6271      6274      6276      6275      6274      6276
      6274      6276      6277      6274      6276      6278      6277      6276      6278
      6276      6278      6279      6276      6278      6280      6276      6278      6281
      6279      6278      6280      6279      6278      6281      6280      6278      6281
      6278      6281      6282      6278      6281      6283      6278      6281      6284
      6282      6281      6283      6282      6281      6284      6283      6281      6284
      6281      6284      6285      6281      6284      6286      6281      6284      6287
      6285      6284      6286      6285      6284      6287      6286      6284      6287
      6284      6287      6288      6284      6287      6289      6284      6287      6290
      6288      6287      6289      6288      6287      6290      6289      6287      6290
      6287      6290      6291      6287      6290      6292      6287      6290      6293
      6291      6290      6292      6291      6290      6293      6292      6290      6293
      6290      6293      6294      6290      6293      6295      6290      6293      6296
      6294      6293      6295      6294      6293      6296      6295      6293      6296
      6293      6296      6297      6293      6296      6298      6293      6296      6299
      6297      6296      6298      6297      6296      6299      6298      6296      6299
      6296      6299      6300      6296      6299      6301      6296      6299      6302
      6300      6299      6301      6300      6299      6302      6301      6299      6302
      6253      6303      6304      6253      6303      6305      6253      6303      6306
      6304      6303      6305      6304      6303      6306      6305      6303      6306
      6303      6306      6307      6303      6306      6308      6303      6306      6309
      6307      6306      6308      6307      6306      6309      6308      6306      6309
      6306      6309      6310      6306      6309      6311      6306      6309      6312
      6310      6309      6311      6310      6309      6312      6311      6309      6312
      6309      6312      6313      6309      6312      6314      6309      6312      6315
      6313      6312      6314      6313      6312      6315      6314      6312      6315
      6312      6315      6316      6312      6315      6317      6312      6315      6318
      6316      6315      6317      6316      6315      6318      6317      6315      6318
      6315      6318      6319      6315      6318      6320      6315      6318      6321
      6319      6318      6320      6319      6318      6321      6320      6318      6321
      6318      6321      6322      6318      6321      6323      6318      6321      6324
      6322      6321      6323      6322      6321      6324      6323      6321      6324
      6321      6324      6325      6321      6324      6326      6321      6324      6327
      6325      6324      6326      6325      6324      6327      6326      6324      6327
      6324      6327      6328      6324      6327      6329      6324      6327      6330
      6328      6327      6329      6328      6327      6330      6329      6327      6330
      6327      6330      6331      6327      6330      6332      6327      6330      6333
      6331      6330      6332      6331      6330      6333      6332      6330      6333
      6330      6333      6334      6330      6333      6335      6330      6333      6336
      6334      6333      6335      6334      6333      6336      6335      6333      6336
      6333      6336      6337      6333      6336      6338      6333      6336      6339
      6337      6336      6338      6337      6336      6339      6338      6336      6339
      6336      6339      6340      6336      6339      6341      6336      6339      6342
      6340      6339      6341      6340      6339      6342      6341      6339      6342
      6339      6342      6343      6339      6342      6344      6339      6342      6345
      6343      6342      6344      6343      6342      6345      6344      6342      6345
      1630      1629      1631      1630      1629      1633      1630      1629      1675
      1631      1629      1633      1631      1629      1675      1633      1629      1675
      1629      1631      1632      1629      1633      1634      1629      1633      1635
      1629      1633      1636      1634      1633      1635      1634      1633      1636
      1635      1633      1636      1633      1636      1637      1633      1636      1667
      1637      1636      1667      1636      1637      1638      1636      1637      1639
      1638      1637      1639      1637      1639      1640      1637      1639      1641
      1637      1639      1642      1640      1639      1641      1640      1639      1642
      1641      1639      1642      1639      1642      1643      1639      1642      1644
      1639      1642      1665      1643      1642      1644      1643      1642      1665
      1644      1642      1665      1642      1644      1645      1642      1644      1646
      1642      1644      1654      1645      1644      1646      1645      1644      1654
      1646      1644      1654      1644      1646      1647      1644      1646      1648
      1644      1646      1649      1647      1646      1648      1647      1646      1649
      1648      1646      1649      1646      1649      1650      1646      1649      1651
      1646      1649      1652      1650      1649      1651      1650      1649      1652
      1651      1649      1652      1649      1652      1653      1649      1652      1654
      1649      1652      1678      1653      1652      1654      1653      1652      1678
      1654      1652      1678      1644      1654      1652      1644      1654      1655
      1644      1654      1659      1652      1654      1655      1652      1654      1659
      1655      1654      1659      1654      1655      1656      1654      1655      1657
      1654      1655      1658      1656      1655      1657      1656      1655      1658
      1657      1655      1658      1654      1659      1660      1654      1659      1661
      1654      1659      1662      1660      1659      1661      1660      1659      1662
      1661      1659      1662      1659      1662      1663      1659      1662      1664
      1659      1662      1665      1663      1662      1664      1663      1662      1665
      1664      1662      1665      1642      1665      1662      1642      1665      1666
      1642      1665      1667      1662      1665      1666      1662      1665      1667
      1666      1665      1667      1636      1667      1665      1636      1667      1668
      1636      1667      1672      1665      1667      1668      1665      1667      1672
      1668      1667      1672      1667      1668      1669      1667      1668      1670
      1667      1668      1671      1669      1668      1670      1669      1668      1671
      1670      1668      1671      1667      1672      1673      1667      1672      1674
      1667      1672      1675      1673      1672      1674      1673      1672      1675
      1674      1672      1675      1629      1675      1672      1629      1675      1676
      1629      1675      1677      1672      1675      1676      1672      1675      1677
      1676      1675      1677      1652      1678      1679      1652      1678      1680
      1652      1678      1684      1679      1678      1680      1679      1678      1684
      1680      1678      1684      1678      1680      1681      1678      1680      1682
      1678      1680      1683      1681      1680      1682      1681      1680      1683
      1682      1680      1683      1678      1684      1685      1678      1684      1686
      1678      1684      1687      1685      1684      1686      1685      1684      1687
      1686      1684      1687      1684      1687      1688      1684      1687      1689
      1684      1687      1690      1688      1687      1689      1688      1687      1690
      1689      1687      1690      1687      1690      1691      1687      1690      1692
      1687      1690      1693      1691      1690      1692      1691      1690      1693
      1692      1690      1693      1690      1693      1694      1690      1693      1695
      1690      1693      1699      1694      1693      1695      1694      1693      1699
      1695      1693      1699      1693      1695      1696      1693      1695      1697
      1693      1695      1698      1696      1695      1697      1696      1695      1698
      1697      1695      1698      1693      1699      1700      1693      1699      1701
      1693      1699      1702      1700      1699      1701      1700      1699      1702
      1701      1699      1702      6347      6346      6348      6347      6346      6349
      6347      6346      6350      6348      6346      6349      6348      6346      6350
      6349      6346      6350      6346      6350      6351      6346      6350      6352
      6346      6350      6353      6351      6350      6352      6351      6350      6353
      6352      6350      6353      6350      6353      6354      6350      6353      6355
      6350      6353      6360      6354      6353      6355      6354      6353      6360
      6355      6353      6360      6357      6356      6358      6357      6356      6359
      6357      6356      6360      6358      6356      6359      6358      6356      6360
      6359      6356      6360      6356      6359      6361      6353      6360      6356
      6359      6361      6362      6359      6361      6363      6359      6361      6364
      6362      6361      6363      6362      6361      6364      6363      6361      6364
      6361      6364      6365      6361      6364      6366      6361      6364      6372
      6365      6364      6366      6365      6364      6372      6366      6364      6372
      6364      6366      6367      6366      6367      6368      6366      6367      6369
      6368      6367      6369      6367      6369      6370      6367      6369      6371
      6367      6369      6381      6370      6369      6371      6370      6369      6381
      6371      6369      6381      6364      6372      6373      6364      6372      6374
      6364      6372      6375      6373      6372      6374      6373      6372      6375
      6374      6372      6375      6372      6375      6376      6375      6376      6377
      6375      6376      6378      6377      6376      6378      6376      6378      6379
      6376      6378      6380      6376      6378      6428      6379      6378      6380
      6379      6378      6428      6380      6378      6428      6369      6381      6382
      6369      6381      6383      6369      6381      6384      6382      6381      6383
      6382      6381      6384      6383      6381      6384      6381      6384      6385
      6381      6384      6386      6381      6384      6387      6385      6384      6386
      6385      6384      6387      6386      6384      6387      6384      6387      6388
      6384      6387      6389      6384      6387      6390      6388      6387      6389
      6388      6387      6390      6389      6387      6390      6387      6390      6391
      6387      6390      6392      6387      6390      6393      6391      6390      6392
      6391      6390      6393      6392      6390      6393      6390      6393      6394
      6390      6393      6395      6390      6393      6396      6394      6393      6395
      6394      6393      6396      6395      6393      6396      6393      6396      6397
      6393      6396      6398      6393      6396      6399      6397      6396      6398
      6397      6396      6399      6398      6396      6399      6396      6399      6400
      6396      6399      6401      6400      6399      6401      6399      6401      6402
      6399      6401      6403      6402      6401      6403      6401      6403      6404
      6401      6403      6405      6401      6403      6406      6404      6403      6405
      6404      6403      6406      6405      6403      6406      6403      6406      6407
      6403      6406      6408      6403      6406      6409      6407      6406      6408
      6407      6406      6409      6408      6406      6409      6406      6409      6410
      6406      6409      6411      6406      6409      6412      6410      6409      6411
      6410      6409      6412      6411      6409      6412      6409      6412      6413
      6409      6412      6414      6409      6412      6415      6413      6412      6414
      6413      6412      6415      6414      6412      6415      6412      6415      6416
      6412      6415      6417      6412      6415      6418      6416      6415      6417
      6416      6415      6418      6417      6415      6418      6415      6418      6419
      6415      6418      6420      6415      6418      6421      6419      6418      6420
      6419      6418      6421      6420      6418      6421      6418      6421      6422
      6418      6421      6423      6418      6421      6424      6422      6421      6423
      6422      6421      6424      6423      6421      6424      6421      6424      6425
      6421      6424      6426      6421      6424      6427      6425      6424      6426
      6425      6424      6427      6426      6424      6427      6378      6428      6429
      6378      6428      6430      6378      6428      6431      6429      6428      6430
      6429      6428      6431      6430      6428      6431      6428      6431      6432
      6428      6431      6433      6428      6431      6434      6432      6431      6433
      6432      6431      6434      6433      6431      6434      6431      6434      6435
      6431      6434      6436      6431      6434      6437      6435      6434      6436
      6435      6434      6437      6436      6434      6437      6434      6437      6438
      6434      6437      6439      6434      6437      6440      6438      6437      6439
      6438      6437      6440      6439      6437      6440      6437      6440      6441
      6437      6440      6442      6437      6440      6443      6441      6440      6442
      6441      6440      6443      6442      6440      6443      6440      6443      6444
      6440      6443      6445      6440      6443      6446      6444      6443      6445
      6444      6443      6446      6445      6443      6446      6443      6446      6447
      6443      6446      6448      6443      6446      6449      6447      6446      6448
      6447      6446      6449      6448      6446      6449      6446      6449      6450
      6446      6449      6451      6446      6449      6452      6450      6449      6451
      6450      6449      6452      6451      6449      6452      6449      6452      6453
      6449      6452      6454      6449      6452      6455      6453      6452      6454
      6453      6452      6455      6454      6452      6455      6452      6455      6456
      6452      6455      6457      6452      6455      6458      6456      6455      6457
      6456      6455      6458      6457      6455      6458      6455      6458      6459
      6455      6458      6460      6455      6458      6461      6459      6458      6460
      6459      6458      6461      6460      6458      6461      6458      6461      6462
      6458      6461      6463      6458      6461      6464      6462      6461      6463
      6462      6461      6464      6463      6461      6464      6461      6464      6465
      6461      6464      6466      6461      6464      6467      6465      6464      6466
      6465      6464      6467      6466      6464      6467      6464      6467      6468
      6464      6467      6469      6464      6467      6470      6468      6467      6469
      6468      6467      6470      6469      6467      6470      6472      6471      6473
      6472      6471      6474      6472      6471      6475      6473      6471      6474
      6473      6471      6475      6474      6471      6475      6471      6475      6476
      6471      6475      6477      6471      6475      6478      6476      6475      6477
      6476      6475      6478      6477      6475      6478      6475      6478      6479
      6475      6478      6480      6475      6478      6485      6479      6478      6480
      6479      6478      6485      6480      6478      6485      6482      6481      6483
      6482      6481      6484      6482      6481      6485      6483      6481      6484
      6483      6481      6485      6484      6481      6485      6481      6484      6486
      6478      6485      6481      6484      6486      6487      6484      6486      6488
      6484      6486      6489      6487      6486      6488      6487      6486      6489
      6488      6486      6489      6486      6489      6490      6486      6489      6491
      6486      6489      6497      6490      6489      6491      6490      6489      6497
      6491      6489      6497      6489      6491      6492      6491      6492      6493
      6491      6492      6494      6493      6492      6494      6492      6494      6495
      6492      6494      6496      6492      6494      6506      6495      6494      6496
      6495      6494      6506      6496      6494      6506      6489      6497      6498
      6489      6497      6499      6489      6497      6500      6498      6497      6499
      6498      6497      6500      6499      6497      6500      6497      6500      6501
      6500      6501      6502      6500      6501      6503      6502      6501      6503
      6501      6503      6504      6501      6503      6505      6501      6503      6553
      6504      6503      6505      6504      6503      6553      6505      6503      6553
      6494      6506      6507      6494      6506      6508      6494      6506      6509
      6507      6506      6508      6507      6506      6509      6508      6506      6509
      6506      6509      6510      6506      6509      6511      6506      6509      6512
      6510      6509      6511      6510      6509      6512      6511      6509      6512
      6509      6512      6513      6509      6512      6514      6509      6512      6515
      6513      6512      6514      6513      6512      6515      6514      6512      6515
      6512      6515      6516      6512      6515      6517      6512      6515      6518
      6516      6515      6517      6516      6515      6518      6517      6515      6518
      6515      6518      6519      6515      6518      6520      6515      6518      6521
      6519      6518      6520      6519      6518      6521      6520      6518      6521
      6518      6521      6522      6518      6521      6523      6518      6521      6524
      6522      6521      6523      6522      6521      6524      6523      6521      6524
      6521      6524      6525      6521      6524      6526      6525      6524      6526
      6524      6526      6527      6524      6526      6528      6527      6526      6528
      6526      6528      6529      6526      6528      6530      6526      6528      6531
      6529      6528      6530      6529      6528      6531      6530      6528      6531
      6528      6531      6532      6528      6531      6533      6528      6531      6534
      6532      6531      6533      6532      6531      6534      6533      6531      6534
      6531      6534      6535      6531      6534      6536      6531      6534      6537
      6535      6534      6536      6535      6534      6537      6536      6534      6537
      6534      6537      6538      6534      6537      6539      6534      6537      6540
      6538      6537      6539      6538      6537      6540      6539      6537      6540
      6537      6540      6541      6537      6540      6542      6537      6540      6543
      6541      6540      6542      6541      6540      6543      6542      6540      6543
      6540      6543      6544      6540      6543      6545      6540      6543      6546
      6544      6543      6545      6544      6543      6546      6545      6543      6546
      6543      6546      6547      6543      6546      6548      6543      6546      6549
      6547      6546      6548      6547      6546      6549      6548      6546      6549
      6546      6549      6550      6546      6549      6551      6546      6549      6552
      6550      6549      6551      6550      6549      6552      6551      6549      6552
      6503      6553      6554      6503      6553      6555      6503      6553      6556
      6554      6553      6555      6554      6553      6556      6555      6553      6556
      6553      6556      6557      6553      6556      6558      6553      6556      6559
      6557      6556      6558      6557      6556      6559      6558      6556      6559
      6556      6559      6560      6556      6559      6561      6556      6559      6562
      6560      6559      6561      6560      6559      6562      6561      6559      6562
      6559      6562      6563      6559      6562      6564      6559      6562      6565
      6563      6562      6564      6563      6562      6565      6564      6562      6565
      6562      6565      6566      6562      6565      6567      6562      6565      6568
      6566      6565      6567      6566      6565      6568      6567      6565      6568
      6565      6568      6569      6565      6568      6570      6565      6568      6571
      6569      6568      6570      6569      6568      6571      6570      6568      6571
      6568      6571      6572      6568      6571      6573      6568      6571      6574
      6572      6571      6573      6572      6571      6574      6573      6571      6574
      6571      6574      6575      6571      6574      6576      6571      6574      6577
      6575      6574      6576      6575      6574      6577      6576      6574      6577
      6574      6577      6578      6574      6577      6579      6574      6577      6580
      6578      6577      6579      6578      6577      6580      6579      6577      6580
      6577      6580      6581      6577      6580      6582      6577      6580      6583
      6581      6580      6582      6581      6580      6583      6582      6580      6583
      6580      6583      6584      6580      6583      6585      6580      6583      6586
      6584      6583      6585      6584      6583      6586      6585      6583      6586
      6583      6586      6587      6583      6586      6588      6583      6586      6589
      6587      6586      6588      6587      6586      6589      6588      6586      6589
      6586      6589      6590      6586      6589      6591      6586      6589      6592
      6590      6589      6591      6590      6589      6592      6591      6589      6592
      6589      6592      6593      6589      6592      6594      6589      6592      6595
      6593      6592      6594      6593      6592      6595      6594      6592      6595
     11774     11773     11775     11774     11773     11776     11774     11773     11777
     11775     11773     11776     11775     11773     11777     11776     11773     11777
     11773     11777     11778     11773     11777     11779     11773     11777     11782
     11778     11777     11779     11778     11777     11782     11779     11777     11782
     11777     11779     11780     11777     11779     11781     11780     11779     11781
     11777     11782     11783     11777     11782     11784     11777     11782     11788
     11783     11782     11784     11783     11782     11788     11784     11782     11788
     11786     11785     11787     11786     11785     11788     11786     11785     11789
     11787     11785     11788     11787     11785     11789     11788     11785     11789
     11782     11788     11785     11785     11789     11790     11789     11790     11791
     11789     11790     11792     11789     11790     11793     11791     11790     11792
     11791     11790     11793     11792     11790     11793     11790     11793     11794
     11790     11793     11795     11790     11793     11801     11794     11793     11795
     11794     11793     11801     11795     11793     11801     11793     11795     11796
     11795     11796     11797     11795     11796     11798     11797     11796     11798
     11796     11798     11799     11796     11798     11800     11796     11798     11810
     11799     11798     11800     11799     11798     11810     11800     11798     11810
     11793     11801     11802     11793     11801     11803     11793     11801     11804
     11802     11801     11803     11802     11801     11804     11803     11801     11804
     11801     11804     11805     11804     11805     11806     11804     11805     11807
     11806     11805     11807     11805     11807     11808     11805     11807     11809
     11805     11807     11857     11808     11807     11809     11808     11807     11857
     11809     11807     11857     11798     11810     11811     11798     11810     11812
     11798     11810     11813     11811     11810     11812     11811     11810     11813
     11812     11810     11813     11810     11813     11814     11810     11813     11815
     11810     11813     11816     11814     11813     11815     11814     11813     11816
     11815     11813     11816     11813     11816     11817     11813     11816     11818
     11813     11816     11819     11817     11816     11818     11817     11816     11819
     11818     11816     11819     11816     11819     11820     11816     11819     11821
     11816     11819     11822     11820     11819     11821     11820     11819     11822
     11821     11819     11822     11819     11822     11823     11819     11822     11824
     11819     11822     11825     11823     11822     11824     11823     11822     11825
     11824     11822     11825     11822     11825     11826     11822     11825     11827
     11822     11825     11828     11826     11825     11827     11826     11825     11828
     11827     11825     11828     11825     11828     11829     11825     11828     11830
     11829     11828     11830     11828     11830     11831     11828     11830     11832
     11831     11830     11832     11830     11832     11833     11830     11832     11834
     11830     11832     11835     11833     11832     11834     11833     11832     11835
     11834     11832     11835     11832     11835     11836     11832     11835     11837
     11832     11835     11838     11836     11835     11837     11836     11835     11838
     11837     11835     11838     11835     11838     11839     11835     11838     11840
     11835     11838     11841     11839     11838     11840     11839     11838     11841
     11840     11838     11841     11838     11841     11842     11838     11841     11843
     11838     11841     11844     11842     11841     11843     11842     11841     11844
     11843     11841     11844     11841     11844     11845     11841     11844     11846
     11841     11844     11847     11845     11844     11846     11845     11844     11847
     11846     11844     11847     11844     11847     11848     11844     11847     11849
     11844     11847     11850     11848     11847     11849     11848     11847     11850
     11849     11847     11850     11847     11850     11851     11847     11850     11852
     11847     11850     11853     11851     11850     11852     11851     11850     11853
     11852     11850     11853     11850     11853     11854     11850     11853     11855
     11850     11853     11856     11854     11853     11855     11854     11853     11856
     11855     11853     11856     11807     11857     11858     11807     11857     11859
     11807     11857     11860     11858     11857     11859     11858     11857     11860
     11859     11857     11860     11857     11860     11861     11857     11860     11862
     11857     11860     11863     11861     11860     11862     11861     11860     11863
     11862     11860     11863     11860     11863     11864     11860     11863     11865
     11860     11863     11866     11864     11863     11865     11864     11863     11866
     11865     11863     11866     11863     11866     11867     11863     11866     11868
     11863     11866     11869     11867     11866     11868     11867     11866     11869
     11868     11866     11869     11866     11869     11870     11866     11869     11871
     11866     11869     11872     11870     11869     11871     11870     11869     11872
     11871     11869     11872     11869     11872     11873     11869     11872     11874
     11869     11872     11875     11873     11872     11874     11873     11872     11875
     11874     11872     11875     11872     11875     11876     11872     11875     11877
     11872     11875     11878     11876     11875     11877     11876     11875     11878
     11877     11875     11878     11875     11878     11879     11875     11878     11880
     11875     11878     11881     11879     11878     11880     11879     11878     11881
     11880     11878     11881     11878     11881     11882     11878     11881     11883
     11878     11881     11884     11882     11881     11883     11882     11881     11884
     11883     11881     11884     11881     11884     11885     11881     11884     11886
     11881     11884     11887     11885     11884     11886     11885     11884     11887
     11886     11884     11887     11884     11887     11888     11884     11887     11889
     11884     11887     11890     11888     11887     11889     11888     11887     11890
     11889     11887     11890     11887     11890     11891     11887     11890     11892
     11887     11890     11893     11891     11890     11892     11891     11890     11893
     11892     11890     11893     11890     11893     11894     11890     11893     11895
     11890     11893     11896     11894     11893     11895     11894     11893     11896
     11895     11893     11896     11893     11896     11897     11893     11896     11898
     11893     11896     11899     11897     11896     11898     11897     11896     11899
     11898     11896     11899     19180     19179     19183     19180     19179     19187
     19180     19179     19191     19183     19179     19187     19183     19179     19191
     19187     19179     19191     19179     19180     19181     19179     19180     19182
     19179     19180     19195     19181     19180     19182     19181     19180     19195
     19182     19180     19195     19179     19183     19184     19179     19183     19185
     19179     19183     19186     19184     19183     19185     19184     19183     19186
     19185     19183     19186     19179     19187     19188     19179     19187     19189
     19179     19187     19190     19188     19187     19189     19188     19187     19190
     19189     19187     19190     19179     19191     19192     19179     19191     19193
     19179     19191     19194     19192     19191     19193     19192     19191     19194
     19193     19191     19194     19180     19195     19196     19180     19195     19197
     19180     19195     19201     19196     19195     19197     19196     19195     19201
     19197     19195     19201     19199     19198     19200     19199     19198     19201
     19199     19198     19202     19200     19198     19201     19200     19198     19202
     19201     19198     19202     19195     19201     19198     19198     19202     19203
     19202     19203     19204     19202     19203     19205     19202     19203     19206
     19204     19203     19205     19204     19203     19206     19205     19203     19206
     19203     19206     19207     19203     19206     19208     19203     19206     19214
     19207     19206     19208     19207     19206     19214     19208     19206     19214
     19206     19208     19209     19208     19209     19210     19208     19209     19211
     19210     19209     19211     19209     19211     19212     19209     19211     19213
     19209     19211     19223     19212     19211     19213     19212     19211     19223
     19213     19211     19223     19206     19214     19215     19206     19214     19216
     19206     19214     19217     19215     19214     19216     19215     19214     19217
     19216     19214     19217     19214     19217     19218     19217     19218     19219
     19217     19218     19220     19219     19218     19220     19218     19220     19221
     19218     19220     19222     19218     19220     19270     19221     19220     19222
     19221     19220     19270     19222     19220     19270     19211     19223     19224
     19211     19223     19225     19211     19223     19226     19224     19223     19225
     19224     19223     19226     19225     19223     19226     19223     19226     19227
     19223     19226     19228     19223     19226     19229     19227     19226     19228
     19227     19226     19229     19228     19226     19229     19226     19229     19230
     19226     19229     19231     19226     19229     19232     19230     19229     19231
     19230     19229     19232     19231     19229     19232     19229     19232     19233
     19229     19232     19234     19229     19232     19235     19233     19232     19234
     19233     19232     19235     19234     19232     19235     19232     19235     19236
     19232     19235     19237     19232     19235     19238     19236     19235     19237
     19236     19235     19238     19237     19235     19238     19235     19238     19239
     19235     19238     19240     19235     19238     19241     19239     19238     19240
     19239     19238     19241     19240     19238     19241     19238     19241     19242
     19238     19241     19243     19242     19241     19243     19241     19243     19244
     19241     19243     19245     19244     19243     19245     19243     19245     19246
     19243     19245     19247     19243     19245     19248     19246     19245     19247
     19246     19245     19248     19247     19245     19248     19245     19248     19249
     19245     19248     19250     19245     19248     19251     19249     19248     19250
     19249     19248     19251     19250     19248     19251     19248     19251     19252
     19248     19251     19253     19248     19251     19254     19252     19251     19253
     19252     19251     19254     19253     19251     19254     19251     19254     19255
     19251     19254     19256     19251     19254     19257     19255     19254     19256
     19255     19254     19257     19256     19254     19257     19254     19257     19258
     19254     19257     19259     19254     19257     19260     19258     19257     19259
     19258     19257     19260     19259     19257     19260     19257     19260     19261
     19257     19260     19262     19257     19260     19263     19261     19260     19262
     19261     19260     19263     19262     19260     19263     19260     19263     19264
     19260     19263     19265     19260     19263     19266     19264     19263     19265
     19264     19263     19266     19265     19263     19266     19263     19266     19267
     19263     19266     19268     19263     19266     19269     19267     19266     19268
     19267     19266     19269     19268     19266     19269     19220     19270     19271
     19220     19270     19272     19220     19270     19273     19271     19270     19272
     19271     19270     19273     19272     19270     19273     19270     19273     19274
     19270     19273     19275     19270     19273     19276     19274     19273     19275
     19274     19273     19276     19275     19273     19276     19273     19276     19277
     19273     19276     19278     19273     19276     19279     19277     19276     19278
     19277     19276     19279     19278     19276     19279     19276     19279     19280
     19276     19279     19281     19276     19279     19282     19280     19279     19281
     19280     19279     19282     19281     19279     19282     19279     19282     19283
     19279     19282     19284     19279     19282     19285     19283     19282     19284
     19283     19282     19285     19284     19282     19285     19282     19285     19286
     19282     19285     19287     19282     19285     19288     19286     19285     19287
     19286     19285     19288     19287     19285     19288     19285     19288     19289
     19285     19288     19290     19285     19288     19291     19289     19288     19290
     19289     19288     19291     19290     19288     19291     19288     19291     19292
     19288     19291     19293     19288     19291     19294     19292     19291     19293
     19292     19291     19294     19293     19291     19294     19291     19294     19295
     19291     19294     19296     19291     19294     19297     19295     19294     19296
     19295     19294     19297     19296     19294     19297     19294     19297     19298
     19294     19297     19299     19294     19297     19300     19298     19297     19299
     19298     19297     19300     19299     19297     19300     19297     19300     19301
     19297     19300     19302     19297     19300     19303     19301     19300     19302
     19301     19300     19303     19302     19300     19303     19300     19303     19304
     19300     19303     19305     19300     19303     19306     19304     19303     19305
     19304     19303     19306     19305     19303     19306     19303     19306     19307
     19303     19306     19308     19303     19306     19309     19307     19306     19308
     19307     19306     19309     19308     19306     19309     19306     19309     19310
     19306     19309     19311     19306     19309     19312     19310     19309     19311
     19310     19309     19312     19311     19309     19312     11901     11900     11902
     11901     11900     11903     11901     11900     11904     11902     11900     11903
     11902     11900     11904     11903     11900     11904     11900     11904     11905
     11900     11904     11906     11900     11904     11909     11905     11904     11906
     11905     11904     11909     11906     11904     11909     11904     11906     11907
     11904     11906     11908     11907     11906     11908     11904     11909     11910
     11904     11909     11911     11904     11909     11915     11910     11909     11911
     11910     11909     11915     11911     11909     11915     11913     11912     11914
     11913     11912     11915     11913     11912     11916     11914     11912     11915
     11914     11912     11916     11915     11912     11916     11909     11915     11912
     11912     11916     11917     11916     11917     11918     11916     11917     11919
     11916     11917     11920     11918     11917     11919     11918     11917     11920
     11919     11917     11920     11917     11920     11921     11917     11920     11922
     11917     11920     11928     11921     11920     11922     11921     11920     11928
     11922     11920     11928     11920     11922     11923     11922     11923     11924
     11922     11923     11925     11924     11923     11925     11923     11925     11926
     11923     11925     11927     11923     11925     11937     11926     11925     11927
     11926     11925     11937     11927     11925     11937     11920     11928     11929
     11920     11928     11930     11920     11928     11931     11929     11928     11930
     11929     11928     11931     11930     11928     11931     11928     11931     11932
     11931     11932     11933     11931     11932     11934     11933     11932     11934
     11932     11934     11935     11932     11934     11936     11932     11934     11984
     11935     11934     11936     11935     11934     11984     11936     11934     11984
     11925     11937     11938     11925     11937     11939     11925     11937     11940
     11938     11937     11939     11938     11937     11940     11939     11937     11940
     11937     11940     11941     11937     11940     11942     11937     11940     11943
     11941     11940     11942     11941     11940     11943     11942     11940     11943
     11940     11943     11944     11940     11943     11945     11940     11943     11946
     11944     11943     11945     11944     11943     11946     11945     11943     11946
     11943     11946     11947     11943     11946     11948     11943     11946     11949
     11947     11946     11948     11947     11946     11949     11948     11946     11949
     11946     11949     11950     11946     11949     11951     11946     11949     11952
     11950     11949     11951     11950     11949     11952     11951     11949     11952
     11949     11952     11953     11949     11952     11954     11949     11952     11955
     11953     11952     11954     11953     11952     11955     11954     11952     11955
     11952     11955     11956     11952     11955     11957     11956     11955     11957
     11955     11957     11958     11955     11957     11959     11958     11957     11959
     11957     11959     11960     11957     11959     11961     11957     11959     11962
     11960     11959     11961     11960     11959     11962     11961     11959     11962
     11959     11962     11963     11959     11962     11964     11959     11962     11965
     11963     11962     11964     11963     11962     11965     11964     11962     11965
     11962     11965     11966     11962     11965     11967     11962     11965     11968
     11966     11965     11967     11966     11965     11968     11967     11965     11968
     11965     11968     11969     11965     11968     11970     11965     11968     11971
     11969     11968     11970     11969     11968     11971     11970     11968     11971
     11968     11971     11972     11968     11971     11973     11968     11971     11974
     11972     11971     11973     11972     11971     11974     11973     11971     11974
     11971     11974     11975     11971     11974     11976     11971     11974     11977
     11975     11974     11976     11975     11974     11977     11976     11974     11977
     11974     11977     11978     11974     11977     11979     11974     11977     11980
     11978     11977     11979     11978     11977     11980     11979     11977     11980
     11977     11980     11981     11977     11980     11982     11977     11980     11983
     11981     11980     11982     11981     11980     11983     11982     11980     11983
     11934     11984     11985     11934     11984     11986     11934     11984     11987
     11985     11984     11986     11985     11984     11987     11986     11984     11987
     11984     11987     11988     11984     11987     11989     11984     11987     11990
     11988     11987     11989     11988     11987     11990     11989     11987     11990
     11987     11990     11991     11987     11990     11992     11987     11990     11993
     11991     11990     11992     11991     11990     11993     11992     11990     11993
     11990     11993     11994     11990     11993     11995     11990     11993     11996
     11994     11993     11995     11994     11993     11996     11995     11993     11996
     11993     11996     11997     11993     11996     11998     11993     11996     11999
     11997     11996     11998     11997     11996     11999     11998     11996     11999
     11996     11999     12000     11996     11999     12001     11996     11999     12002
     12000     11999     12001     12000     11999     12002     12001     11999     12002
     11999     12002     12003     11999     12002     12004     11999     12002     12005
     12003     12002     12004     12003     12002     12005     12004     12002     12005
     12002     12005     12006     12002     12005     12007     12002     12005     12008
     12006     12005     12007     12006     12005     12008     12007     12005     12008
     12005     12008     12009     12005     12008     12010     12005     12008     12011
     12009     12008     12010     12009     12008     12011     12010     12008     12011
     12008     12011     12012     12008     12011     12013     12008     12011     12014
     12012     12011     12013     12012     12011     12014     12013     12011     12014
     12011     12014     12015     12011     12014     12016     12011     12014     12017
     12015     12014     12016     12015     12014     12017     12016     12014     12017
     12014     12017     12018     12014     12017     12019     12014     12017     12020
     12018     12017     12019     12018     12017     12020     12019     12017     12020
     12017     12020     12021     12017     12020     12022     12017     12020     12023
     12021     12020     12022     12021     12020     12023     12022     12020     12023
     12020     12023     12024     12020     12023     12025     12020     12023     12026
     12024     12023     12025     12024     12023     12026     12025     12023     12026
      1704      1703      1705      1704      1703      1707      1704      1703      1749
      1705      1703      1707      1705      1703      1749      1707      1703      1749
      1703      1705      1706      1703      1707      1708      1703      1707      1709
      1703      1707      1710      1708      1707      1709      1708      1707      1710
      1709      1707      1710      1707      1710      1711      1707      1710      1741
      1711      1710      1741      1710      1711      1712      1710      1711      1713
      1712      1711      1713      1711      1713      1714      1711      1713      1715
      1711      1713      1716      1714      1713      1715      1714      1713      1716
      1715      1713      1716      1713      1716      1717      1713      1716      1718
      1713      1716      1739      1717      1716      1718      1717      1716      1739
      1718      1716      1739      1716      1718      1719      1716      1718      1720
      1716      1718      1728      1719      1718      1720      1719      1718      1728
      1720      1718      1728      1718      1720      1721      1718      1720      1722
      1718      1720      1723      1721      1720      1722      1721      1720      1723
      1722      1720      1723      1720      1723      1724      1720      1723      1725
      1720      1723      1726      1724      1723      1725      1724      1723      1726
      1725      1723      1726      1723      1726      1727      1723      1726      1728
      1723      1726      1752      1727      1726      1728      1727      1726      1752
      1728      1726      1752      1718      1728      1726      1718      1728      1729
      1718      1728      1733      1726      1728      1729      1726      1728      1733
      1729      1728      1733      1728      1729      1730      1728      1729      1731
      1728      1729      1732      1730      1729      1731      1730      1729      1732
      1731      1729      1732      1728      1733      1734      1728      1733      1735
      1728      1733      1736      1734      1733      1735      1734      1733      1736
      1735      1733      1736      1733      1736      1737      1733      1736      1738
      1733      1736      1739      1737      1736      1738      1737      1736      1739
      1738      1736      1739      1716      1739      1736      1716      1739      1740
      1716      1739      1741      1736      1739      1740      1736      1739      1741
      1740      1739      1741      1710      1741      1739      1710      1741      1742
      1710      1741      1746      1739      1741      1742      1739      1741      1746
      1742      1741      1746      1741      1742      1743      1741      1742      1744
      1741      1742      1745      1743      1742      1744      1743      1742      1745
      1744      1742      1745      1741      1746      1747      1741      1746      1748
      1741      1746      1749      1747      1746      1748      1747      1746      1749
      1748      1746      1749      1703      1749      1746      1703      1749      1750
      1703      1749      1751      1746      1749      1750      1746      1749      1751
      1750      1749      1751      1726      1752      1753      1726      1752      1754
      1726      1752      1758      1753      1752      1754      1753      1752      1758
      1754      1752      1758      1752      1754      1755      1752      1754      1756
      1752      1754      1757      1755      1754      1756      1755      1754      1757
      1756      1754      1757      1752      1758      1759      1752      1758      1760
      1752      1758      1761      1759      1758      1760      1759      1758      1761
      1760      1758      1761      1758      1761      1762      1758      1761      1763
      1758      1761      1764      1762      1761      1763      1762      1761      1764
      1763      1761      1764      1761      1764      1765      1761      1764      1766
      1761      1764      1767      1765      1764      1766      1765      1764      1767
      1766      1764      1767      1764      1767      1768      1764      1767      1769
      1764      1767      1773      1768      1767      1769      1768      1767      1773
      1769      1767      1773      1767      1769      1770      1767      1769      1771
      1767      1769      1772      1770      1769      1771      1770      1769      1772
      1771      1769      1772      1767      1773      1774      1767      1773      1775
      1767      1773      1776      1774      1773      1775      1774      1773      1776
      1775      1773      1776      6597      6596      6598      6597      6596      6599
      6597      6596      6600      6598      6596      6599      6598      6596      6600
      6599      6596      6600      6596      6600      6601      6596      6600      6602
      6596      6600      6603      6601      6600      6602      6601      6600      6603
      6602      6600      6603      6600      6603      6604      6600      6603      6605
      6600      6603      6610      6604      6603      6605      6604      6603      6610
      6605      6603      6610      6607      6606      6608      6607      6606      6609
      6607      6606      6610      6608      6606      6609      6608      6606      6610
      6609      6606      6610      6606      6609      6611      6603      6610      6606
      6609      6611      6612      6609      6611      6613      6609      6611      6614
      6612      6611      6613      6612      6611      6614      6613      6611      6614
      6611      6614      6615      6611      6614      6616      6611      6614      6622
      6615      6614      6616      6615      6614      6622      6616      6614      6622
      6614      6616      6617      6616      6617      6618      6616      6617      6619
      6618      6617      6619      6617      6619      6620      6617      6619      6621
      6617      6619      6631      6620      6619      6621      6620      6619      6631
      6621      6619      6631      6614      6622      6623      6614      6622      6624
      6614      6622      6625      6623      6622      6624      6623      6622      6625
      6624      6622      6625      6622      6625      6626      6625      6626      6627
      6625      6626      6628      6627      6626      6628      6626      6628      6629
      6626      6628      6630      6626      6628      6678      6629      6628      6630
      6629      6628      6678      6630      6628      6678      6619      6631      6632
      6619      6631      6633      6619      6631      6634      6632      6631      6633
      6632      6631      6634      6633      6631      6634      6631      6634      6635
      6631      6634      6636      6631      6634      6637      6635      6634      6636
      6635      6634      6637      6636      6634      6637      6634      6637      6638
      6634      6637      6639      6634      6637      6640      6638      6637      6639
      6638      6637      6640      6639      6637      6640      6637      6640      6641
      6637      6640      6642      6637      6640      6643      6641      6640      6642
      6641      6640      6643      6642      6640      6643      6640      6643      6644
      6640      6643      6645      6640      6643      6646      6644      6643      6645
      6644      6643      6646      6645      6643      6646      6643      6646      6647
      6643      6646      6648      6643      6646      6649      6647      6646      6648
      6647      6646      6649      6648      6646      6649      6646      6649      6650
      6646      6649      6651      6650      6649      6651      6649      6651      6652
      6649      6651      6653      6652      6651      6653      6651      6653      6654
      6651      6653      6655      6651      6653      6656      6654      6653      6655
      6654      6653      6656      6655      6653      6656      6653      6656      6657
      6653      6656      6658      6653      6656      6659      6657      6656      6658
      6657      6656      6659      6658      6656      6659      6656      6659      6660
      6656      6659      6661      6656      6659      6662      6660      6659      6661
      6660      6659      6662      6661      6659      6662      6659      6662      6663
      6659      6662      6664      6659      6662      6665      6663      6662      6664
      6663      6662      6665      6664      6662      6665      6662      6665      6666
      6662      6665      6667      6662      6665      6668      6666      6665      6667
      6666      6665      6668      6667      6665      6668      6665      6668      6669
      6665      6668      6670      6665      6668      6671      6669      6668      6670
      6669      6668      6671      6670      6668      6671      6668      6671      6672
      6668      6671      6673      6668      6671      6674      6672      6671      6673
      6672      6671      6674      6673      6671      6674      6671      6674      6675
      6671      6674      6676      6671      6674      6677      6675      6674      6676
      6675      6674      6677      6676      6674      6677      6628      6678      6679
      6628      6678      6680      6628      6678      6681      6679      6678      6680
      6679      6678      6681      6680      6678      6681      6678      6681      6682
      6678      6681      6683      6678      6681      6684      6682      6681      6683
      6682      6681      6684      6683      6681      6684      6681      6684      6685
      6681      6684      6686      6681      6684      6687      6685      6684      6686
      6685      6684      6687      6686      6684      6687      6684      6687      6688
      6684      6687      6689      6684      6687      6690      6688      6687      6689
      6688      6687      6690      6689      6687      6690      6687      6690      6691
      6687      6690      6692      6687      6690      6693      6691      6690      6692
      6691      6690      6693      6692      6690      6693      6690      6693      6694
      6690      6693      6695      6690      6693      6696      6694      6693      6695
      6694      6693      6696      6695      6693      6696      6693      6696      6697
      6693      6696      6698      6693      6696      6699      6697      6696      6698
      6697      6696      6699      6698      6696      6699      6696      6699      6700
      6696      6699      6701      6696      6699      6702      6700      6699      6701
      6700      6699      6702      6701      6699      6702      6699      6702      6703
      6699      6702      6704      6699      6702      6705      6703      6702      6704
      6703      6702      6705      6704      6702      6705      6702      6705      6706
      6702      6705      6707      6702      6705      6708      6706      6705      6707
      6706      6705      6708      6707      6705      6708      6705      6708      6709
      6705      6708      6710      6705      6708      6711      6709      6708      6710
      6709      6708      6711      6710      6708      6711      6708      6711      6712
      6708      6711      6713      6708      6711      6714      6712      6711      6713
      6712      6711      6714      6713      6711      6714      6711      6714      6715
      6711      6714      6716      6711      6714      6717      6715      6714      6716
      6715      6714      6717      6716      6714      6717      6714      6717      6718
      6714      6717      6719      6714      6717      6720      6718      6717      6719
      6718      6717      6720      6719      6717      6720      1778      1777      1779
      1778      1777      1781      1778      1777      1823      1779      1777      1781
      1779      1777      1823      1781      1777      1823      1777      1779      1780
      1777      1781      1782      1777      1781      1783      1777      1781      1784
      1782      1781      1783      1782      1781      1784      1783      1781      1784
      1781      1784      1785      1781      1784      1815      1785      1784      1815
      1784      1785      1786      1784      1785      1787      1786      1785      1787
      1785      1787      1788      1785      1787      1789      1785      1787      1790
      1788      1787      1789      1788      1787      1790      1789      1787      1790
      1787      1790      1791      1787      1790      1792      1787      1790      1813
      1791      1790      1792      1791      1790      1813      1792      1790      1813
      1790      1792      1793      1790      1792      1794      1790      1792      1802
      1793      1792      1794      1793      1792      1802      1794      1792      1802
      1792      1794      1795      1792      1794      1796      1792      1794      1797
      1795      1794      1796      1795      1794      1797      1796      1794      1797
      1794      1797      1798      1794      1797      1799      1794      1797      1800
      1798      1797      1799      1798      1797      1800      1799      1797      1800
      1797      1800      1801      1797      1800      1802      1797      1800      1826
      1801      1800      1802      1801      1800      1826      1802      1800      1826
      1792      1802      1800      1792      1802      1803      1792      1802      1807
      1800      1802      1803      1800      1802      1807      1803      1802      1807
      1802      1803      1804      1802      1803      1805      1802      1803      1806
      1804      1803      1805      1804      1803      1806      1805      1803      1806
      1802      1807      1808      1802      1807      1809      1802      1807      1810
      1808      1807      1809      1808      1807      1810      1809      1807      1810
      1807      1810      1811      1807      1810      1812      1807      1810      1813
      1811      1810      1812      1811      1810      1813      1812      1810      1813
      1790      1813      1810      1790      1813      1814      1790      1813      1815
      1810      1813      1814      1810      1813      1815      1814      1813      1815
      1784      1815      1813      1784      1815      1816      1784      1815      1820
      1813      1815      1816      1813      1815      1820      1816      1815      1820
      1815      1816      1817      1815      1816      1818      1815      1816      1819
      1817      1816      1818      1817      1816      1819      1818      1816      1819
      1815      1820      1821      1815      1820      1822      1815      1820      1823
      1821      1820      1822      1821      1820      1823      1822      1820      1823
      1777      1823      1820      1777      1823      1824      1777      1823      1825
      1820      1823      1824      1820      1823      1825      1824      1823      1825
      1800      1826      1827      1800      1826      1828      1800      1826      1832
      1827      1826      1828      1827      1826      1832      1828      1826      1832
      1826      1828      1829      1826      1828      1830      1826      1828      1831
      1829      1828      1830      1829      1828      1831      1830      1828      1831
      1826      1832      1833      1826      1832      1834      1826      1832      1835
      1833      1832      1834      1833      1832      1835      1834      1832      1835
      1832      1835      1836      1832      1835      1837      1832      1835      1838
      1836      1835      1837      1836      1835      1838      1837      1835      1838
      1835      1838      1839      1835      1838      1840      1835      1838      1841
      1839      1838      1840      1839      1838      1841      1840      1838      1841
      1838      1841      1842      1838      1841      1843      1838      1841      1847
      1842      1841      1843      1842      1841      1847      1843      1841      1847
      1841      1843      1844      1841      1843      1845      1841      1843      1846
      1844      1843      1845      1844      1843      1846      1845      1843      1846
      1841      1847      1848      1841      1847      1849      1841      1847      1850
      1848      1847      1849      1848      1847      1850      1849      1847      1850
     19314     19313     19317     19314     19313     19321     19314     19313     19325
     19317     19313     19321     19317     19313     19325     19321     19313     19325
     19313     19314     19315     19313     19314     19316     19313     19314     19329
     19315     19314     19316     19315     19314     19329     19316     19314     19329
     19313     19317     19318     19313     19317     19319     19313     19317     19320
     19318     19317     19319     19318     19317     19320     19319     19317     19320
     19313     19321     19322     19313     19321     19323     19313     19321     19324
     19322     19321     19323     19322     19321     19324     19323     19321     19324
     19313     19325     19326     19313     19325     19327     19313     19325     19328
     19326     19325     19327     19326     19325     19328     19327     19325     19328
     19314     19329     19330     19314     19329     19331     19314     19329     19335
     19330     19329     19331     19330     19329     19335     19331     19329     19335
     19333     19332     19334     19333     19332     19335     19333     19332     19336
     19334     19332     19335     19334     19332     19336     19335     19332     19336
     19329     19335     19332     19332     19336     19337     19336     19337     19338
     19336     19337     19339     19336     19337     19340     19338     19337     19339
     19338     19337     19340     19339     19337     19340     19337     19340     19341
     19337     19340     19342     19337     19340     19348     19341     19340     19342
     19341     19340     19348     19342     19340     19348     19340     19342     19343
     19342     19343     19344     19342     19343     19345     19344     19343     19345
     19343     19345     19346     19343     19345     19347     19343     19345     19357
     19346     19345     19347     19346     19345     19357     19347     19345     19357
     19340     19348     19349     19340     19348     19350     19340     19348     19351
     19349     19348     19350     19349     19348     19351     19350     19348     19351
     19348     19351     19352     19351     19352     19353     19351     19352     19354
     19353     19352     19354     19352     19354     19355     19352     19354     19356
     19352     19354     19404     19355     19354     19356     19355     19354     19404
     19356     19354     19404     19345     19357     19358     19345     19357     19359
     19345     19357     19360     19358     19357     19359     19358     19357     19360
     19359     19357     19360     19357     19360     19361     19357     19360     19362
     19357     19360     19363     19361     19360     19362     19361     19360     19363
     19362     19360     19363     19360     19363     19364     19360     19363     19365
     19360     19363     19366     19364     19363     19365     19364     19363     19366
     19365     19363     19366     19363     19366     19367     19363     19366     19368
     19363     19366     19369     19367     19366     19368     19367     19366     19369
     19368     19366     19369     19366     19369     19370     19366     19369     19371
     19366     19369     19372     19370     19369     19371     19370     19369     19372
     19371     19369     19372     19369     19372     19373     19369     19372     19374
     19369     19372     19375     19373     19372     19374     19373     19372     19375
     19374     19372     19375     19372     19375     19376     19372     19375     19377
     19376     19375     19377     19375     19377     19378     19375     19377     19379
     19378     19377     19379     19377     19379     19380     19377     19379     19381
     19377     19379     19382     19380     19379     19381     19380     19379     19382
     19381     19379     19382     19379     19382     19383     19379     19382     19384
     19379     19382     19385     19383     19382     19384     19383     19382     19385
     19384     19382     19385     19382     19385     19386     19382     19385     19387
     19382     19385     19388     19386     19385     19387     19386     19385     19388
     19387     19385     19388     19385     19388     19389     19385     19388     19390
     19385     19388     19391     19389     19388     19390     19389     19388     19391
     19390     19388     19391     19388     19391     19392     19388     19391     19393
     19388     19391     19394     19392     19391     19393     19392     19391     19394
     19393     19391     19394     19391     19394     19395     19391     19394     19396
     19391     19394     19397     19395     19394     19396     19395     19394     19397
     19396     19394     19397     19394     19397     19398     19394     19397     19399
     19394     19397     19400     19398     19397     19399     19398     19397     19400
     19399     19397     19400     19397     19400     19401     19397     19400     19402
     19397     19400     19403     19401     19400     19402     19401     19400     19403
     19402     19400     19403     19354     19404     19405     19354     19404     19406
     19354     19404     19407     19405     19404     19406     19405     19404     19407
     19406     19404     19407     19404     19407     19408     19404     19407     19409
     19404     19407     19410     19408     19407     19409     19408     19407     19410
     19409     19407     19410     19407     19410     19411     19407     19410     19412
     19407     19410     19413     19411     19410     19412     19411     19410     19413
     19412     19410     19413     19410     19413     19414     19410     19413     19415
     19410     19413     19416     19414     19413     19415     19414     19413     19416
     19415     19413     19416     19413     19416     19417     19413     19416     19418
     19413     19416     19419     19417     19416     19418     19417     19416     19419
     19418     19416     19419     19416     19419     19420     19416     19419     19421
     19416     19419     19422     19420     19419     19421     19420     19419     19422
     19421     19419     19422     19419     19422     19423     19419     19422     19424
     19419     19422     19425     19423     19422     19424     19423     19422     19425
     19424     19422     19425     19422     19425     19426     19422     19425     19427
     19422     19425     19428     19426     19425     19427     19426     19425     19428
     19427     19425     19428     19425     19428     19429     19425     19428     19430
     19425     19428     19431     19429     19428     19430     19429     19428     19431
     19430     19428     19431     19428     19431     19432     19428     19431     19433
     19428     19431     19434     19432     19431     19433     19432     19431     19434
     19433     19431     19434     19431     19434     19435     19431     19434     19436
     19431     19434     19437     19435     19434     19436     19435     19434     19437
     19436     19434     19437     19434     19437     19438     19434     19437     19439
     19434     19437     19440     19438     19437     19439     19438     19437     19440
     19439     19437     19440     19437     19440     19441     19437     19440     19442
     19437     19440     19443     19441     19440     19442     19441     19440     19443
     19442     19440     19443     19440     19443     19444     19440     19443     19445
     19440     19443     19446     19444     19443     19445     19444     19443     19446
     19445     19443     19446      1852      1851      1853      1852      1851      1855
      1852      1851      1897      1853      1851      1855      1853      1851      1897
      1855      1851      1897      1851      1853      1854      1851      1855      1856
      1851      1855      1857      1851      1855      1858      1856      1855      1857
      1856      1855      1858      1857      1855      1858      1855      1858      1859
      1855      1858      1889      1859      1858      1889      1858      1859      1860
      1858      1859      1861      1860      1859      1861      1859      1861      1862
      1859      1861      1863      1859      1861      1864      1862      1861      1863
      1862      1861      1864      1863      1861      1864      1861      1864      1865
      1861      1864      1866      1861      1864      1887      1865      1864      1866
      1865      1864      1887      1866      1864      1887      1864      1866      1867
      1864      1866      1868      1864      1866      1876      1867      1866      1868
      1867      1866      1876      1868      1866      1876      1866      1868      1869
      1866      1868      1870      1866      1868      1871      1869      1868      1870
      1869      1868      1871      1870      1868      1871      1868      1871      1872
      1868      1871      1873      1868      1871      1874      1872      1871      1873
      1872      1871      1874      1873      1871      1874      1871      1874      1875
      1871      1874      1876      1871      1874      1900      1875      1874      1876
      1875      1874      1900      1876      1874      1900      1866      1876      1874
      1866      1876      1877      1866      1876      1881      1874      1876      1877
      1874      1876      1881      1877      1876      1881      1876      1877      1878
      1876      1877      1879      1876      1877      1880      1878      1877      1879
      1878      1877      1880      1879      1877      1880      1876      1881      1882
      1876      1881      1883      1876      1881      1884      1882      1881      1883
      1882      1881      1884      1883      1881      1884      1881      1884      1885
      1881      1884      1886      1881      1884      1887      1885      1884      1886
      1885      1884      1887      1886      1884      1887      1864      1887      1884
      1864      1887      1888      1864      1887      1889      1884      1887      1888
      1884      1887      1889      1888      1887      1889      1858      1889      1887
      1858      1889      1890      1858      1889      1894      1887      1889      1890
      1887      1889      1894      1890      1889      1894      1889      1890      1891
      1889      1890      1892      1889      1890      1893      1891      1890      1892
      1891      1890      1893      1892      1890      1893      1889      1894      1895
      1889      1894      1896      1889      1894      1897      1895      1894      1896
      1895      1894      1897      1896      1894      1897      1851      1897      1894
      1851      1897      1898      1851      1897      1899      1894      1897      1898
      1894      1897      1899      1898      1897      1899      1874      1900      1901
      1874      1900      1902      1874      1900      1906      1901      1900      1902
      1901      1900      1906      1902      1900      1906      1900      1902      1903
      1900      1902      1904      1900      1902      1905      1903      1902      1904
      1903      1902      1905      1904      1902      1905      1900      1906      1907
      1900      1906      1908      1900      1906      1909      1907      1906      1908
      1907      1906      1909      1908      1906      1909      1906      1909      1910
      1906      1909      1911      1906      1909      1912      1910      1909      1911
      1910      1909      1912      1911      1909      1912      1909      1912      1913
      1909      1912      1914      1909      1912      1915      1913      1912      1914
      1913      1912      1915      1914      1912      1915      1912      1915      1916
      1912      1915      1917      1912      1915      1921      1916      1915      1917
      1916      1915      1921      1917      1915      1921      1915      1917      1918
      1915      1917      1919      1915      1917      1920      1918      1917      1919
      1918      1917      1920      1919      1917      1920      1915      1921      1922
      1915      1921      1923      1915      1921      1924      1922      1921      1923
      1922      1921      1924      1923      1921      1924      6722      6721      6723
      6722      6721      6724      6722      6721      6725      6723      6721      6724
      6723      6721      6725      6724      6721      6725      6721      6725      6726
      6721      6725      6727      6721      6725      6728      6726      6725      6727
      6726      6725      6728      6727      6725      6728      6725      6728      6729
      6725      6728      6730      6725      6728      6735      6729      6728      6730
      6729      6728      6735      6730      6728      6735      6732      6731      6733
      6732      6731      6734      6732      6731      6735      6733      6731      6734
      6733      6731      6735      6734      6731      6735      6731      6734      6736
      6728      6735      6731      6734      6736      6737      6734      6736      6738
      6734      6736      6739      6737      6736      6738      6737      6736      6739
      6738      6736      6739      6736      6739      6740      6736      6739      6741
      6736      6739      6747      6740      6739      6741      6740      6739      6747
      6741      6739      6747      6739      6741      6742      6741      6742      6743
      6741      6742      6744      6743      6742      6744      6742      6744      6745
      6742      6744      6746      6742      6744      6756      6745      6744      6746
      6745      6744      6756      6746      6744      6756      6739      6747      6748
      6739      6747      6749      6739      6747      6750      6748      6747      6749
      6748      6747      6750      6749      6747      6750      6747      6750      6751
      6750      6751      6752      6750      6751      6753      6752      6751      6753
      6751      6753      6754      6751      6753      6755      6751      6753      6803
      6754      6753      6755      6754      6753      6803      6755      6753      6803
      6744      6756      6757      6744      6756      6758      6744      6756      6759
      6757      6756      6758      6757      6756      6759      6758      6756      6759
      6756      6759      6760      6756      6759      6761      6756      6759      6762
      6760      6759      6761      6760      6759      6762      6761      6759      6762
      6759      6762      6763      6759      6762      6764      6759      6762      6765
      6763      6762      6764      6763      6762      6765      6764      6762      6765
      6762      6765      6766      6762      6765      6767      6762      6765      6768
      6766      6765      6767      6766      6765      6768      6767      6765      6768
      6765      6768      6769      6765      6768      6770      6765      6768      6771
      6769      6768      6770      6769      6768      6771      6770      6768      6771
      6768      6771      6772      6768      6771      6773      6768      6771      6774
      6772      6771      6773      6772      6771      6774      6773      6771      6774
      6771      6774      6775      6771      6774      6776      6775      6774      6776
      6774      6776      6777      6774      6776      6778      6777      6776      6778
      6776      6778      6779      6776      6778      6780      6776      6778      6781
      6779      6778      6780      6779      6778      6781      6780      6778      6781
      6778      6781      6782      6778      6781      6783      6778      6781      6784
      6782      6781      6783      6782      6781      6784      6783      6781      6784
      6781      6784      6785      6781      6784      6786      6781      6784      6787
      6785      6784      6786      6785      6784      6787      6786      6784      6787
      6784      6787      6788      6784      6787      6789      6784      6787      6790
      6788      6787      6789      6788      6787      6790      6789      6787      6790
      6787      6790      6791      6787      6790      6792      6787      6790      6793
      6791      6790      6792      6791      6790      6793      6792      6790      6793
      6790      6793      6794      6790      6793      6795      6790      6793      6796
      6794      6793      6795      6794      6793      6796      6795      6793      6796
      6793      6796      6797      6793      6796      6798      6793      6796      6799
      6797      6796      6798      6797      6796      6799      6798      6796      6799
      6796      6799      6800      6796      6799      6801      6796      6799      6802
      6800      6799      6801      6800      6799      6802      6801      6799      6802
      6753      6803      6804      6753      6803      6805      6753      6803      6806
      6804      6803      6805      6804      6803      6806      6805      6803      6806
      6803      6806      6807      6803      6806      6808      6803      6806      6809
      6807      6806      6808      6807      6806      6809      6808      6806      6809
      6806      6809      6810      6806      6809      6811      6806      6809      6812
      6810      6809      6811      6810      6809      6812      6811      6809      6812
      6809      6812      6813      6809      6812      6814      6809      6812      6815
      6813      6812      6814      6813      6812      6815      6814      6812      6815
      6812      6815      6816      6812      6815      6817      6812      6815      6818
      6816      6815      6817      6816      6815      6818      6817      6815      6818
      6815      6818      6819      6815      6818      6820      6815      6818      6821
      6819      6818      6820      6819      6818      6821      6820      6818      6821
      6818      6821      6822      6818      6821      6823      6818      6821      6824
      6822      6821      6823      6822      6821      6824      6823      6821      6824
      6821      6824      6825      6821      6824      6826      6821      6824      6827
      6825      6824      6826      6825      6824      6827      6826      6824      6827
      6824      6827      6828      6824      6827      6829      6824      6827      6830
      6828      6827      6829      6828      6827      6830      6829      6827      6830
      6827      6830      6831      6827      6830      6832      6827      6830      6833
      6831      6830      6832      6831      6830      6833      6832      6830      6833
      6830      6833      6834      6830      6833      6835      6830      6833      6836
      6834      6833      6835      6834      6833      6836      6835      6833      6836
      6833      6836      6837      6833      6836      6838      6833      6836      6839
      6837      6836      6838      6837      6836      6839      6838      6836      6839
      6836      6839      6840      6836      6839      6841      6836      6839      6842
      6840      6839      6841      6840      6839      6842      6841      6839      6842
      6839      6842      6843      6839      6842      6844      6839      6842      6845
      6843      6842      6844      6843      6842      6845      6844      6842      6845
     12028     12027     12029     12028     12027     12030     12028     12027     12031
     12029     12027     12030     12029     12027     12031     12030     12027     12031
     12027     12031     12032     12027     12031     12033     12027     12031     12036
     12032     12031     12033     12032     12031     12036     12033     12031     12036
     12031     12033     12034     12031     12033     12035     12034     12033     12035
     12031     12036     12037     12031     12036     12038     12031     12036     12042
     12037     12036     12038     12037     12036     12042     12038     12036     12042
     12040     12039     12041     12040     12039     12042     12040     12039     12043
     12041     12039     12042     12041     12039     12043     12042     12039     12043
     12036     12042     12039     12039     12043     12044     12043     12044     12045
     12043     12044     12046     12043     12044     12047     12045     12044     12046
     12045     12044     12047     12046     12044     12047     12044     12047     12048
     12044     12047     12049     12044     12047     12055     12048     12047     12049
     12048     12047     12055     12049     12047     12055     12047     12049     12050
     12049     12050     12051     12049     12050     12052     12051     12050     12052
     12050     12052     12053     12050     12052     12054     12050     12052     12064
     12053     12052     12054     12053     12052     12064     12054     12052     12064
     12047     12055     12056     12047     12055     12057     12047     12055     12058
     12056     12055     12057     12056     12055     12058     12057     12055     12058
     12055     12058     12059     12058     12059     12060     12058     12059     12061
     12060     12059     12061     12059     12061     12062     12059     12061     12063
     12059     12061     12111     12062     12061     12063     12062     12061     12111
     12063     12061     12111     12052     12064     12065     12052     12064     12066
     12052     12064     12067     12065     12064     12066     12065     12064     12067
     12066     12064     12067     12064     12067     12068     12064     12067     12069
     12064     12067     12070     12068     12067     12069     12068     12067     12070
     12069     12067     12070     12067     12070     12071     12067     12070     12072
     12067     12070     12073     12071     12070     12072     12071     12070     12073
     12072     12070     12073     12070     12073     12074     12070     12073     12075
     12070     12073     12076     12074     12073     12075     12074     12073     12076
     12075     12073     12076     12073     12076     12077     12073     12076     12078
     12073     12076     12079     12077     12076     12078     12077     12076     12079
     12078     12076     12079     12076     12079     12080     12076     12079     12081
     12076     12079     12082     12080     12079     12081     12080     12079     12082
     12081     12079     12082     12079     12082     12083     12079     12082     12084
     12083     12082     12084     12082     12084     12085     12082     12084     12086
     12085     12084     12086     12084     12086     12087     12084     12086     12088
     12084     12086     12089     12087     12086     12088     12087     12086     12089
     12088     12086     12089     12086     12089     12090     12086     12089     12091
     12086     12089     12092     12090     12089     12091     12090     12089     12092
     12091     12089     12092     12089     12092     12093     12089     12092     12094
     12089     12092     12095     12093     12092     12094     12093     12092     12095
     12094     12092     12095     12092     12095     12096     12092     12095     12097
     12092     12095     12098     12096     12095     12097     12096     12095     12098
     12097     12095     12098     12095     12098     12099     12095     12098     12100
     12095     12098     12101     12099     12098     12100     12099     12098     12101
     12100     12098     12101     12098     12101     12102     12098     12101     12103
     12098     12101     12104     12102     12101     12103     12102     12101     12104
     12103     12101     12104     12101     12104     12105     12101     12104     12106
     12101     12104     12107     12105     12104     12106     12105     12104     12107
     12106     12104     12107     12104     12107     12108     12104     12107     12109
     12104     12107     12110     12108     12107     12109     12108     12107     12110
     12109     12107     12110     12061     12111     12112     12061     12111     12113
     12061     12111     12114     12112     12111     12113     12112     12111     12114
     12113     12111     12114     12111     12114     12115     12111     12114     12116
     12111     12114     12117     12115     12114     12116     12115     12114     12117
     12116     12114     12117     12114     12117     12118     12114     12117     12119
     12114     12117     12120     12118     12117     12119     12118     12117     12120
     12119     12117     12120     12117     12120     12121     12117     12120     12122
     12117     12120     12123     12121     12120     12122     12121     12120     12123
     12122     12120     12123     12120     12123     12124     12120     12123     12125
     12120     12123     12126     12124     12123     12125     12124     12123     12126
     12125     12123     12126     12123     12126     12127     12123     12126     12128
     12123     12126     12129     12127     12126     12128     12127     12126     12129
     12128     12126     12129     12126     12129     12130     12126     12129     12131
     12126     12129     12132     12130     12129     12131     12130     12129     12132
     12131     12129     12132     12129     12132     12133     12129     12132     12134
     12129     12132     12135     12133     12132     12134     12133     12132     12135
     12134     12132     12135     12132     12135     12136     12132     12135     12137
     12132     12135     12138     12136     12135     12137     12136     12135     12138
     12137     12135     12138     12135     12138     12139     12135     12138     12140
     12135     12138     12141     12139     12138     12140     12139     12138     12141
     12140     12138     12141     12138     12141     12142     12138     12141     12143
     12138     12141     12144     12142     12141     12143     12142     12141     12144
     12143     12141     12144     12141     12144     12145     12141     12144     12146
     12141     12144     12147     12145     12144     12146     12145     12144     12147
     12146     12144     12147     12144     12147     12148     12144     12147     12149
     12144     12147     12150     12148     12147     12149     12148     12147     12150
     12149     12147     12150     12147     12150     12151     12147     12150     12152
     12147     12150     12153     12151     12150     12152     12151     12150     12153
     12152     12150     12153     19448     19447     19451     19448     19447     19455
     19448     19447     19459     19451     19447     19455     19451     19447     19459
     19455     19447     19459     19447     19448     19449     19447     19448     19450
     19447     19448     19463     19449     19448     19450     19449     19448     19463
     19450     19448     19463     19447     19451     19452     19447     19451     19453
     19447     19451     19454     19452     19451     19453     19452     19451     19454
     19453     19451     19454     19447     19455     19456     19447     19455     19457
     19447     19455     19458     19456     19455     19457     19456     19455     19458
     19457     19455     19458     19447     19459     19460     19447     19459     19461
     19447     19459     19462     19460     19459     19461     19460     19459     19462
     19461     19459     19462     19448     19463     19464     19448     19463     19465
     19448     19463     19469     19464     19463     19465     19464     19463     19469
     19465     19463     19469     19467     19466     19468     19467     19466     19469
     19467     19466     19470     19468     19466     19469     19468     19466     19470
     19469     19466     19470     19463     19469     19466     19466     19470     19471
     19470     19471     19472     19470     19471     19473     19470     19471     19474
     19472     19471     19473     19472     19471     19474     19473     19471     19474
     19471     19474     19475     19471     19474     19476     19471     19474     19482
     19475     19474     19476     19475     19474     19482     19476     19474     19482
     19474     19476     19477     19476     19477     19478     19476     19477     19479
     19478     19477     19479     19477     19479     19480     19477     19479     19481
     19477     19479     19491     19480     19479     19481     19480     19479     19491
     19481     19479     19491     19474     19482     19483     19474     19482     19484
     19474     19482     19485     19483     19482     19484     19483     19482     19485
     19484     19482     19485     19482     19485     19486     19485     19486     19487
     19485     19486     19488     19487     19486     19488     19486     19488     19489
     19486     19488     19490     19486     19488     19538     19489     19488     19490
     19489     19488     19538     19490     19488     19538     19479     19491     19492
     19479     19491     19493     19479     19491     19494     19492     19491     19493
     19492     19491     19494     19493     19491     19494     19491     19494     19495
     19491     19494     19496     19491     19494     19497     19495     19494     19496
     19495     19494     19497     19496     19494     19497     19494     19497     19498
     19494     19497     19499     19494     19497     19500     19498     19497     19499
     19498     19497     19500     19499     19497     19500     19497     19500     19501
     19497     19500     19502     19497     19500     19503     19501     19500     19502
     19501     19500     19503     19502     19500     19503     19500     19503     19504
     19500     19503     19505     19500     19503     19506     19504     19503     19505
     19504     19503     19506     19505     19503     19506     19503     19506     19507
     19503     19506     19508     19503     19506     19509     19507     19506     19508
     19507     19506     19509     19508     19506     19509     19506     19509     19510
     19506     19509     19511     19510     19509     19511     19509     19511     19512
     19509     19511     19513     19512     19511     19513     19511     19513     19514
     19511     19513     19515     19511     19513     19516     19514     19513     19515
     19514     19513     19516     19515     19513     19516     19513     19516     19517
     19513     19516     19518     19513     19516     19519     19517     19516     19518
     19517     19516     19519     19518     19516     19519     19516     19519     19520
     19516     19519     19521     19516     19519     19522     19520     19519     19521
     19520     19519     19522     19521     19519     19522     19519     19522     19523
     19519     19522     19524     19519     19522     19525     19523     19522     19524
     19523     19522     19525     19524     19522     19525     19522     19525     19526
     19522     19525     19527     19522     19525     19528     19526     19525     19527
     19526     19525     19528     19527     19525     19528     19525     19528     19529
     19525     19528     19530     19525     19528     19531     19529     19528     19530
     19529     19528     19531     19530     19528     19531     19528     19531     19532
     19528     19531     19533     19528     19531     19534     19532     19531     19533
     19532     19531     19534     19533     19531     19534     19531     19534     19535
     19531     19534     19536     19531     19534     19537     19535     19534     19536
     19535     19534     19537     19536     19534     19537     19488     19538     19539
     19488     19538     19540     19488     19538     19541     19539     19538     19540
     19539     19538     19541     19540     19538     19541     19538     19541     19542
     19538     19541     19543     19538     19541     19544     19542     19541     19543
     19542     19541     19544     19543     19541     19544     19541     19544     19545
     19541     19544     19546     19541     19544     19547     19545     19544     19546
     19545     19544     19547     19546     19544     19547     19544     19547     19548
     19544     19547     19549     19544     19547     19550     19548     19547     19549
     19548     19547     19550     19549     19547     19550     19547     19550     19551
     19547     19550     19552     19547     19550     19553     19551     19550     19552
     19551     19550     19553     19552     19550     19553     19550     19553     19554
     19550     19553     19555     19550     19553     19556     19554     19553     19555
     19554     19553     19556     19555     19553     19556     19553     19556     19557
     19553     19556     19558     19553     19556     19559     19557     19556     19558
     19557     19556     19559     19558     19556     19559     19556     19559     19560
     19556     19559     19561     19556     19559     19562     19560     19559     19561
     19560     19559     19562     19561     19559     19562     19559     19562     19563
     19559     19562     19564     19559     19562     19565     19563     19562     19564
     19563     19562     19565     19564     19562     19565     19562     19565     19566
     19562     19565     19567     19562     19565     19568     19566     19565     19567
     19566     19565     19568     19567     19565     19568     19565     19568     19569
     19565     19568     19570     19565     19568     19571     19569     19568     19570
     19569     19568     19571     19570     19568     19571     19568     19571     19572
     19568     19571     19573     19568     19571     19574     19572     19571     19573
     19572     19571     19574     19573     19571     19574     19571     19574     19575
     19571     19574     19576     19571     19574     19577     19575     19574     19576
     19575     19574     19577     19576     19574     19577     19574     19577     19578
     19574     19577     19579     19574     19577     19580     19578     19577     19579
     19578     19577     19580     19579     19577     19580      6847      6846      6848
      6847      6846      6849      6847      6846      6850      6848      6846      6849
      6848      6846      6850      6849      6846      6850      6846      6850      6851
      6846      6850      6852      6846      6850      6853      6851      6850      6852
      6851      6850      6853      6852      6850      6853      6850      6853      6854
      6850      6853      6855      6850      6853      6860      6854      6853      6855
      6854      6853      6860      6855      6853      6860      6857      6856      6858
      6857      6856      6859      6857      6856      6860      6858      6856      6859
      6858      6856      6860      6859      6856      6860      6856      6859      6861
      6853      6860      6856      6859      6861      6862      6859      6861      6863
      6859      6861      6864      6862      6861      6863      6862      6861      6864
      6863      6861      6864      6861      6864      6865      6861      6864      6866
      6861      6864      6872      6865      6864      6866      6865      6864      6872
      6866      6864      6872      6864      6866      6867      6866      6867      6868
      6866      6867      6869      6868      6867      6869      6867      6869      6870
      6867      6869      6871      6867      6869      6881      6870      6869      6871
      6870      6869      6881      6871      6869      6881      6864      6872      6873
      6864      6872      6874      6864      6872      6875      6873      6872      6874
      6873      6872      6875      6874      6872      6875      6872      6875      6876
      6875      6876      6877      6875      6876      6878      6877      6876      6878
      6876      6878      6879      6876      6878      6880      6876      6878      6928
      6879      6878      6880      6879      6878      6928      6880      6878      6928
      6869      6881      6882      6869      6881      6883      6869      6881      6884
      6882      6881      6883      6882      6881      6884      6883      6881      6884
      6881      6884      6885      6881      6884      6886      6881      6884      6887
      6885      6884      6886      6885      6884      6887      6886      6884      6887
      6884      6887      6888      6884      6887      6889      6884      6887      6890
      6888      6887      6889      6888      6887      6890      6889      6887      6890
      6887      6890      6891      6887      6890      6892      6887      6890      6893
      6891      6890      6892      6891      6890      6893      6892      6890      6893
      6890      6893      6894      6890      6893      6895      6890      6893      6896
      6894      6893      6895      6894      6893      6896      6895      6893      6896
      6893      6896      6897      6893      6896      6898      6893      6896      6899
      6897      6896      6898      6897      6896      6899      6898      6896      6899
      6896      6899      6900      6896      6899      6901      6900      6899      6901
      6899      6901      6902      6899      6901      6903      6902      6901      6903
      6901      6903      6904      6901      6903      6905      6901      6903      6906
      6904      6903      6905      6904      6903      6906      6905      6903      6906
      6903      6906      6907      6903      6906      6908      6903      6906      6909
      6907      6906      6908      6907      6906      6909      6908      6906      6909
      6906      6909      6910      6906      6909      6911      6906      6909      6912
      6910      6909      6911      6910      6909      6912      6911      6909      6912
      6909      6912      6913      6909      6912      6914      6909      6912      6915
      6913      6912      6914      6913      6912      6915      6914      6912      6915
      6912      6915      6916      6912      6915      6917      6912      6915      6918
      6916      6915      6917      6916      6915      6918      6917      6915      6918
      6915      6918      6919      6915      6918      6920      6915      6918      6921
      6919      6918      6920      6919      6918      6921      6920      6918      6921
      6918      6921      6922      6918      6921      6923      6918      6921      6924
      6922      6921      6923      6922      6921      6924      6923      6921      6924
      6921      6924      6925      6921      6924      6926      6921      6924      6927
      6925      6924      6926      6925      6924      6927      6926      6924      6927
      6878      6928      6929      6878      6928      6930      6878      6928      6931
      6929      6928      6930      6929      6928      6931      6930      6928      6931
      6928      6931      6932      6928      6931      6933      6928      6931      6934
      6932      6931      6933      6932      6931      6934      6933      6931      6934
      6931      6934      6935      6931      6934      6936      6931      6934      6937
      6935      6934      6936      6935      6934      6937      6936      6934      6937
      6934      6937      6938      6934      6937      6939      6934      6937      6940
      6938      6937      6939      6938      6937      6940      6939      6937      6940
      6937      6940      6941      6937      6940      6942      6937      6940      6943
      6941      6940      6942      6941      6940      6943      6942      6940      6943
      6940      6943      6944      6940      6943      6945      6940      6943      6946
      6944      6943      6945      6944      6943      6946      6945      6943      6946
      6943      6946      6947      6943      6946      6948      6943      6946      6949
      6947      6946      6948      6947      6946      6949      6948      6946      6949
      6946      6949      6950      6946      6949      6951      6946      6949      6952
      6950      6949      6951      6950      6949      6952      6951      6949      6952
      6949      6952      6953      6949      6952      6954      6949      6952      6955
      6953      6952      6954      6953      6952      6955      6954      6952      6955
      6952      6955      6956      6952      6955      6957      6952      6955      6958
      6956      6955      6957      6956      6955      6958      6957      6955      6958
      6955      6958      6959      6955      6958      6960      6955      6958      6961
      6959      6958      6960      6959      6958      6961      6960      6958      6961
      6958      6961      6962      6958      6961      6963      6958      6961      6964
      6962      6961      6963      6962      6961      6964      6963      6961      6964
      6961      6964      6965      6961      6964      6966      6961      6964      6967
      6965      6964      6966      6965      6964      6967      6966      6964      6967
      6964      6967      6968      6964      6967      6969      6964      6967      6970
      6968      6967      6969      6968      6967      6970      6969      6967      6970
     19582     19581     19585     19582     19581     19589     19582     19581     19593
     19585     19581     19589     19585     19581     19593     19589     19581     19593
     19581     19582     19583     19581     19582     19584     19581     19582     19597
     19583     19582     19584     19583     19582     19597     19584     19582     19597
     19581     19585     19586     19581     19585     19587     19581     19585     19588
     19586     19585     19587     19586     19585     19588     19587     19585     19588
     19581     19589     19590     19581     19589     19591     19581     19589     19592
     19590     19589     19591     19590     19589     19592     19591     19589     19592
     19581     19593     19594     19581     19593     19595     19581     19593     19596
     19594     19593     19595     19594     19593     19596     19595     19593     19596
     19582     19597     19598     19582     19597     19599     19582     19597     19603
     19598     19597     19599     19598     19597     19603     19599     19597     19603
     19601     19600     19602     19601     19600     19603     19601     19600     19604
     19602     19600     19603     19602     19600     19604     19603     19600     19604
     19597     19603     19600     19600     19604     19605     19604     19605     19606
     19604     19605     19607     19604     19605     19608     19606     19605     19607
     19606     19605     19608     19607     19605     19608     19605     19608     19609
     19605     19608     19610     19605     19608     19616     19609     19608     19610
     19609     19608     19616     19610     19608     19616     19608     19610     19611
     19610     19611     19612     19610     19611     19613     19612     19611     19613
     19611     19613     19614     19611     19613     19615     19611     19613     19625
     19614     19613     19615     19614     19613     19625     19615     19613     19625
     19608     19616     19617     19608     19616     19618     19608     19616     19619
     19617     19616     19618     19617     19616     19619     19618     19616     19619
     19616     19619     19620     19619     19620     19621     19619     19620     19622
     19621     19620     19622     19620     19622     19623     19620     19622     19624
     19620     19622     19672     19623     19622     19624     19623     19622     19672
     19624     19622     19672     19613     19625     19626     19613     19625     19627
     19613     19625     19628     19626     19625     19627     19626     19625     19628
     19627     19625     19628     19625     19628     19629     19625     19628     19630
     19625     19628     19631     19629     19628     19630     19629     19628     19631
     19630     19628     19631     19628     19631     19632     19628     19631     19633
     19628     19631     19634     19632     19631     19633     19632     19631     19634
     19633     19631     19634     19631     19634     19635     19631     19634     19636
     19631     19634     19637     19635     19634     19636     19635     19634     19637
     19636     19634     19637     19634     19637     19638     19634     19637     19639
     19634     19637     19640     19638     19637     19639     19638     19637     19640
     19639     19637     19640     19637     19640     19641     19637     19640     19642
     19637     19640     19643     19641     19640     19642     19641     19640     19643
     19642     19640     19643     19640     19643     19644     19640     19643     19645
     19644     19643     19645     19643     19645     19646     19643     19645     19647
     19646     19645     19647     19645     19647     19648     19645     19647     19649
     19645     19647     19650     19648     19647     19649     19648     19647     19650
     19649     19647     19650     19647     19650     19651     19647     19650     19652
     19647     19650     19653     19651     19650     19652     19651     19650     19653
     19652     19650     19653     19650     19653     19654     19650     19653     19655
     19650     19653     19656     19654     19653     19655     19654     19653     19656
     19655     19653     19656     19653     19656     19657     19653     19656     19658
     19653     19656     19659     19657     19656     19658     19657     19656     19659
     19658     19656     19659     19656     19659     19660     19656     19659     19661
     19656     19659     19662     19660     19659     19661     19660     19659     19662
     19661     19659     19662     19659     19662     19663     19659     19662     19664
     19659     19662     19665     19663     19662     19664     19663     19662     19665
     19664     19662     19665     19662     19665     19666     19662     19665     19667
     19662     19665     19668     19666     19665     19667     19666     19665     19668
     19667     19665     19668     19665     19668     19669     19665     19668     19670
     19665     19668     19671     19669     19668     19670     19669     19668     19671
     19670     19668     19671     19622     19672     19673     19622     19672     19674
     19622     19672     19675     19673     19672     19674     19673     19672     19675
     19674     19672     19675     19672     19675     19676     19672     19675     19677
     19672     19675     19678     19676     19675     19677     19676     19675     19678
     19677     19675     19678     19675     19678     19679     19675     19678     19680
     19675     19678     19681     19679     19678     19680     19679     19678     19681
     19680     19678     19681     19678     19681     19682     19678     19681     19683
     19678     19681     19684     19682     19681     19683     19682     19681     19684
     19683     19681     19684     19681     19684     19685     19681     19684     19686
     19681     19684     19687     19685     19684     19686     19685     19684     19687
     19686     19684     19687     19684     19687     19688     19684     19687     19689
     19684     19687     19690     19688     19687     19689     19688     19687     19690
     19689     19687     19690     19687     19690     19691     19687     19690     19692
     19687     19690     19693     19691     19690     19692     19691     19690     19693
     19692     19690     19693     19690     19693     19694     19690     19693     19695
     19690     19693     19696     19694     19693     19695     19694     19693     19696
     19695     19693     19696     19693     19696     19697     19693     19696     19698
     19693     19696     19699     19697     19696     19698     19697     19696     19699
     19698     19696     19699     19696     19699     19700     19696     19699     19701
     19696     19699     19702     19700     19699     19701     19700     19699     19702
     19701     19699     19702     19699     19702     19703     19699     19702     19704
     19699     19702     19705     19703     19702     19704     19703     19702     19705
     19704     19702     19705     19702     19705     19706     19702     19705     19707
     19702     19705     19708     19706     19705     19707     19706     19705     19708
     19707     19705     19708     19705     19708     19709     19705     19708     19710
     19705     19708     19711     19709     19708     19710     19709     19708     19711
     19710     19708     19711     19708     19711     19712     19708     19711     19713
     19708     19711     19714     19712     19711     19713     19712     19711     19714
     19713     19711     19714     12155     12154     12156     12155     12154     12157
     12155     12154     12158     12156     12154     12157     12156     12154     12158
     12157     12154     12158     12154     12158     12159     12154     12158     12160
     12154     12158     12163     12159     12158     12160     12159     12158     12163
     12160     12158     12163     12158     12160     12161     12158     12160     12162
     12161     12160     12162     12158     12163     12164     12158     12163     12165
     12158     12163     12169     12164     12163     12165     12164     12163     12169
     12165     12163     12169     12167     12166     12168     12167     12166     12169
     12167     12166     12170     12168     12166     12169     12168     12166     12170
     12169     12166     12170     12163     12169     12166     12166     12170     12171
     12170     12171     12172     12170     12171     12173     12170     12171     12174
     12172     12171     12173     12172     12171     12174     12173     12171     12174
     12171     12174     12175     12171     12174     12176     12171     12174     12182
     12175     12174     12176     12175     12174     12182     12176     12174     12182
     12174     12176     12177     12176     12177     12178     12176     12177     12179
     12178     12177     12179     12177     12179     12180     12177     12179     12181
     12177     12179     12191     12180     12179     12181     12180     12179     12191
     12181     12179     12191     12174     12182     12183     12174     12182     12184
     12174     12182     12185     12183     12182     12184     12183     12182     12185
     12184     12182     12185     12182     12185     12186     12185     12186     12187
     12185     12186     12188     12187     12186     12188     12186     12188     12189
     12186     12188     12190     12186     12188     12238     12189     12188     12190
     12189     12188     12238     12190     12188     12238     12179     12191     12192
     12179     12191     12193     12179     12191     12194     12192     12191     12193
     12192     12191     12194     12193     12191     12194     12191     12194     12195
     12191     12194     12196     12191     12194     12197     12195     12194     12196
     12195     12194     12197     12196     12194     12197     12194     12197     12198
     12194     12197     12199     12194     12197     12200     12198     12197     12199
     12198     12197     12200     12199     12197     12200     12197     12200     12201
     12197     12200     12202     12197     12200     12203     12201     12200     12202
     12201     12200     12203     12202     12200     12203     12200     12203     12204
     12200     12203     12205     12200     12203     12206     12204     12203     12205
     12204     12203     12206     12205     12203     12206     12203     12206     12207
     12203     12206     12208     12203     12206     12209     12207     12206     12208
     12207     12206     12209     12208     12206     12209     12206     12209     12210
     12206     12209     12211     12210     12209     12211     12209     12211     12212
     12209     12211     12213     12212     12211     12213     12211     12213     12214
     12211     12213     12215     12211     12213     12216     12214     12213     12215
     12214     12213     12216     12215     12213     12216     12213     12216     12217
     12213     12216     12218     12213     12216     12219     12217     12216     12218
     12217     12216     12219     12218     12216     12219     12216     12219     12220
     12216     12219     12221     12216     12219     12222     12220     12219     12221
     12220     12219     12222     12221     12219     12222     12219     12222     12223
     12219     12222     12224     12219     12222     12225     12223     12222     12224
     12223     12222     12225     12224     12222     12225     12222     12225     12226
     12222     12225     12227     12222     12225     12228     12226     12225     12227
     12226     12225     12228     12227     12225     12228     12225     12228     12229
     12225     12228     12230     12225     12228     12231     12229     12228     12230
     12229     12228     12231     12230     12228     12231     12228     12231     12232
     12228     12231     12233     12228     12231     12234     12232     12231     12233
     12232     12231     12234     12233     12231     12234     12231     12234     12235
     12231     12234     12236     12231     12234     12237     12235     12234     12236
     12235     12234     12237     12236     12234     12237     12188     12238     12239
     12188     12238     12240     12188     12238     12241     12239     12238     12240
     12239     12238     12241     12240     12238     12241     12238     12241     12242
     12238     12241     12243     12238     12241     12244     12242     12241     12243
     12242     12241     12244     12243     12241     12244     12241     12244     12245
     12241     12244     12246     12241     12244     12247     12245     12244     12246
     12245     12244     12247     12246     12244     12247     12244     12247     12248
     12244     12247     12249     12244     12247     12250     12248     12247     12249
     12248     12247     12250     12249     12247     12250     12247     12250     12251
     12247     12250     12252     12247     12250     12253     12251     12250     12252
     12251     12250     12253     12252     12250     12253     12250     12253     12254
     12250     12253     12255     12250     12253     12256     12254     12253     12255
     12254     12253     12256     12255     12253     12256     12253     12256     12257
     12253     12256     12258     12253     12256     12259     12257     12256     12258
     12257     12256     12259     12258     12256     12259     12256     12259     12260
     12256     12259     12261     12256     12259     12262     12260     12259     12261
     12260     12259     12262     12261     12259     12262     12259     12262     12263
     12259     12262     12264     12259     12262     12265     12263     12262     12264
     12263     12262     12265     12264     12262     12265     12262     12265     12266
     12262     12265     12267     12262     12265     12268     12266     12265     12267
     12266     12265     12268     12267     12265     12268     12265     12268     12269
     12265     12268     12270     12265     12268     12271     12269     12268     12270
     12269     12268     12271     12270     12268     12271     12268     12271     12272
     12268     12271     12273     12268     12271     12274     12272     12271     12273
     12272     12271     12274     12273     12271     12274     12271     12274     12275
     12271     12274     12276     12271     12274     12277     12275     12274     12276
     12275     12274     12277     12276     12274     12277     12274     12277     12278
     12274     12277     12279     12274     12277     12280     12278     12277     12279
     12278     12277     12280     12279     12277     12280     12282     12281     12283
     12282     12281     12284     12282     12281     12285     12283     12281     12284
     12283     12281     12285     12284     12281     12285     12281     12285     12286
     12281     12285     12287     12281     12285     12290     12286     12285     12287
     12286     12285     12290     12287     12285     12290     12285     12287     12288
     12285     12287     12289     12288     12287     12289     12285     12290     12291
     12285     12290     12292     12285     12290     12296     12291     12290     12292
     12291     12290     12296     12292     12290     12296     12294     12293     12295
     12294     12293     12296     12294     12293     12297     12295     12293     12296
     12295     12293     12297     12296     12293     12297     12290     12296     12293
     12293     12297     12298     12297     12298     12299     12297     12298     12300
     12297     12298     12301     12299     12298     12300     12299     12298     12301
     12300     12298     12301     12298     12301     12302     12298     12301     12303
     12298     12301     12309     12302     12301     12303     12302     12301     12309
     12303     12301     12309     12301     12303     12304     12303     12304     12305
     12303     12304     12306     12305     12304     12306     12304     12306     12307
     12304     12306     12308     12304     12306     12318     12307     12306     12308
     12307     12306     12318     12308     12306     12318     12301     12309     12310
     12301     12309     12311     12301     12309     12312     12310     12309     12311
     12310     12309     12312     12311     12309     12312     12309     12312     12313
     12312     12313     12314     12312     12313     12315     12314     12313     12315
     12313     12315     12316     12313     12315     12317     12313     12315     12365
     12316     12315     12317     12316     12315     12365     12317     12315     12365
     12306     12318     12319     12306     12318     12320     12306     12318     12321
     12319     12318     12320     12319     12318     12321     12320     12318     12321
     12318     12321     12322     12318     12321     12323     12318     12321     12324
     12322     12321     12323     12322     12321     12324     12323     12321     12324
     12321     12324     12325     12321     12324     12326     12321     12324     12327
     12325     12324     12326     12325     12324     12327     12326     12324     12327
     12324     12327     12328     12324     12327     12329     12324     12327     12330
     12328     12327     12329     12328     12327     12330     12329     12327     12330
     12327     12330     12331     12327     12330     12332     12327     12330     12333
     12331     12330     12332     12331     12330     12333     12332     12330     12333
     12330     12333     12334     12330     12333     12335     12330     12333     12336
     12334     12333     12335     12334     12333     12336     12335     12333     12336
     12333     12336     12337     12333     12336     12338     12337     12336     12338
     12336     12338     12339     12336     12338     12340     12339     12338     12340
     12338     12340     12341     12338     12340     12342     12338     12340     12343
     12341     12340     12342     12341     12340     12343     12342     12340     12343
     12340     12343     12344     12340     12343     12345     12340     12343     12346
     12344     12343     12345     12344     12343     12346     12345     12343     12346
     12343     12346     12347     12343     12346     12348     12343     12346     12349
     12347     12346     12348     12347     12346     12349     12348     12346     12349
     12346     12349     12350     12346     12349     12351     12346     12349     12352
     12350     12349     12351     12350     12349     12352     12351     12349     12352
     12349     12352     12353     12349     12352     12354     12349     12352     12355
     12353     12352     12354     12353     12352     12355     12354     12352     12355
     12352     12355     12356     12352     12355     12357     12352     12355     12358
     12356     12355     12357     12356     12355     12358     12357     12355     12358
     12355     12358     12359     12355     12358     12360     12355     12358     12361
     12359     12358     12360     12359     12358     12361     12360     12358     12361
     12358     12361     12362     12358     12361     12363     12358     12361     12364
     12362     12361     12363     12362     12361     12364     12363     12361     12364
     12315     12365     12366     12315     12365     12367     12315     12365     12368
     12366     12365     12367     12366     12365     12368     12367     12365     12368
     12365     12368     12369     12365     12368     12370     12365     12368     12371
     12369     12368     12370     12369     12368     12371     12370     12368     12371
     12368     12371     12372     12368     12371     12373     12368     12371     12374
     12372     12371     12373     12372     12371     12374     12373     12371     12374
     12371     12374     12375     12371     12374     12376     12371     12374     12377
     12375     12374     12376     12375     12374     12377     12376     12374     12377
     12374     12377     12378     12374     12377     12379     12374     12377     12380
     12378     12377     12379     12378     12377     12380     12379     12377     12380
     12377     12380     12381     12377     12380     12382     12377     12380     12383
     12381     12380     12382     12381     12380     12383     12382     12380     12383
     12380     12383     12384     12380     12383     12385     12380     12383     12386
     12384     12383     12385     12384     12383     12386     12385     12383     12386
     12383     12386     12387     12383     12386     12388     12383     12386     12389
     12387     12386     12388     12387     12386     12389     12388     12386     12389
     12386     12389     12390     12386     12389     12391     12386     12389     12392
     12390     12389     12391     12390     12389     12392     12391     12389     12392
     12389     12392     12393     12389     12392     12394     12389     12392     12395
     12393     12392     12394     12393     12392     12395     12394     12392     12395
     12392     12395     12396     12392     12395     12397     12392     12395     12398
     12396     12395     12397     12396     12395     12398     12397     12395     12398
     12395     12398     12399     12395     12398     12400     12395     12398     12401
     12399     12398     12400     12399     12398     12401     12400     12398     12401
     12398     12401     12402     12398     12401     12403     12398     12401     12404
     12402     12401     12403     12402     12401     12404     12403     12401     12404
     12401     12404     12405     12401     12404     12406     12401     12404     12407
     12405     12404     12406     12405     12404     12407     12406     12404     12407
      1926      1925      1927      1926      1925      1929      1926      1925      1971
      1927      1925      1929      1927      1925      1971      1929      1925      1971
      1925      1927      1928      1925      1929      1930      1925      1929      1931
      1925      1929      1932      1930      1929      1931      1930      1929      1932
      1931      1929      1932      1929      1932      1933      1929      1932      1963
      1933      1932      1963      1932      1933      1934      1932      1933      1935
      1934      1933      1935      1933      1935      1936      1933      1935      1937
      1933      1935      1938      1936      1935      1937      1936      1935      1938
      1937      1935      1938      1935      1938      1939      1935      1938      1940
      1935      1938      1961      1939      1938      1940      1939      1938      1961
      1940      1938      1961      1938      1940      1941      1938      1940      1942
      1938      1940      1950      1941      1940      1942      1941      1940      1950
      1942      1940      1950      1940      1942      1943      1940      1942      1944
      1940      1942      1945      1943      1942      1944      1943      1942      1945
      1944      1942      1945      1942      1945      1946      1942      1945      1947
      1942      1945      1948      1946      1945      1947      1946      1945      1948
      1947      1945      1948      1945      1948      1949      1945      1948      1950
      1945      1948      1974      1949      1948      1950      1949      1948      1974
      1950      1948      1974      1940      1950      1948      1940      1950      1951
      1940      1950      1955      1948      1950      1951      1948      1950      1955
      1951      1950      1955      1950      1951      1952      1950      1951      1953
      1950      1951      1954      1952      1951      1953      1952      1951      1954
      1953      1951      1954      1950      1955      1956      1950      1955      1957
      1950      1955      1958      1956      1955      1957      1956      1955      1958
      1957      1955      1958      1955      1958      1959      1955      1958      1960
      1955      1958      1961      1959      1958      1960      1959      1958      1961
      1960      1958      1961      1938      1961      1958      1938      1961      1962
      1938      1961      1963      1958      1961      1962      1958      1961      1963
      1962      1961      1963      1932      1963      1961      1932      1963      1964
      1932      1963      1968      1961      1963      1964      1961      1963      1968
      1964      1963      1968      1963      1964      1965      1963      1964      1966
      1963      1964      1967      1965      1964      1966      1965      1964      1967
      1966      1964      1967      1963      1968      1969      1963      1968      1970
      1963      1968      1971      1969      1968      1970      1969      1968      1971
      1970      1968      1971      1925      1971      1968      1925      1971      1972
      1925      1971      1973      1968      1971      1972      1968      1971      1973
      1972      1971      1973      1948      1974      1975      1948      1974      1976
      1948      1974      1980      1975      1974      1976      1975      1974      1980
      1976      1974      1980      1974      1976      1977      1974      1976      1978
      1974      1976      1979      1977      1976      1978      1977      1976      1979
      1978      1976      1979      1974      1980      1981      1974      1980      1982
      1974      1980      1983      1981      1980      1982      1981      1980      1983
      1982      1980      1983      1980      1983      1984      1980      1983      1985
      1980      1983      1986      1984      1983      1985      1984      1983      1986
      1985      1983      1986      1983      1986      1987      1983      1986      1988
      1983      1986      1989      1987      1986      1988      1987      1986      1989
      1988      1986      1989      1986      1989      1990      1986      1989      1991
      1986      1989      1995      1990      1989      1991      1990      1989      1995
      1991      1989      1995      1989      1991      1992      1989      1991      1993
      1989      1991      1994      1992      1991      1993      1992      1991      1994
      1993      1991      1994      1989      1995      1996      1989      1995      1997
      1989      1995      1998      1996      1995      1997      1996      1995      1998
      1997      1995      1998     19716     19715     19719     19716     19715     19723
     19716     19715     19727     19719     19715     19723     19719     19715     19727
     19723     19715     19727     19715     19716     19717     19715     19716     19718
     19715     19716     19731     19717     19716     19718     19717     19716     19731
     19718     19716     19731     19715     19719     19720     19715     19719     19721
     19715     19719     19722     19720     19719     19721     19720     19719     19722
     19721     19719     19722     19715     19723     19724     19715     19723     19725
     19715     19723     19726     19724     19723     19725     19724     19723     19726
     19725     19723     19726     19715     19727     19728     19715     19727     19729
     19715     19727     19730     19728     19727     19729     19728     19727     19730
     19729     19727     19730     19716     19731     19732     19716     19731     19733
     19716     19731     19737     19732     19731     19733     19732     19731     19737
     19733     19731     19737     19735     19734     19736     19735     19734     19737
     19735     19734     19738     19736     19734     19737     19736     19734     19738
     19737     19734     19738     19731     19737     19734     19734     19738     19739
     19738     19739     19740     19738     19739     19741     19738     19739     19742
     19740     19739     19741     19740     19739     19742     19741     19739     19742
     19739     19742     19743     19739     19742     19744     19739     19742     19750
     19743     19742     19744     19743     19742     19750     19744     19742     19750
     19742     19744     19745     19744     19745     19746     19744     19745     19747
     19746     19745     19747     19745     19747     19748     19745     19747     19749
     19745     19747     19759     19748     19747     19749     19748     19747     19759
     19749     19747     19759     19742     19750     19751     19742     19750     19752
     19742     19750     19753     19751     19750     19752     19751     19750     19753
     19752     19750     19753     19750     19753     19754     19753     19754     19755
     19753     19754     19756     19755     19754     19756     19754     19756     19757
     19754     19756     19758     19754     19756     19806     19757     19756     19758
     19757     19756     19806     19758     19756     19806     19747     19759     19760
     19747     19759     19761     19747     19759     19762     19760     19759     19761
     19760     19759     19762     19761     19759     19762     19759     19762     19763
     19759     19762     19764     19759     19762     19765     19763     19762     19764
     19763     19762     19765     19764     19762     19765     19762     19765     19766
     19762     19765     19767     19762     19765     19768     19766     19765     19767
     19766     19765     19768     19767     19765     19768     19765     19768     19769
     19765     19768     19770     19765     19768     19771     19769     19768     19770
     19769     19768     19771     19770     19768     19771     19768     19771     19772
     19768     19771     19773     19768     19771     19774     19772     19771     19773
     19772     19771     19774     19773     19771     19774     19771     19774     19775
     19771     19774     19776     19771     19774     19777     19775     19774     19776
     19775     19774     19777     19776     19774     19777     19774     19777     19778
     19774     19777     19779     19778     19777     19779     19777     19779     19780
     19777     19779     19781     19780     19779     19781     19779     19781     19782
     19779     19781     19783     19779     19781     19784     19782     19781     19783
     19782     19781     19784     19783     19781     19784     19781     19784     19785
     19781     19784     19786     19781     19784     19787     19785     19784     19786
     19785     19784     19787     19786     19784     19787     19784     19787     19788
     19784     19787     19789     19784     19787     19790     19788     19787     19789
     19788     19787     19790     19789     19787     19790     19787     19790     19791
     19787     19790     19792     19787     19790     19793     19791     19790     19792
     19791     19790     19793     19792     19790     19793     19790     19793     19794
     19790     19793     19795     19790     19793     19796     19794     19793     19795
     19794     19793     19796     19795     19793     19796     19793     19796     19797
     19793     19796     19798     19793     19796     19799     19797     19796     19798
     19797     19796     19799     19798     19796     19799     19796     19799     19800
     19796     19799     19801     19796     19799     19802     19800     19799     19801
     19800     19799     19802     19801     19799     19802     19799     19802     19803
     19799     19802     19804     19799     19802     19805     19803     19802     19804
     19803     19802     19805     19804     19802     19805     19756     19806     19807
     19756     19806     19808     19756     19806     19809     19807     19806     19808
     19807     19806     19809     19808     19806     19809     19806     19809     19810
     19806     19809     19811     19806     19809     19812     19810     19809     19811
     19810     19809     19812     19811     19809     19812     19809     19812     19813
     19809     19812     19814     19809     19812     19815     19813     19812     19814
     19813     19812     19815     19814     19812     19815     19812     19815     19816
     19812     19815     19817     19812     19815     19818     19816     19815     19817
     19816     19815     19818     19817     19815     19818     19815     19818     19819
     19815     19818     19820     19815     19818     19821     19819     19818     19820
     19819     19818     19821     19820     19818     19821     19818     19821     19822
     19818     19821     19823     19818     19821     19824     19822     19821     19823
     19822     19821     19824     19823     19821     19824     19821     19824     19825
     19821     19824     19826     19821     19824     19827     19825     19824     19826
     19825     19824     19827     19826     19824     19827     19824     19827     19828
     19824     19827     19829     19824     19827     19830     19828     19827     19829
     19828     19827     19830     19829     19827     19830     19827     19830     19831
     19827     19830     19832     19827     19830     19833     19831     19830     19832
     19831     19830     19833     19832     19830     19833     19830     19833     19834
     19830     19833     19835     19830     19833     19836     19834     19833     19835
     19834     19833     19836     19835     19833     19836     19833     19836     19837
     19833     19836     19838     19833     19836     19839     19837     19836     19838
     19837     19836     19839     19838     19836     19839     19836     19839     19840
     19836     19839     19841     19836     19839     19842     19840     19839     19841
     19840     19839     19842     19841     19839     19842     19839     19842     19843
     19839     19842     19844     19839     19842     19845     19843     19842     19844
     19843     19842     19845     19844     19842     19845     19842     19845     19846
     19842     19845     19847     19842     19845     19848     19846     19845     19847
     19846     19845     19848     19847     19845     19848     19850     19849     19853
     19850     19849     19857     19850     19849     19861     19853     19849     19857
     19853     19849     19861     19857     19849     19861     19849     19850     19851
     19849     19850     19852     19849     19850     19865     19851     19850     19852
     19851     19850     19865     19852     19850     19865     19849     19853     19854
     19849     19853     19855     19849     19853     19856     19854     19853     19855
     19854     19853     19856     19855     19853     19856     19849     19857     19858
     19849     19857     19859     19849     19857     19860     19858     19857     19859
     19858     19857     19860     19859     19857     19860     19849     19861     19862
     19849     19861     19863     19849     19861     19864     19862     19861     19863
     19862     19861     19864     19863     19861     19864     19850     19865     19866
     19850     19865     19867     19850     19865     19871     19866     19865     19867
     19866     19865     19871     19867     19865     19871     19869     19868     19870
     19869     19868     19871     19869     19868     19872     19870     19868     19871
     19870     19868     19872     19871     19868     19872     19865     19871     19868
     19868     19872     19873     19872     19873     19874     19872     19873     19875
     19872     19873     19876     19874     19873     19875     19874     19873     19876
     19875     19873     19876     19873     19876     19877     19873     19876     19878
     19873     19876     19884     19877     19876     19878     19877     19876     19884
     19878     19876     19884     19876     19878     19879     19878     19879     19880
     19878     19879     19881     19880     19879     19881     19879     19881     19882
     19879     19881     19883     19879     19881     19893     19882     19881     19883
     19882     19881     19893     19883     19881     19893     19876     19884     19885
     19876     19884     19886     19876     19884     19887     19885     19884     19886
     19885     19884     19887     19886     19884     19887     19884     19887     19888
     19887     19888     19889     19887     19888     19890     19889     19888     19890
     19888     19890     19891     19888     19890     19892     19888     19890     19940
     19891     19890     19892     19891     19890     19940     19892     19890     19940
     19881     19893     19894     19881     19893     19895     19881     19893     19896
     19894     19893     19895     19894     19893     19896     19895     19893     19896
     19893     19896     19897     19893     19896     19898     19893     19896     19899
     19897     19896     19898     19897     19896     19899     19898     19896     19899
     19896     19899     19900     19896     19899     19901     19896     19899     19902
     19900     19899     19901     19900     19899     19902     19901     19899     19902
     19899     19902     19903     19899     19902     19904     19899     19902     19905
     19903     19902     19904     19903     19902     19905     19904     19902     19905
     19902     19905     19906     19902     19905     19907     19902     19905     19908
     19906     19905     19907     19906     19905     19908     19907     19905     19908
     19905     19908     19909     19905     19908     19910     19905     19908     19911
     19909     19908     19910     19909     19908     19911     19910     19908     19911
     19908     19911     19912     19908     19911     19913     19912     19911     19913
     19911     19913     19914     19911     19913     19915     19914     19913     19915
     19913     19915     19916     19913     19915     19917     19913     19915     19918
     19916     19915     19917     19916     19915     19918     19917     19915     19918
     19915     19918     19919     19915     19918     19920     19915     19918     19921
     19919     19918     19920     19919     19918     19921     19920     19918     19921
     19918     19921     19922     19918     19921     19923     19918     19921     19924
     19922     19921     19923     19922     19921     19924     19923     19921     19924
     19921     19924     19925     19921     19924     19926     19921     19924     19927
     19925     19924     19926     19925     19924     19927     19926     19924     19927
     19924     19927     19928     19924     19927     19929     19924     19927     19930
     19928     19927     19929     19928     19927     19930     19929     19927     19930
     19927     19930     19931     19927     19930     19932     19927     19930     19933
     19931     19930     19932     19931     19930     19933     19932     19930     19933
     19930     19933     19934     19930     19933     19935     19930     19933     19936
     19934     19933     19935     19934     19933     19936     19935     19933     19936
     19933     19936     19937     19933     19936     19938     19933     19936     19939
     19937     19936     19938     19937     19936     19939     19938     19936     19939
     19890     19940     19941     19890     19940     19942     19890     19940     19943
     19941     19940     19942     19941     19940     19943     19942     19940     19943
     19940     19943     19944     19940     19943     19945     19940     19943     19946
     19944     19943     19945     19944     19943     19946     19945     19943     19946
     19943     19946     19947     19943     19946     19948     19943     19946     19949
     19947     19946     19948     19947     19946     19949     19948     19946     19949
     19946     19949     19950     19946     19949     19951     19946     19949     19952
     19950     19949     19951     19950     19949     19952     19951     19949     19952
     19949     19952     19953     19949     19952     19954     19949     19952     19955
     19953     19952     19954     19953     19952     19955     19954     19952     19955
     19952     19955     19956     19952     19955     19957     19952     19955     19958
     19956     19955     19957     19956     19955     19958     19957     19955     19958
     19955     19958     19959     19955     19958     19960     19955     19958     19961
     19959     19958     19960     19959     19958     19961     19960     19958     19961
     19958     19961     19962     19958     19961     19963     19958     19961     19964
     19962     19961     19963     19962     19961     19964     19963     19961     19964
     19961     19964     19965     19961     19964     19966     19961     19964     19967
     19965     19964     19966     19965     19964     19967     19966     19964     19967
     19964     19967     19968     19964     19967     19969     19964     19967     19970
     19968     19967     19969     19968     19967     19970     19969     19967     19970
     19967     19970     19971     19967     19970     19972     19967     19970     19973
     19971     19970     19972     19971     19970     19973     19972     19970     19973
     19970     19973     19974     19970     19973     19975     19970     19973     19976
     19974     19973     19975     19974     19973     19976     19975     19973     19976
     19973     19976     19977     19973     19976     19978     19973     19976     19979
     19977     19976     19978     19977     19976     19979     19978     19976     19979
     19976     19979     19980     19976     19979     19981     19976     19979     19982
     19980     19979     19981     19980     19979     19982     19981     19979     19982
     19984     19983     19987     19984     19983     19991     19984     19983     19995
     19987     19983     19991     19987     19983     19995     19991     19983     19995
     19983     19984     19985     19983     19984     19986     19983     19984     19999
     19985     19984     19986     19985     19984     19999     19986     19984     19999
     19983     19987     19988     19983     19987     19989     19983     19987     19990
     19988     19987     19989     19988     19987     19990     19989     19987     19990
     19983     19991     19992     19983     19991     19993     19983     19991     19994
     19992     19991     19993     19992     19991     19994     19993     19991     19994
     19983     19995     19996     19983     19995     19997     19983     19995     19998
     19996     19995     19997     19996     19995     19998     19997     19995     19998
     19984     19999     20000     19984     19999     20001     19984     19999     20005
     20000     19999     20001     20000     19999     20005     20001     19999     20005
     20003     20002     20004     20003     20002     20005     20003     20002     20006
     20004     20002     20005     20004     20002     20006     20005     20002     20006
     19999     20005     20002     20002     20006     20007     20006     20007     20008
     20006     20007     20009     20006     20007     20010     20008     20007     20009
     20008     20007     20010     20009     20007     20010     20007     20010     20011
     20007     20010     20012     20007     20010     20018     20011     20010     20012
     20011     20010     20018     20012     20010     20018     20010     20012     20013
     20012     20013     20014     20012     20013     20015     20014     20013     20015
     20013     20015     20016     20013     20015     20017     20013     20015     20027
     20016     20015     20017     20016     20015     20027     20017     20015     20027
     20010     20018     20019     20010     20018     20020     20010     20018     20021
     20019     20018     20020     20019     20018     20021     20020     20018     20021
     20018     20021     20022     20021     20022     20023     20021     20022     20024
     20023     20022     20024     20022     20024     20025     20022     20024     20026
     20022     20024     20074     20025     20024     20026     20025     20024     20074
     20026     20024     20074     20015     20027     20028     20015     20027     20029
     20015     20027     20030     20028     20027     20029     20028     20027     20030
     20029     20027     20030     20027     20030     20031     20027     20030     20032
     20027     20030     20033     20031     20030     20032     20031     20030     20033
     20032     20030     20033     20030     20033     20034     20030     20033     20035
     20030     20033     20036     20034     20033     20035     20034     20033     20036
     20035     20033     20036     20033     20036     20037     20033     20036     20038
     20033     20036     20039     20037     20036     20038     20037     20036     20039
     20038     20036     20039     20036     20039     20040     20036     20039     20041
     20036     20039     20042     20040     20039     20041     20040     20039     20042
     20041     20039     20042     20039     20042     20043     20039     20042     20044
     20039     20042     20045     20043     20042     20044     20043     20042     20045
     20044     20042     20045     20042     20045     20046     20042     20045     20047
     20046     20045     20047     20045     20047     20048     20045     20047     20049
     20048     20047     20049     20047     20049     20050     20047     20049     20051
     20047     20049     20052     20050     20049     20051     20050     20049     20052
     20051     20049     20052     20049     20052     20053     20049     20052     20054
     20049     20052     20055     20053     20052     20054     20053     20052     20055
     20054     20052     20055     20052     20055     20056     20052     20055     20057
     20052     20055     20058     20056     20055     20057     20056     20055     20058
     20057     20055     20058     20055     20058     20059     20055     20058     20060
     20055     20058     20061     20059     20058     20060     20059     20058     20061
     20060     20058     20061     20058     20061     20062     20058     20061     20063
     20058     20061     20064     20062     20061     20063     20062     20061     20064
     20063     20061     20064     20061     20064     20065     20061     20064     20066
     20061     20064     20067     20065     20064     20066     20065     20064     20067
     20066     20064     20067     20064     20067     20068     20064     20067     20069
     20064     20067     20070     20068     20067     20069     20068     20067     20070
     20069     20067     20070     20067     20070     20071     20067     20070     20072
     20067     20070     20073     20071     20070     20072     20071     20070     20073
     20072     20070     20073     20024     20074     20075     20024     20074     20076
     20024     20074     20077     20075     20074     20076     20075     20074     20077
     20076     20074     20077     20074     20077     20078     20074     20077     20079
     20074     20077     20080     20078     20077     20079     20078     20077     20080
     20079     20077     20080     20077     20080     20081     20077     20080     20082
     20077     20080     20083     20081     20080     20082     20081     20080     20083
     20082     20080     20083     20080     20083     20084     20080     20083     20085
     20080     20083     20086     20084     20083     20085     20084     20083     20086
     20085     20083     20086     20083     20086     20087     20083     20086     20088
     20083     20086     20089     20087     20086     20088     20087     20086     20089
     20088     20086     20089     20086     20089     20090     20086     20089     20091
     20086     20089     20092     20090     20089     20091     20090     20089     20092
     20091     20089     20092     20089     20092     20093     20089     20092     20094
     20089     20092     20095     20093     20092     20094     20093     20092     20095
     20094     20092     20095     20092     20095     20096     20092     20095     20097
     20092     20095     20098     20096     20095     20097     20096     20095     20098
     20097     20095     20098     20095     20098     20099     20095     20098     20100
     20095     20098     20101     20099     20098     20100     20099     20098     20101
     20100     20098     20101     20098     20101     20102     20098     20101     20103
     20098     20101     20104     20102     20101     20103     20102     20101     20104
     20103     20101     20104     20101     20104     20105     20101     20104     20106
     20101     20104     20107     20105     20104     20106     20105     20104     20107
     20106     20104     20107     20104     20107     20108     20104     20107     20109
     20104     20107     20110     20108     20107     20109     20108     20107     20110
     20109     20107     20110     20107     20110     20111     20107     20110     20112
     20107     20110     20113     20111     20110     20112     20111     20110     20113
     20112     20110     20113     20110     20113     20114     20110     20113     20115
     20110     20113     20116     20114     20113     20115     20114     20113     20116
     20115     20113     20116      6972      6971      6973      6972      6971      6974
      6972      6971      6975      6973      6971      6974      6973      6971      6975
      6974      6971      6975      6971      6975      6976      6971      6975      6977
      6971      6975      6978      6976      6975      6977      6976      6975      6978
      6977      6975      6978      6975      6978      6979      6975      6978      6980
      6975      6978      6985      6979      6978      6980      6979      6978      6985
      6980      6978      6985      6982      6981      6983      6982      6981      6984
      6982      6981      6985      6983      6981      6984      6983      6981      6985
      6984      6981      6985      6981      6984      6986      6978      6985      6981
      6984      6986      6987      6984      6986      6988      6984      6986      6989
      6987      6986      6988      6987      6986      6989      6988      6986      6989
      6986      6989      6990      6986      6989      6991      6986      6989      6997
      6990      6989      6991      6990      6989      6997      6991      6989      6997
      6989      6991      6992      6991      6992      6993      6991      6992      6994
      6993      6992      6994      6992      6994      6995      6992      6994      6996
      6992      6994      7006      6995      6994      6996      6995      6994      7006
      6996      6994      7006      6989      6997      6998      6989      6997      6999
      6989      6997      7000      6998      6997      6999      6998      6997      7000
      6999      6997      7000      6997      7000      7001      7000      7001      7002
      7000      7001      7003      7002      7001      7003      7001      7003      7004
      7001      7003      7005      7001      7003      7053      7004      7003      7005
      7004      7003      7053      7005      7003      7053      6994      7006      7007
      6994      7006      7008      6994      7006      7009      7007      7006      7008
      7007      7006      7009      7008      7006      7009      7006      7009      7010
      7006      7009      7011      7006      7009      7012      7010      7009      7011
      7010      7009      7012      7011      7009      7012      7009      7012      7013
      7009      7012      7014      7009      7012      7015      7013      7012      7014
      7013      7012      7015      7014      7012      7015      7012      7015      7016
      7012      7015      7017      7012      7015      7018      7016      7015      7017
      7016      7015      7018      7017      7015      7018      7015      7018      7019
      7015      7018      7020      7015      7018      7021      7019      7018      7020
      7019      7018      7021      7020      7018      7021      7018      7021      7022
      7018      7021      7023      7018      7021      7024      7022      7021      7023
      7022      7021      7024      7023      7021      7024      7021      7024      7025
      7021      7024      7026      7025      7024      7026      7024      7026      7027
      7024      7026      7028      7027      7026      7028      7026      7028      7029
      7026      7028      7030      7026      7028      7031      7029      7028      7030
      7029      7028      7031      7030      7028      7031      7028      7031      7032
      7028      7031      7033      7028      7031      7034      7032      7031      7033
      7032      7031      7034      7033      7031      7034      7031      7034      7035
      7031      7034      7036      7031      7034      7037      7035      7034      7036
      7035      7034      7037      7036      7034      7037      7034      7037      7038
      7034      7037      7039      7034      7037      7040      7038      7037      7039
      7038      7037      7040      7039      7037      7040      7037      7040      7041
      7037      7040      7042      7037      7040      7043      7041      7040      7042
      7041      7040      7043      7042      7040      7043      7040      7043      7044
      7040      7043      7045      7040      7043      7046      7044      7043      7045
      7044      7043      7046      7045      7043      7046      7043      7046      7047
      7043      7046      7048      7043      7046      7049      7047      7046      7048
      7047      7046      7049      7048      7046      7049      7046      7049      7050
      7046      7049      7051      7046      7049      7052      7050      7049      7051
      7050      7049      7052      7051      7049      7052      7003      7053      7054
      7003      7053      7055      7003      7053      7056      7054      7053      7055
      7054      7053      7056      7055      7053      7056      7053      7056      7057
      7053      7056      7058      7053      7056      7059      7057      7056      7058
      7057      7056      7059      7058      7056      7059      7056      7059      7060
      7056      7059      7061      7056      7059      7062      7060      7059      7061
      7060      7059      7062      7061      7059      7062      7059      7062      7063
      7059      7062      7064      7059      7062      7065      7063      7062      7064
      7063      7062      7065      7064      7062      7065      7062      7065      7066
      7062      7065      7067      7062      7065      7068      7066      7065      7067
      7066      7065      7068      7067      7065      7068      7065      7068      7069
      7065      7068      7070      7065      7068      7071      7069      7068      7070
      7069      7068      7071      7070      7068      7071      7068      7071      7072
      7068      7071      7073      7068      7071      7074      7072      7071      7073
      7072      7071      7074      7073      7071      7074      7071      7074      7075
      7071      7074      7076      7071      7074      7077      7075      7074      7076
      7075      7074      7077      7076      7074      7077      7074      7077      7078
      7074      7077      7079      7074      7077      7080      7078      7077      7079
      7078      7077      7080      7079      7077      7080      7077      7080      7081
      7077      7080      7082      7077      7080      7083      7081      7080      7082
      7081      7080      7083      7082      7080      7083      7080      7083      7084
      7080      7083      7085      7080      7083      7086      7084      7083      7085
      7084      7083      7086      7085      7083      7086      7083      7086      7087
      7083      7086      7088      7083      7086      7089      7087      7086      7088
      7087      7086      7089      7088      7086      7089      7086      7089      7090
      7086      7089      7091      7086      7089      7092      7090      7089      7091
      7090      7089      7092      7091      7089      7092      7089      7092      7093
      7089      7092      7094      7089      7092      7095      7093      7092      7094
      7093      7092      7095      7094      7092      7095     12409     12408     12410
     12409     12408     12411     12409     12408     12412     12410     12408     12411
     12410     12408     12412     12411     12408     12412     12408     12412     12413
     12408     12412     12414     12408     12412     12417     12413     12412     12414
     12413     12412     12417     12414     12412     12417     12412     12414     12415
     12412     12414     12416     12415     12414     12416     12412     12417     12418
     12412     12417     12419     12412     12417     12423     12418     12417     12419
     12418     12417     12423     12419     12417     12423     12421     12420     12422
     12421     12420     12423     12421     12420     12424     12422     12420     12423
     12422     12420     12424     12423     12420     12424     12417     12423     12420
     12420     12424     12425     12424     12425     12426     12424     12425     12427
     12424     12425     12428     12426     12425     12427     12426     12425     12428
     12427     12425     12428     12425     12428     12429     12425     12428     12430
     12425     12428     12436     12429     12428     12430     12429     12428     12436
     12430     12428     12436     12428     12430     12431     12430     12431     12432
     12430     12431     12433     12432     12431     12433     12431     12433     12434
     12431     12433     12435     12431     12433     12445     12434     12433     12435
     12434     12433     12445     12435     12433     12445     12428     12436     12437
     12428     12436     12438     12428     12436     12439     12437     12436     12438
     12437     12436     12439     12438     12436     12439     12436     12439     12440
     12439     12440     12441     12439     12440     12442     12441     12440     12442
     12440     12442     12443     12440     12442     12444     12440     12442     12492
     12443     12442     12444     12443     12442     12492     12444     12442     12492
     12433     12445     12446     12433     12445     12447     12433     12445     12448
     12446     12445     12447     12446     12445     12448     12447     12445     12448
     12445     12448     12449     12445     12448     12450     12445     12448     12451
     12449     12448     12450     12449     12448     12451     12450     12448     12451
     12448     12451     12452     12448     12451     12453     12448     12451     12454
     12452     12451     12453     12452     12451     12454     12453     12451     12454
     12451     12454     12455     12451     12454     12456     12451     12454     12457
     12455     12454     12456     12455     12454     12457     12456     12454     12457
     12454     12457     12458     12454     12457     12459     12454     12457     12460
     12458     12457     12459     12458     12457     12460     12459     12457     12460
     12457     12460     12461     12457     12460     12462     12457     12460     12463
     12461     12460     12462     12461     12460     12463     12462     12460     12463
     12460     12463     12464     12460     12463     12465     12464     12463     12465
     12463     12465     12466     12463     12465     12467     12466     12465     12467
     12465     12467     12468     12465     12467     12469     12465     12467     12470
     12468     12467     12469     12468     12467     12470     12469     12467     12470
     12467     12470     12471     12467     12470     12472     12467     12470     12473
     12471     12470     12472     12471     12470     12473     12472     12470     12473
     12470     12473     12474     12470     12473     12475     12470     12473     12476
     12474     12473     12475     12474     12473     12476     12475     12473     12476
     12473     12476     12477     12473     12476     12478     12473     12476     12479
     12477     12476     12478     12477     12476     12479     12478     12476     12479
     12476     12479     12480     12476     12479     12481     12476     12479     12482
     12480     12479     12481     12480     12479     12482     12481     12479     12482
     12479     12482     12483     12479     12482     12484     12479     12482     12485
     12483     12482     12484     12483     12482     12485     12484     12482     12485
     12482     12485     12486     12482     12485     12487     12482     12485     12488
     12486     12485     12487     12486     12485     12488     12487     12485     12488
     12485     12488     12489     12485     12488     12490     12485     12488     12491
     12489     12488     12490     12489     12488     12491     12490     12488     12491
     12442     12492     12493     12442     12492     12494     12442     12492     12495
     12493     12492     12494     12493     12492     12495     12494     12492     12495
     12492     12495     12496     12492     12495     12497     12492     12495     12498
     12496     12495     12497     12496     12495     12498     12497     12495     12498
     12495     12498     12499     12495     12498     12500     12495     12498     12501
     12499     12498     12500     12499     12498     12501     12500     12498     12501
     12498     12501     12502     12498     12501     12503     12498     12501     12504
     12502     12501     12503     12502     12501     12504     12503     12501     12504
     12501     12504     12505     12501     12504     12506     12501     12504     12507
     12505     12504     12506     12505     12504     12507     12506     12504     12507
     12504     12507     12508     12504     12507     12509     12504     12507     12510
     12508     12507     12509     12508     12507     12510     12509     12507     12510
     12507     12510     12511     12507     12510     12512     12507     12510     12513
     12511     12510     12512     12511     12510     12513     12512     12510     12513
     12510     12513     12514     12510     12513     12515     12510     12513     12516
     12514     12513     12515     12514     12513     12516     12515     12513     12516
     12513     12516     12517     12513     12516     12518     12513     12516     12519
     12517     12516     12518     12517     12516     12519     12518     12516     12519
     12516     12519     12520     12516     12519     12521     12516     12519     12522
     12520     12519     12521     12520     12519     12522     12521     12519     12522
     12519     12522     12523     12519     12522     12524     12519     12522     12525
     12523     12522     12524     12523     12522     12525     12524     12522     12525
     12522     12525     12526     12522     12525     12527     12522     12525     12528
     12526     12525     12527     12526     12525     12528     12527     12525     12528
     12525     12528     12529     12525     12528     12530     12525     12528     12531
     12529     12528     12530     12529     12528     12531     12530     12528     12531
     12528     12531     12532     12528     12531     12533     12528     12531     12534
     12532     12531     12533     12532     12531     12534     12533     12531     12534
      2000      1999      2001      2000      1999      2003      2000      1999      2045
      2001      1999      2003      2001      1999      2045      2003      1999      2045
      1999      2001      2002      1999      2003      2004      1999      2003      2005
      1999      2003      2006      2004      2003      2005      2004      2003      2006
      2005      2003      2006      2003      2006      2007      2003      2006      2037
      2007      2006      2037      2006      2007      2008      2006      2007      2009
      2008      2007      2009      2007      2009      2010      2007      2009      2011
      2007      2009      2012      2010      2009      2011      2010      2009      2012
      2011      2009      2012      2009      2012      2013      2009      2012      2014
      2009      2012      2035      2013      2012      2014      2013      2012      2035
      2014      2012      2035      2012      2014      2015      2012      2014      2016
      2012      2014      2024      2015      2014      2016      2015      2014      2024
      2016      2014      2024      2014      2016      2017      2014      2016      2018
      2014      2016      2019      2017      2016      2018      2017      2016      2019
      2018      2016      2019      2016      2019      2020      2016      2019      2021
      2016      2019      2022      2020      2019      2021      2020      2019      2022
      2021      2019      2022      2019      2022      2023      2019      2022      2024
      2019      2022      2048      2023      2022      2024      2023      2022      2048
      2024      2022      2048      2014      2024      2022      2014      2024      2025
      2014      2024      2029      2022      2024      2025      2022      2024      2029
      2025      2024      2029      2024      2025      2026      2024      2025      2027
      2024      2025      2028      2026      2025      2027      2026      2025      2028
      2027      2025      2028      2024      2029      2030      2024      2029      2031
      2024      2029      2032      2030      2029      2031      2030      2029      2032
      2031      2029      2032      2029      2032      2033      2029      2032      2034
      2029      2032      2035      2033      2032      2034      2033      2032      2035
      2034      2032      2035      2012      2035      2032      2012      2035      2036
      2012      2035      2037      2032      2035      2036      2032      2035      2037
      2036      2035      2037      2006      2037      2035      2006      2037      2038
      2006      2037      2042      2035      2037      2038      2035      2037      2042
      2038      2037      2042      2037      2038      2039      2037      2038      2040
      2037      2038      2041      2039      2038      2040      2039      2038      2041
      2040      2038      2041      2037      2042      2043      2037      2042      2044
      2037      2042      2045      2043      2042      2044      2043      2042      2045
      2044      2042      2045      1999      2045      2042      1999      2045      2046
      1999      2045      2047      2042      2045      2046      2042      2045      2047
      2046      2045      2047      2022      2048      2049      2022      2048      2050
      2022      2048      2054      2049      2048      2050      2049      2048      2054
      2050      2048      2054      2048      2050      2051      2048      2050      2052
      2048      2050      2053      2051      2050      2052      2051      2050      2053
      2052      2050      2053      2048      2054      2055      2048      2054      2056
      2048      2054      2057      2055      2054      2056      2055      2054      2057
      2056      2054      2057      2054      2057      2058      2054      2057      2059
      2054      2057      2060      2058      2057      2059      2058      2057      2060
      2059      2057      2060      2057      2060      2061      2057      2060      2062
      2057      2060      2063      2061      2060      2062      2061      2060      2063
      2062      2060      2063      2060      2063      2064      2060      2063      2065
      2060      2063      2069      2064      2063      2065      2064      2063      2069
      2065      2063      2069      2063      2065      2066      2063      2065      2067
      2063      2065      2068      2066      2065      2067      2066      2065      2068
      2067      2065      2068      2063      2069      2070      2063      2069      2071
      2063      2069      2072      2070      2069      2071      2070      2069      2072
      2071      2069      2072     12536     12535     12537     12536     12535     12538
     12536     12535     12539     12537     12535     12538     12537     12535     12539
     12538     12535     12539     12535     12539     12540     12535     12539     12541
     12535     12539     12544     12540     12539     12541     12540     12539     12544
     12541     12539     12544     12539     12541     12542     12539     12541     12543
     12542     12541     12543     12539     12544     12545     12539     12544     12546
     12539     12544     12550     12545     12544     12546     12545     12544     12550
     12546     12544     12550     12548     12547     12549     12548     12547     12550
     12548     12547     12551     12549     12547     12550     12549     12547     12551
     12550     12547     12551     12544     12550     12547     12547     12551     12552
     12551     12552     12553     12551     12552     12554     12551     12552     12555
     12553     12552     12554     12553     12552     12555     12554     12552     12555
     12552     12555     12556     12552     12555     12557     12552     12555     12563
     12556     12555     12557     12556     12555     12563     12557     12555     12563
     12555     12557     12558     12557     12558     12559     12557     12558     12560
     12559     12558     12560     12558     12560     12561     12558     12560     12562
     12558     12560     12572     12561     12560     12562     12561     12560     12572
     12562     12560     12572     12555     12563     12564     12555     12563     12565
     12555     12563     12566     12564     12563     12565     12564     12563     12566
     12565     12563     12566     12563     12566     12567     12566     12567     12568
     12566     12567     12569     12568     12567     12569     12567     12569     12570
     12567     12569     12571     12567     12569     12619     12570     12569     12571
     12570     12569     12619     12571     12569     12619     12560     12572     12573
     12560     12572     12574     12560     12572     12575     12573     12572     12574
     12573     12572     12575     12574     12572     12575     12572     12575     12576
     12572     12575     12577     12572     12575     12578     12576     12575     12577
     12576     12575     12578     12577     12575     12578     12575     12578     12579
     12575     12578     12580     12575     12578     12581     12579     12578     12580
     12579     12578     12581     12580     12578     12581     12578     12581     12582
     12578     12581     12583     12578     12581     12584     12582     12581     12583
     12582     12581     12584     12583     12581     12584     12581     12584     12585
     12581     12584     12586     12581     12584     12587     12585     12584     12586
     12585     12584     12587     12586     12584     12587     12584     12587     12588
     12584     12587     12589     12584     12587     12590     12588     12587     12589
     12588     12587     12590     12589     12587     12590     12587     12590     12591
     12587     12590     12592     12591     12590     12592     12590     12592     12593
     12590     12592     12594     12593     12592     12594     12592     12594     12595
     12592     12594     12596     12592     12594     12597     12595     12594     12596
     12595     12594     12597     12596     12594     12597     12594     12597     12598
     12594     12597     12599     12594     12597     12600     12598     12597     12599
     12598     12597     12600     12599     12597     12600     12597     12600     12601
     12597     12600     12602     12597     12600     12603     12601     12600     12602
     12601     12600     12603     12602     12600     12603     12600     12603     12604
     12600     12603     12605     12600     12603     12606     12604     12603     12605
     12604     12603     12606     12605     12603     12606     12603     12606     12607
     12603     12606     12608     12603     12606     12609     12607     12606     12608
     12607     12606     12609     12608     12606     12609     12606     12609     12610
     12606     12609     12611     12606     12609     12612     12610     12609     12611
     12610     12609     12612     12611     12609     12612     12609     12612     12613
     12609     12612     12614     12609     12612     12615     12613     12612     12614
     12613     12612     12615     12614     12612     12615     12612     12615     12616
     12612     12615     12617     12612     12615     12618     12616     12615     12617
     12616     12615     12618     12617     12615     12618     12569     12619     12620
     12569     12619     12621     12569     12619     12622     12620     12619     12621
     12620     12619     12622     12621     12619     12622     12619     12622     12623
     12619     12622     12624     12619     12622     12625     12623     12622     12624
     12623     12622     12625     12624     12622     12625     12622     12625     12626
     12622     12625     12627     12622     12625     12628     12626     12625     12627
     12626     12625     12628     12627     12625     12628     12625     12628     12629
     12625     12628     12630     12625     12628     12631     12629     12628     12630
     12629     12628     12631     12630     12628     12631     12628     12631     12632
     12628     12631     12633     12628     12631     12634     12632     12631     12633
     12632     12631     12634     12633     12631     12634     12631     12634     12635
     12631     12634     12636     12631     12634     12637     12635     12634     12636
     12635     12634     12637     12636     12634     12637     12634     12637     12638
     12634     12637     12639     12634     12637     12640     12638     12637     12639
     12638     12637     12640     12639     12637     12640     12637     12640     12641
     12637     12640     12642     12637     12640     12643     12641     12640     12642
     12641     12640     12643     12642     12640     12643     12640     12643     12644
     12640     12643     12645     12640     12643     12646     12644     12643     12645
     12644     12643     12646     12645     12643     12646     12643     12646     12647
     12643     12646     12648     12643     12646     12649     12647     12646     12648
     12647     12646     12649     12648     12646     12649     12646     12649     12650
     12646     12649     12651     12646     12649     12652     12650     12649     12651
     12650     12649     12652     12651     12649     12652     12649     12652     12653
     12649     12652     12654     12649     12652     12655     12653     12652     12654
     12653     12652     12655     12654     12652     12655     12652     12655     12656
     12652     12655     12657     12652     12655     12658     12656     12655     12657
     12656     12655     12658     12657     12655     12658     12655     12658     12659
     12655     12658     12660     12655     12658     12661     12659     12658     12660
     12659     12658     12661     12660     12658     12661     12663     12662     12664
     12663     12662     12665     12663     12662     12666     12664     12662     12665
     12664     12662     12666     12665     12662     12666     12662     12666     12667
     12662     12666     12668     12662     12666     12671     12667     12666     12668
     12667     12666     12671     12668     12666     12671     12666     12668     12669
     12666     12668     12670     12669     12668     12670     12666     12671     12672
     12666     12671     12673     12666     12671     12677     12672     12671     12673
     12672     12671     12677     12673     12671     12677     12675     12674     12676
     12675     12674     12677     12675     12674     12678     12676     12674     12677
     12676     12674     12678     12677     12674     12678     12671     12677     12674
     12674     12678     12679     12678     12679     12680     12678     12679     12681
     12678     12679     12682     12680     12679     12681     12680     12679     12682
     12681     12679     12682     12679     12682     12683     12679     12682     12684
     12679     12682     12690     12683     12682     12684     12683     12682     12690
     12684     12682     12690     12682     12684     12685     12684     12685     12686
     12684     12685     12687     12686     12685     12687     12685     12687     12688
     12685     12687     12689     12685     12687     12699     12688     12687     12689
     12688     12687     12699     12689     12687     12699     12682     12690     12691
     12682     12690     12692     12682     12690     12693     12691     12690     12692
     12691     12690     12693     12692     12690     12693     12690     12693     12694
     12693     12694     12695     12693     12694     12696     12695     12694     12696
     12694     12696     12697     12694     12696     12698     12694     12696     12746
     12697     12696     12698     12697     12696     12746     12698     12696     12746
     12687     12699     12700     12687     12699     12701     12687     12699     12702
     12700     12699     12701     12700     12699     12702     12701     12699     12702
     12699     12702     12703     12699     12702     12704     12699     12702     12705
     12703     12702     12704     12703     12702     12705     12704     12702     12705
     12702     12705     12706     12702     12705     12707     12702     12705     12708
     12706     12705     12707     12706     12705     12708     12707     12705     12708
     12705     12708     12709     12705     12708     12710     12705     12708     12711
     12709     12708     12710     12709     12708     12711     12710     12708     12711
     12708     12711     12712     12708     12711     12713     12708     12711     12714
     12712     12711     12713     12712     12711     12714     12713     12711     12714
     12711     12714     12715     12711     12714     12716     12711     12714     12717
     12715     12714     12716     12715     12714     12717     12716     12714     12717
     12714     12717     12718     12714     12717     12719     12718     12717     12719
     12717     12719     12720     12717     12719     12721     12720     12719     12721
     12719     12721     12722     12719     12721     12723     12719     12721     12724
     12722     12721     12723     12722     12721     12724     12723     12721     12724
     12721     12724     12725     12721     12724     12726     12721     12724     12727
     12725     12724     12726     12725     12724     12727     12726     12724     12727
     12724     12727     12728     12724     12727     12729     12724     12727     12730
     12728     12727     12729     12728     12727     12730     12729     12727     12730
     12727     12730     12731     12727     12730     12732     12727     12730     12733
     12731     12730     12732     12731     12730     12733     12732     12730     12733
     12730     12733     12734     12730     12733     12735     12730     12733     12736
     12734     12733     12735     12734     12733     12736     12735     12733     12736
     12733     12736     12737     12733     12736     12738     12733     12736     12739
     12737     12736     12738     12737     12736     12739     12738     12736     12739
     12736     12739     12740     12736     12739     12741     12736     12739     12742
     12740     12739     12741     12740     12739     12742     12741     12739     12742
     12739     12742     12743     12739     12742     12744     12739     12742     12745
     12743     12742     12744     12743     12742     12745     12744     12742     12745
     12696     12746     12747     12696     12746     12748     12696     12746     12749
     12747     12746     12748     12747     12746     12749     12748     12746     12749
     12746     12749     12750     12746     12749     12751     12746     12749     12752
     12750     12749     12751     12750     12749     12752     12751     12749     12752
     12749     12752     12753     12749     12752     12754     12749     12752     12755
     12753     12752     12754     12753     12752     12755     12754     12752     12755
     12752     12755     12756     12752     12755     12757     12752     12755     12758
     12756     12755     12757     12756     12755     12758     12757     12755     12758
     12755     12758     12759     12755     12758     12760     12755     12758     12761
     12759     12758     12760     12759     12758     12761     12760     12758     12761
     12758     12761     12762     12758     12761     12763     12758     12761     12764
     12762     12761     12763     12762     12761     12764     12763     12761     12764
     12761     12764     12765     12761     12764     12766     12761     12764     12767
     12765     12764     12766     12765     12764     12767     12766     12764     12767
     12764     12767     12768     12764     12767     12769     12764     12767     12770
     12768     12767     12769     12768     12767     12770     12769     12767     12770
     12767     12770     12771     12767     12770     12772     12767     12770     12773
     12771     12770     12772     12771     12770     12773     12772     12770     12773
     12770     12773     12774     12770     12773     12775     12770     12773     12776
     12774     12773     12775     12774     12773     12776     12775     12773     12776
     12773     12776     12777     12773     12776     12778     12773     12776     12779
     12777     12776     12778     12777     12776     12779     12778     12776     12779
     12776     12779     12780     12776     12779     12781     12776     12779     12782
     12780     12779     12781     12780     12779     12782     12781     12779     12782
     12779     12782     12783     12779     12782     12784     12779     12782     12785
     12783     12782     12784     12783     12782     12785     12784     12782     12785
     12782     12785     12786     12782     12785     12787     12782     12785     12788
     12786     12785     12787     12786     12785     12788     12787     12785     12788
     20118     20117     20121     20118     20117     20125     20118     20117     20129
     20121     20117     20125     20121     20117     20129     20125     20117     20129
     20117     20118     20119     20117     20118     20120     20117     20118     20133
     20119     20118     20120     20119     20118     20133     20120     20118     20133
     20117     20121     20122     20117     20121     20123     20117     20121     20124
     20122     20121     20123     20122     20121     20124     20123     20121     20124
     20117     20125     20126     20117     20125     20127     20117     20125     20128
     20126     20125     20127     20126     20125     20128     20127     20125     20128
     20117     20129     20130     20117     20129     20131     20117     20129     20132
     20130     20129     20131     20130     20129     20132     20131     20129     20132
     20118     20133     20134     20118     20133     20135     20118     20133     20139
     20134     20133     20135     20134     20133     20139     20135     20133     20139
     20137     20136     20138     20137     20136     20139     20137     20136     20140
     20138     20136     20139     20138     20136     20140     20139     20136     20140
     20133     20139     20136     20136     20140     20141     20140     20141     20142
     20140     20141     20143     20140     20141     20144     20142     20141     20143
     20142     20141     20144     20143     20141     20144     20141     20144     20145
     20141     20144     20146     20141     20144     20152     20145     20144     20146
     20145     20144     20152     20146     20144     20152     20144     20146     20147
     20146     20147     20148     20146     20147     20149     20148     20147     20149
     20147     20149     20150     20147     20149     20151     20147     20149     20161
     20150     20149     20151     20150     20149     20161     20151     20149     20161
     20144     20152     20153     20144     20152     20154     20144     20152     20155
     20153     20152     20154     20153     20152     20155     20154     20152     20155
     20152     20155     20156     20155     20156     20157     20155     20156     20158
     20157     20156     20158     20156     20158     20159     20156     20158     20160
     20156     20158     20208     20159     20158     20160     20159     20158     20208
     20160     20158     20208     20149     20161     20162     20149     20161     20163
     20149     20161     20164     20162     20161     20163     20162     20161     20164
     20163     20161     20164     20161     20164     20165     20161     20164     20166
     20161     20164     20167     20165     20164     20166     20165     20164     20167
     20166     20164     20167     20164     20167     20168     20164     20167     20169
     20164     20167     20170     20168     20167     20169     20168     20167     20170
     20169     20167     20170     20167     20170     20171     20167     20170     20172
     20167     20170     20173     20171     20170     20172     20171     20170     20173
     20172     20170     20173     20170     20173     20174     20170     20173     20175
     20170     20173     20176     20174     20173     20175     20174     20173     20176
     20175     20173     20176     20173     20176     20177     20173     20176     20178
     20173     20176     20179     20177     20176     20178     20177     20176     20179
     20178     20176     20179     20176     20179     20180     20176     20179     20181
     20180     20179     20181     20179     20181     20182     20179     20181     20183
     20182     20181     20183     20181     20183     20184     20181     20183     20185
     20181     20183     20186     20184     20183     20185     20184     20183     20186
     20185     20183     20186     20183     20186     20187     20183     20186     20188
     20183     20186     20189     20187     20186     20188     20187     20186     20189
     20188     20186     20189     20186     20189     20190     20186     20189     20191
     20186     20189     20192     20190     20189     20191     20190     20189     20192
     20191     20189     20192     20189     20192     20193     20189     20192     20194
     20189     20192     20195     20193     20192     20194     20193     20192     20195
     20194     20192     20195     20192     20195     20196     20192     20195     20197
     20192     20195     20198     20196     20195     20197     20196     20195     20198
     20197     20195     20198     20195     20198     20199     20195     20198     20200
     20195     20198     20201     20199     20198     20200     20199     20198     20201
     20200     20198     20201     20198     20201     20202     20198     20201     20203
     20198     20201     20204     20202     20201     20203     20202     20201     20204
     20203     20201     20204     20201     20204     20205     20201     20204     20206
     20201     20204     20207     20205     20204     20206     20205     20204     20207
     20206     20204     20207     20158     20208     20209     20158     20208     20210
     20158     20208     20211     20209     20208     20210     20209     20208     20211
     20210     20208     20211     20208     20211     20212     20208     20211     20213
     20208     20211     20214     20212     20211     20213     20212     20211     20214
     20213     20211     20214     20211     20214     20215     20211     20214     20216
     20211     20214     20217     20215     20214     20216     20215     20214     20217
     20216     20214     20217     20214     20217     20218     20214     20217     20219
     20214     20217     20220     20218     20217     20219     20218     20217     20220
     20219     20217     20220     20217     20220     20221     20217     20220     20222
     20217     20220     20223     20221     20220     20222     20221     20220     20223
     20222     20220     20223     20220     20223     20224     20220     20223     20225
     20220     20223     20226     20224     20223     20225     20224     20223     20226
     20225     20223     20226     20223     20226     20227     20223     20226     20228
     20223     20226     20229     20227     20226     20228     20227     20226     20229
     20228     20226     20229     20226     20229     20230     20226     20229     20231
     20226     20229     20232     20230     20229     20231     20230     20229     20232
     20231     20229     20232     20229     20232     20233     20229     20232     20234
     20229     20232     20235     20233     20232     20234     20233     20232     20235
     20234     20232     20235     20232     20235     20236     20232     20235     20237
     20232     20235     20238     20236     20235     20237     20236     20235     20238
     20237     20235     20238     20235     20238     20239     20235     20238     20240
     20235     20238     20241     20239     20238     20240     20239     20238     20241
     20240     20238     20241     20238     20241     20242     20238     20241     20243
     20238     20241     20244     20242     20241     20243     20242     20241     20244
     20243     20241     20244     20241     20244     20245     20241     20244     20246
     20241     20244     20247     20245     20244     20246     20245     20244     20247
     20246     20244     20247     20244     20247     20248     20244     20247     20249
     20244     20247     20250     20248     20247     20249     20248     20247     20250
     20249     20247     20250     20252     20251     20255     20252     20251     20259
     20252     20251     20263     20255     20251     20259     20255     20251     20263
     20259     20251     20263     20251     20252     20253     20251     20252     20254
     20251     20252     20267     20253     20252     20254     20253     20252     20267
     20254     20252     20267     20251     20255     20256     20251     20255     20257
     20251     20255     20258     20256     20255     20257     20256     20255     20258
     20257     20255     20258     20251     20259     20260     20251     20259     20261
     20251     20259     20262     20260     20259     20261     20260     20259     20262
     20261     20259     20262     20251     20263     20264     20251     20263     20265
     20251     20263     20266     20264     20263     20265     20264     20263     20266
     20265     20263     20266     20252     20267     20268     20252     20267     20269
     20252     20267     20273     20268     20267     20269     20268     20267     20273
     20269     20267     20273     20271     20270     20272     20271     20270     20273
     20271     20270     20274     20272     20270     20273     20272     20270     20274
     20273     20270     20274     20267     20273     20270     20270     20274     20275
     20274     20275     20276     20274     20275     20277     20274     20275     20278
     20276     20275     20277     20276     20275     20278     20277     20275     20278
     20275     20278     20279     20275     20278     20280     20275     20278     20286
     20279     20278     20280     20279     20278     20286     20280     20278     20286
     20278     20280     20281     20280     20281     20282     20280     20281     20283
     20282     20281     20283     20281     20283     20284     20281     20283     20285
     20281     20283     20295     20284     20283     20285     20284     20283     20295
     20285     20283     20295     20278     20286     20287     20278     20286     20288
     20278     20286     20289     20287     20286     20288     20287     20286     20289
     20288     20286     20289     20286     20289     20290     20289     20290     20291
     20289     20290     20292     20291     20290     20292     20290     20292     20293
     20290     20292     20294     20290     20292     20342     20293     20292     20294
     20293     20292     20342     20294     20292     20342     20283     20295     20296
     20283     20295     20297     20283     20295     20298     20296     20295     20297
     20296     20295     20298     20297     20295     20298     20295     20298     20299
     20295     20298     20300     20295     20298     20301     20299     20298     20300
     20299     20298     20301     20300     20298     20301     20298     20301     20302
     20298     20301     20303     20298     20301     20304     20302     20301     20303
     20302     20301     20304     20303     20301     20304     20301     20304     20305
     20301     20304     20306     20301     20304     20307     20305     20304     20306
     20305     20304     20307     20306     20304     20307     20304     20307     20308
     20304     20307     20309     20304     20307     20310     20308     20307     20309
     20308     20307     20310     20309     20307     20310     20307     20310     20311
     20307     20310     20312     20307     20310     20313     20311     20310     20312
     20311     20310     20313     20312     20310     20313     20310     20313     20314
     20310     20313     20315     20314     20313     20315     20313     20315     20316
     20313     20315     20317     20316     20315     20317     20315     20317     20318
     20315     20317     20319     20315     20317     20320     20318     20317     20319
     20318     20317     20320     20319     20317     20320     20317     20320     20321
     20317     20320     20322     20317     20320     20323     20321     20320     20322
     20321     20320     20323     20322     20320     20323     20320     20323     20324
     20320     20323     20325     20320     20323     20326     20324     20323     20325
     20324     20323     20326     20325     20323     20326     20323     20326     20327
     20323     20326     20328     20323     20326     20329     20327     20326     20328
     20327     20326     20329     20328     20326     20329     20326     20329     20330
     20326     20329     20331     20326     20329     20332     20330     20329     20331
     20330     20329     20332     20331     20329     20332     20329     20332     20333
     20329     20332     20334     20329     20332     20335     20333     20332     20334
     20333     20332     20335     20334     20332     20335     20332     20335     20336
     20332     20335     20337     20332     20335     20338     20336     20335     20337
     20336     20335     20338     20337     20335     20338     20335     20338     20339
     20335     20338     20340     20335     20338     20341     20339     20338     20340
     20339     20338     20341     20340     20338     20341     20292     20342     20343
     20292     20342     20344     20292     20342     20345     20343     20342     20344
     20343     20342     20345     20344     20342     20345     20342     20345     20346
     20342     20345     20347     20342     20345     20348     20346     20345     20347
     20346     20345     20348     20347     20345     20348     20345     20348     20349
     20345     20348     20350     20345     20348     20351     20349     20348     20350
     20349     20348     20351     20350     20348     20351     20348     20351     20352
     20348     20351     20353     20348     20351     20354     20352     20351     20353
     20352     20351     20354     20353     20351     20354     20351     20354     20355
     20351     20354     20356     20351     20354     20357     20355     20354     20356
     20355     20354     20357     20356     20354     20357     20354     20357     20358
     20354     20357     20359     20354     20357     20360     20358     20357     20359
     20358     20357     20360     20359     20357     20360     20357     20360     20361
     20357     20360     20362     20357     20360     20363     20361     20360     20362
     20361     20360     20363     20362     20360     20363     20360     20363     20364
     20360     20363     20365     20360     20363     20366     20364     20363     20365
     20364     20363     20366     20365     20363     20366     20363     20366     20367
     20363     20366     20368     20363     20366     20369     20367     20366     20368
     20367     20366     20369     20368     20366     20369     20366     20369     20370
     20366     20369     20371     20366     20369     20372     20370     20369     20371
     20370     20369     20372     20371     20369     20372     20369     20372     20373
     20369     20372     20374     20369     20372     20375     20373     20372     20374
     20373     20372     20375     20374     20372     20375     20372     20375     20376
     20372     20375     20377     20372     20375     20378     20376     20375     20377
     20376     20375     20378     20377     20375     20378     20375     20378     20379
     20375     20378     20380     20375     20378     20381     20379     20378     20380
     20379     20378     20381     20380     20378     20381     20378     20381     20382
     20378     20381     20383     20378     20381     20384     20382     20381     20383
     20382     20381     20384     20383     20381     20384     20386     20385     20389
     20386     20385     20393     20386     20385     20397     20389     20385     20393
     20389     20385     20397     20393     20385     20397     20385     20386     20387
     20385     20386     20388     20385     20386     20401     20387     20386     20388
     20387     20386     20401     20388     20386     20401     20385     20389     20390
     20385     20389     20391     20385     20389     20392     20390     20389     20391
     20390     20389     20392     20391     20389     20392     20385     20393     20394
     20385     20393     20395     20385     20393     20396     20394     20393     20395
     20394     20393     20396     20395     20393     20396     20385     20397     20398
     20385     20397     20399     20385     20397     20400     20398     20397     20399
     20398     20397     20400     20399     20397     20400     20386     20401     20402
     20386     20401     20403     20386     20401     20407     20402     20401     20403
     20402     20401     20407     20403     20401     20407     20405     20404     20406
     20405     20404     20407     20405     20404     20408     20406     20404     20407
     20406     20404     20408     20407     20404     20408     20401     20407     20404
     20404     20408     20409     20408     20409     20410     20408     20409     20411
     20408     20409     20412     20410     20409     20411     20410     20409     20412
     20411     20409     20412     20409     20412     20413     20409     20412     20414
     20409     20412     20420     20413     20412     20414     20413     20412     20420
     20414     20412     20420     20412     20414     20415     20414     20415     20416
     20414     20415     20417     20416     20415     20417     20415     20417     20418
     20415     20417     20419     20415     20417     20429     20418     20417     20419
     20418     20417     20429     20419     20417     20429     20412     20420     20421
     20412     20420     20422     20412     20420     20423     20421     20420     20422
     20421     20420     20423     20422     20420     20423     20420     20423     20424
     20423     20424     20425     20423     20424     20426     20425     20424     20426
     20424     20426     20427     20424     20426     20428     20424     20426     20476
     20427     20426     20428     20427     20426     20476     20428     20426     20476
     20417     20429     20430     20417     20429     20431     20417     20429     20432
     20430     20429     20431     20430     20429     20432     20431     20429     20432
     20429     20432     20433     20429     20432     20434     20429     20432     20435
     20433     20432     20434     20433     20432     20435     20434     20432     20435
     20432     20435     20436     20432     20435     20437     20432     20435     20438
     20436     20435     20437     20436     20435     20438     20437     20435     20438
     20435     20438     20439     20435     20438     20440     20435     20438     20441
     20439     20438     20440     20439     20438     20441     20440     20438     20441
     20438     20441     20442     20438     20441     20443     20438     20441     20444
     20442     20441     20443     20442     20441     20444     20443     20441     20444
     20441     20444     20445     20441     20444     20446     20441     20444     20447
     20445     20444     20446     20445     20444     20447     20446     20444     20447
     20444     20447     20448     20444     20447     20449     20448     20447     20449
     20447     20449     20450     20447     20449     20451     20450     20449     20451
     20449     20451     20452     20449     20451     20453     20449     20451     20454
     20452     20451     20453     20452     20451     20454     20453     20451     20454
     20451     20454     20455     20451     20454     20456     20451     20454     20457
     20455     20454     20456     20455     20454     20457     20456     20454     20457
     20454     20457     20458     20454     20457     20459     20454     20457     20460
     20458     20457     20459     20458     20457     20460     20459     20457     20460
     20457     20460     20461     20457     20460     20462     20457     20460     20463
     20461     20460     20462     20461     20460     20463     20462     20460     20463
     20460     20463     20464     20460     20463     20465     20460     20463     20466
     20464     20463     20465     20464     20463     20466     20465     20463     20466
     20463     20466     20467     20463     20466     20468     20463     20466     20469
     20467     20466     20468     20467     20466     20469     20468     20466     20469
     20466     20469     20470     20466     20469     20471     20466     20469     20472
     20470     20469     20471     20470     20469     20472     20471     20469     20472
     20469     20472     20473     20469     20472     20474     20469     20472     20475
     20473     20472     20474     20473     20472     20475     20474     20472     20475
     20426     20476     20477     20426     20476     20478     20426     20476     20479
     20477     20476     20478     20477     20476     20479     20478     20476     20479
     20476     20479     20480     20476     20479     20481     20476     20479     20482
     20480     20479     20481     20480     20479     20482     20481     20479     20482
     20479     20482     20483     20479     20482     20484     20479     20482     20485
     20483     20482     20484     20483     20482     20485     20484     20482     20485
     20482     20485     20486     20482     20485     20487     20482     20485     20488
     20486     20485     20487     20486     20485     20488     20487     20485     20488
     20485     20488     20489     20485     20488     20490     20485     20488     20491
     20489     20488     20490     20489     20488     20491     20490     20488     20491
     20488     20491     20492     20488     20491     20493     20488     20491     20494
     20492     20491     20493     20492     20491     20494     20493     20491     20494
     20491     20494     20495     20491     20494     20496     20491     20494     20497
     20495     20494     20496     20495     20494     20497     20496     20494     20497
     20494     20497     20498     20494     20497     20499     20494     20497     20500
     20498     20497     20499     20498     20497     20500     20499     20497     20500
     20497     20500     20501     20497     20500     20502     20497     20500     20503
     20501     20500     20502     20501     20500     20503     20502     20500     20503
     20500     20503     20504     20500     20503     20505     20500     20503     20506
     20504     20503     20505     20504     20503     20506     20505     20503     20506
     20503     20506     20507     20503     20506     20508     20503     20506     20509
     20507     20506     20508     20507     20506     20509     20508     20506     20509
     20506     20509     20510     20506     20509     20511     20506     20509     20512
     20510     20509     20511     20510     20509     20512     20511     20509     20512
     20509     20512     20513     20509     20512     20514     20509     20512     20515
     20513     20512     20514     20513     20512     20515     20514     20512     20515
     20512     20515     20516     20512     20515     20517     20512     20515     20518
     20516     20515     20517     20516     20515     20518     20517     20515     20518
     12790     12789     12791     12790     12789     12792     12790     12789     12793
     12791     12789     12792     12791     12789     12793     12792     12789     12793
     12789     12793     12794     12789     12793     12795     12789     12793     12798
     12794     12793     12795     12794     12793     12798     12795     12793     12798
     12793     12795     12796     12793     12795     12797     12796     12795     12797
     12793     12798     12799     12793     12798     12800     12793     12798     12804
     12799     12798     12800     12799     12798     12804     12800     12798     12804
     12802     12801     12803     12802     12801     12804     12802     12801     12805
     12803     12801     12804     12803     12801     12805     12804     12801     12805
     12798     12804     12801     12801     12805     12806     12805     12806     12807
     12805     12806     12808     12805     12806     12809     12807     12806     12808
     12807     12806     12809     12808     12806     12809     12806     12809     12810
     12806     12809     12811     12806     12809     12817     12810     12809     12811
     12810     12809     12817     12811     12809     12817     12809     12811     12812
     12811     12812     12813     12811     12812     12814     12813     12812     12814
     12812     12814     12815     12812     12814     12816     12812     12814     12826
     12815     12814     12816     12815     12814     12826     12816     12814     12826
     12809     12817     12818     12809     12817     12819     12809     12817     12820
     12818     12817     12819     12818     12817     12820     12819     12817     12820
     12817     12820     12821     12820     12821     12822     12820     12821     12823
     12822     12821     12823     12821     12823     12824     12821     12823     12825
     12821     12823     12873     12824     12823     12825     12824     12823     12873
     12825     12823     12873     12814     12826     12827     12814     12826     12828
     12814     12826     12829     12827     12826     12828     12827     12826     12829
     12828     12826     12829     12826     12829     12830     12826     12829     12831
     12826     12829     12832     12830     12829     12831     12830     12829     12832
     12831     12829     12832     12829     12832     12833     12829     12832     12834
     12829     12832     12835     12833     12832     12834     12833     12832     12835
     12834     12832     12835     12832     12835     12836     12832     12835     12837
     12832     12835     12838     12836     12835     12837     12836     12835     12838
     12837     12835     12838     12835     12838     12839     12835     12838     12840
     12835     12838     12841     12839     12838     12840     12839     12838     12841
     12840     12838     12841     12838     12841     12842     12838     12841     12843
     12838     12841     12844     12842     12841     12843     12842     12841     12844
     12843     12841     12844     12841     12844     12845     12841     12844     12846
     12845     12844     12846     12844     12846     12847     12844     12846     12848
     12847     12846     12848     12846     12848     12849     12846     12848     12850
     12846     12848     12851     12849     12848     12850     12849     12848     12851
     12850     12848     12851     12848     12851     12852     12848     12851     12853
     12848     12851     12854     12852     12851     12853     12852     12851     12854
     12853     12851     12854     12851     12854     12855     12851     12854     12856
     12851     12854     12857     12855     12854     12856     12855     12854     12857
     12856     12854     12857     12854     12857     12858     12854     12857     12859
     12854     12857     12860     12858     12857     12859     12858     12857     12860
     12859     12857     12860     12857     12860     12861     12857     12860     12862
     12857     12860     12863     12861     12860     12862     12861     12860     12863
     12862     12860     12863     12860     12863     12864     12860     12863     12865
     12860     12863     12866     12864     12863     12865     12864     12863     12866
     12865     12863     12866     12863     12866     12867     12863     12866     12868
     12863     12866     12869     12867     12866     12868     12867     12866     12869
     12868     12866     12869     12866     12869     12870     12866     12869     12871
     12866     12869     12872     12870     12869     12871     12870     12869     12872
     12871     12869     12872     12823     12873     12874     12823     12873     12875
     12823     12873     12876     12874     12873     12875     12874     12873     12876
     12875     12873     12876     12873     12876     12877     12873     12876     12878
     12873     12876     12879     12877     12876     12878     12877     12876     12879
     12878     12876     12879     12876     12879     12880     12876     12879     12881
     12876     12879     12882     12880     12879     12881     12880     12879     12882
     12881     12879     12882     12879     12882     12883     12879     12882     12884
     12879     12882     12885     12883     12882     12884     12883     12882     12885
     12884     12882     12885     12882     12885     12886     12882     12885     12887
     12882     12885     12888     12886     12885     12887     12886     12885     12888
     12887     12885     12888     12885     12888     12889     12885     12888     12890
     12885     12888     12891     12889     12888     12890     12889     12888     12891
     12890     12888     12891     12888     12891     12892     12888     12891     12893
     12888     12891     12894     12892     12891     12893     12892     12891     12894
     12893     12891     12894     12891     12894     12895     12891     12894     12896
     12891     12894     12897     12895     12894     12896     12895     12894     12897
     12896     12894     12897     12894     12897     12898     12894     12897     12899
     12894     12897     12900     12898     12897     12899     12898     12897     12900
     12899     12897     12900     12897     12900     12901     12897     12900     12902
     12897     12900     12903     12901     12900     12902     12901     12900     12903
     12902     12900     12903     12900     12903     12904     12900     12903     12905
     12900     12903     12906     12904     12903     12905     12904     12903     12906
     12905     12903     12906     12903     12906     12907     12903     12906     12908
     12903     12906     12909     12907     12906     12908     12907     12906     12909
     12908     12906     12909     12906     12909     12910     12906     12909     12911
     12906     12909     12912     12910     12909     12911     12910     12909     12912
     12911     12909     12912     12909     12912     12913     12909     12912     12914
     12909     12912     12915     12913     12912     12914     12913     12912     12915
     12914     12912     12915      7097      7096      7098      7097      7096      7099
      7097      7096      7100      7098      7096      7099      7098      7096      7100
      7099      7096      7100      7096      7100      7101      7096      7100      7102
      7096      7100      7103      7101      7100      7102      7101      7100      7103
      7102      7100      7103      7100      7103      7104      7100      7103      7105
      7100      7103      7110      7104      7103      7105      7104      7103      7110
      7105      7103      7110      7107      7106      7108      7107      7106      7109
      7107      7106      7110      7108      7106      7109      7108      7106      7110
      7109      7106      7110      7106      7109      7111      7103      7110      7106
      7109      7111      7112      7109      7111      7113      7109      7111      7114
      7112      7111      7113      7112      7111      7114      7113      7111      7114
      7111      7114      7115      7111      7114      7116      7111      7114      7122
      7115      7114      7116      7115      7114      7122      7116      7114      7122
      7114      7116      7117      7116      7117      7118      7116      7117      7119
      7118      7117      7119      7117      7119      7120      7117      7119      7121
      7117      7119      7131      7120      7119      7121      7120      7119      7131
      7121      7119      7131      7114      7122      7123      7114      7122      7124
      7114      7122      7125      7123      7122      7124      7123      7122      7125
      7124      7122      7125      7122      7125      7126      7125      7126      7127
      7125      7126      7128      7127      7126      7128      7126      7128      7129
      7126      7128      7130      7126      7128      7178      7129      7128      7130
      7129      7128      7178      7130      7128      7178      7119      7131      7132
      7119      7131      7133      7119      7131      7134      7132      7131      7133
      7132      7131      7134      7133      7131      7134      7131      7134      7135
      7131      7134      7136      7131      7134      7137      7135      7134      7136
      7135      7134      7137      7136      7134      7137      7134      7137      7138
      7134      7137      7139      7134      7137      7140      7138      7137      7139
      7138      7137      7140      7139      7137      7140      7137      7140      7141
      7137      7140      7142      7137      7140      7143      7141      7140      7142
      7141      7140      7143      7142      7140      7143      7140      7143      7144
      7140      7143      7145      7140      7143      7146      7144      7143      7145
      7144      7143      7146      7145      7143      7146      7143      7146      7147
      7143      7146      7148      7143      7146      7149      7147      7146      7148
      7147      7146      7149      7148      7146      7149      7146      7149      7150
      7146      7149      7151      7150      7149      7151      7149      7151      7152
      7149      7151      7153      7152      7151      7153      7151      7153      7154
      7151      7153      7155      7151      7153      7156      7154      7153      7155
      7154      7153      7156      7155      7153      7156      7153      7156      7157
      7153      7156      7158      7153      7156      7159      7157      7156      7158
      7157      7156      7159      7158      7156      7159      7156      7159      7160
      7156      7159      7161      7156      7159      7162      7160      7159      7161
      7160      7159      7162      7161      7159      7162      7159      7162      7163
      7159      7162      7164      7159      7162      7165      7163      7162      7164
      7163      7162      7165      7164      7162      7165      7162      7165      7166
      7162      7165      7167      7162      7165      7168      7166      7165      7167
      7166      7165      7168      7167      7165      7168      7165      7168      7169
      7165      7168      7170      7165      7168      7171      7169      7168      7170
      7169      7168      7171      7170      7168      7171      7168      7171      7172
      7168      7171      7173      7168      7171      7174      7172      7171      7173
      7172      7171      7174      7173      7171      7174      7171      7174      7175
      7171      7174      7176      7171      7174      7177      7175      7174      7176
      7175      7174      7177      7176      7174      7177      7128      7178      7179
      7128      7178      7180      7128      7178      7181      7179      7178      7180
      7179      7178      7181      7180      7178      7181      7178      7181      7182
      7178      7181      7183      7178      7181      7184      7182      7181      7183
      7182      7181      7184      7183      7181      7184      7181      7184      7185
      7181      7184      7186      7181      7184      7187      7185      7184      7186
      7185      7184      7187      7186      7184      7187      7184      7187      7188
      7184      7187      7189      7184      7187      7190      7188      7187      7189
      7188      7187      7190      7189      7187      7190      7187      7190      7191
      7187      7190      7192      7187      7190      7193      7191      7190      7192
      7191      7190      7193      7192      7190      7193      7190      7193      7194
      7190      7193      7195      7190      7193      7196      7194      7193      7195
      7194      7193      7196      7195      7193      7196      7193      7196      7197
      7193      7196      7198      7193      7196      7199      7197      7196      7198
      7197      7196      7199      7198      7196      7199      7196      7199      7200
      7196      7199      7201      7196      7199      7202      7200      7199      7201
      7200      7199      7202      7201      7199      7202      7199      7202      7203
      7199      7202      7204      7199      7202      7205      7203      7202      7204
      7203      7202      7205      7204      7202      7205      7202      7205      7206
      7202      7205      7207      7202      7205      7208      7206      7205      7207
      7206      7205      7208      7207      7205      7208      7205      7208      7209
      7205      7208      7210      7205      7208      7211      7209      7208      7210
      7209      7208      7211      7210      7208      7211      7208      7211      7212
      7208      7211      7213      7208      7211      7214      7212      7211      7213
      7212      7211      7214      7213      7211      7214      7211      7214      7215
      7211      7214      7216      7211      7214      7217      7215      7214      7216
      7215      7214      7217      7216      7214      7217      7214      7217      7218
      7214      7217      7219      7214      7217      7220      7218      7217      7219
      7218      7217      7220      7219      7217      7220      7222      7221      7223
      7222      7221      7224      7222      7221      7225      7223      7221      7224
      7223      7221      7225      7224      7221      7225      7221      7225      7226
      7221      7225      7227      7221      7225      7228      7226      7225      7227
      7226      7225      7228      7227      7225      7228      7225      7228      7229
      7225      7228      7230      7225      7228      7235      7229      7228      7230
      7229      7228      7235      7230      7228      7235      7232      7231      7233
      7232      7231      7234      7232      7231      7235      7233      7231      7234
      7233      7231      7235      7234      7231      7235      7231      7234      7236
      7228      7235      7231      7234      7236      7237      7234      7236      7238
      7234      7236      7239      7237      7236      7238      7237      7236      7239
      7238      7236      7239      7236      7239      7240      7236      7239      7241
      7236      7239      7247      7240      7239      7241      7240      7239      7247
      7241      7239      7247      7239      7241      7242      7241      7242      7243
      7241      7242      7244      7243      7242      7244      7242      7244      7245
      7242      7244      7246      7242      7244      7256      7245      7244      7246
      7245      7244      7256      7246      7244      7256      7239      7247      7248
      7239      7247      7249      7239      7247      7250      7248      7247      7249
      7248      7247      7250      7249      7247      7250      7247      7250      7251
      7250      7251      7252      7250      7251      7253      7252      7251      7253
      7251      7253      7254      7251      7253      7255      7251      7253      7303
      7254      7253      7255      7254      7253      7303      7255      7253      7303
      7244      7256      7257      7244      7256      7258      7244      7256      7259
      7257      7256      7258      7257      7256      7259      7258      7256      7259
      7256      7259      7260      7256      7259      7261      7256      7259      7262
      7260      7259      7261      7260      7259      7262      7261      7259      7262
      7259      7262      7263      7259      7262      7264      7259      7262      7265
      7263      7262      7264      7263      7262      7265      7264      7262      7265
      7262      7265      7266      7262      7265      7267      7262      7265      7268
      7266      7265      7267      7266      7265      7268      7267      7265      7268
      7265      7268      7269      7265      7268      7270      7265      7268      7271
      7269      7268      7270      7269      7268      7271      7270      7268      7271
      7268      7271      7272      7268      7271      7273      7268      7271      7274
      7272      7271      7273      7272      7271      7274      7273      7271      7274
      7271      7274      7275      7271      7274      7276      7275      7274      7276
      7274      7276      7277      7274      7276      7278      7277      7276      7278
      7276      7278      7279      7276      7278      7280      7276      7278      7281
      7279      7278      7280      7279      7278      7281      7280      7278      7281
      7278      7281      7282      7278      7281      7283      7278      7281      7284
      7282      7281      7283      7282      7281      7284      7283      7281      7284
      7281      7284      7285      7281      7284      7286      7281      7284      7287
      7285      7284      7286      7285      7284      7287      7286      7284      7287
      7284      7287      7288      7284      7287      7289      7284      7287      7290
      7288      7287      7289      7288      7287      7290      7289      7287      7290
      7287      7290      7291      7287      7290      7292      7287      7290      7293
      7291      7290      7292      7291      7290      7293      7292      7290      7293
      7290      7293      7294      7290      7293      7295      7290      7293      7296
      7294      7293      7295      7294      7293      7296      7295      7293      7296
      7293      7296      7297      7293      7296      7298      7293      7296      7299
      7297      7296      7298      7297      7296      7299      7298      7296      7299
      7296      7299      7300      7296      7299      7301      7296      7299      7302
      7300      7299      7301      7300      7299      7302      7301      7299      7302
      7253      7303      7304      7253      7303      7305      7253      7303      7306
      7304      7303      7305      7304      7303      7306      7305      7303      7306
      7303      7306      7307      7303      7306      7308      7303      7306      7309
      7307      7306      7308      7307      7306      7309      7308      7306      7309
      7306      7309      7310      7306      7309      7311      7306      7309      7312
      7310      7309      7311      7310      7309      7312      7311      7309      7312
      7309      7312      7313      7309      7312      7314      7309      7312      7315
      7313      7312      7314      7313      7312      7315      7314      7312      7315
      7312      7315      7316      7312      7315      7317      7312      7315      7318
      7316      7315      7317      7316      7315      7318      7317      7315      7318
      7315      7318      7319      7315      7318      7320      7315      7318      7321
      7319      7318      7320      7319      7318      7321      7320      7318      7321
      7318      7321      7322      7318      7321      7323      7318      7321      7324
      7322      7321      7323      7322      7321      7324      7323      7321      7324
      7321      7324      7325      7321      7324      7326      7321      7324      7327
      7325      7324      7326      7325      7324      7327      7326      7324      7327
      7324      7327      7328      7324      7327      7329      7324      7327      7330
      7328      7327      7329      7328      7327      7330      7329      7327      7330
      7327      7330      7331      7327      7330      7332      7327      7330      7333
      7331      7330      7332      7331      7330      7333      7332      7330      7333
      7330      7333      7334      7330      7333      7335      7330      7333      7336
      7334      7333      7335      7334      7333      7336      7335      7333      7336
      7333      7336      7337      7333      7336      7338      7333      7336      7339
      7337      7336      7338      7337      7336      7339      7338      7336      7339
      7336      7339      7340      7336      7339      7341      7336      7339      7342
      7340      7339      7341      7340      7339      7342      7341      7339      7342
      7339      7342      7343      7339      7342      7344      7339      7342      7345
      7343      7342      7344      7343      7342      7345      7344      7342      7345
     20520     20519     20523     20520     20519     20527     20520     20519     20531
     20523     20519     20527     20523     20519     20531     20527     20519     20531
     20519     20520     20521     20519     20520     20522     20519     20520     20535
     20521     20520     20522     20521     20520     20535     20522     20520     20535
     20519     20523     20524     20519     20523     20525     20519     20523     20526
     20524     20523     20525     20524     20523     20526     20525     20523     20526
     20519     20527     20528     20519     20527     20529     20519     20527     20530
     20528     20527     20529     20528     20527     20530     20529     20527     20530
     20519     20531     20532     20519     20531     20533     20519     20531     20534
     20532     20531     20533     20532     20531     20534     20533     20531     20534
     20520     20535     20536     20520     20535     20537     20520     20535     20541
     20536     20535     20537     20536     20535     20541     20537     20535     20541
     20539     20538     20540     20539     20538     20541     20539     20538     20542
     20540     20538     20541     20540     20538     20542     20541     20538     20542
     20535     20541     20538     20538     20542     20543     20542     20543     20544
     20542     20543     20545     20542     20543     20546     20544     20543     20545
     20544     20543     20546     20545     20543     20546     20543     20546     20547
     20543     20546     20548     20543     20546     20554     20547     20546     20548
     20547     20546     20554     20548     20546     20554     20546     20548     20549
     20548     20549     20550     20548     20549     20551     20550     20549     20551
     20549     20551     20552     20549     20551     20553     20549     20551     20563
     20552     20551     20553     20552     20551     20563     20553     20551     20563
     20546     20554     20555     20546     20554     20556     20546     20554     20557
     20555     20554     20556     20555     20554     20557     20556     20554     20557
     20554     20557     20558     20557     20558     20559     20557     20558     20560
     20559     20558     20560     20558     20560     20561     20558     20560     20562
     20558     20560     20610     20561     20560     20562     20561     20560     20610
     20562     20560     20610     20551     20563     20564     20551     20563     20565
     20551     20563     20566     20564     20563     20565     20564     20563     20566
     20565     20563     20566     20563     20566     20567     20563     20566     20568
     20563     20566     20569     20567     20566     20568     20567     20566     20569
     20568     20566     20569     20566     20569     20570     20566     20569     20571
     20566     20569     20572     20570     20569     20571     20570     20569     20572
     20571     20569     20572     20569     20572     20573     20569     20572     20574
     20569     20572     20575     20573     20572     20574     20573     20572     20575
     20574     20572     20575     20572     20575     20576     20572     20575     20577
     20572     20575     20578     20576     20575     20577     20576     20575     20578
     20577     20575     20578     20575     20578     20579     20575     20578     20580
     20575     20578     20581     20579     20578     20580     20579     20578     20581
     20580     20578     20581     20578     20581     20582     20578     20581     20583
     20582     20581     20583     20581     20583     20584     20581     20583     20585
     20584     20583     20585     20583     20585     20586     20583     20585     20587
     20583     20585     20588     20586     20585     20587     20586     20585     20588
     20587     20585     20588     20585     20588     20589     20585     20588     20590
     20585     20588     20591     20589     20588     20590     20589     20588     20591
     20590     20588     20591     20588     20591     20592     20588     20591     20593
     20588     20591     20594     20592     20591     20593     20592     20591     20594
     20593     20591     20594     20591     20594     20595     20591     20594     20596
     20591     20594     20597     20595     20594     20596     20595     20594     20597
     20596     20594     20597     20594     20597     20598     20594     20597     20599
     20594     20597     20600     20598     20597     20599     20598     20597     20600
     20599     20597     20600     20597     20600     20601     20597     20600     20602
     20597     20600     20603     20601     20600     20602     20601     20600     20603
     20602     20600     20603     20600     20603     20604     20600     20603     20605
     20600     20603     20606     20604     20603     20605     20604     20603     20606
     20605     20603     20606     20603     20606     20607     20603     20606     20608
     20603     20606     20609     20607     20606     20608     20607     20606     20609
     20608     20606     20609     20560     20610     20611     20560     20610     20612
     20560     20610     20613     20611     20610     20612     20611     20610     20613
     20612     20610     20613     20610     20613     20614     20610     20613     20615
     20610     20613     20616     20614     20613     20615     20614     20613     20616
     20615     20613     20616     20613     20616     20617     20613     20616     20618
     20613     20616     20619     20617     20616     20618     20617     20616     20619
     20618     20616     20619     20616     20619     20620     20616     20619     20621
     20616     20619     20622     20620     20619     20621     20620     20619     20622
     20621     20619     20622     20619     20622     20623     20619     20622     20624
     20619     20622     20625     20623     20622     20624     20623     20622     20625
     20624     20622     20625     20622     20625     20626     20622     20625     20627
     20622     20625     20628     20626     20625     20627     20626     20625     20628
     20627     20625     20628     20625     20628     20629     20625     20628     20630
     20625     20628     20631     20629     20628     20630     20629     20628     20631
     20630     20628     20631     20628     20631     20632     20628     20631     20633
     20628     20631     20634     20632     20631     20633     20632     20631     20634
     20633     20631     20634     20631     20634     20635     20631     20634     20636
     20631     20634     20637     20635     20634     20636     20635     20634     20637
     20636     20634     20637     20634     20637     20638     20634     20637     20639
     20634     20637     20640     20638     20637     20639     20638     20637     20640
     20639     20637     20640     20637     20640     20641     20637     20640     20642
     20637     20640     20643     20641     20640     20642     20641     20640     20643
     20642     20640     20643     20640     20643     20644     20640     20643     20645
     20640     20643     20646     20644     20643     20645     20644     20643     20646
     20645     20643     20646     20643     20646     20647     20643     20646     20648
     20643     20646     20649     20647     20646     20648     20647     20646     20649
     20648     20646     20649     20646     20649     20650     20646     20649     20651
     20646     20649     20652     20650     20649     20651     20650     20649     20652
     20651     20649     20652      7347      7346      7348      7347      7346      7349
      7347      7346      7350      7348      7346      7349      7348      7346      7350
      7349      7346      7350      7346      7350      7351      7346      7350      7352
      7346      7350      7353      7351      7350      7352      7351      7350      7353
      7352      7350      7353      7350      7353      7354      7350      7353      7355
      7350      7353      7360      7354      7353      7355      7354      7353      7360
      7355      7353      7360      7357      7356      7358      7357      7356      7359
      7357      7356      7360      7358      7356      7359      7358      7356      7360
      7359      7356      7360      7356      7359      7361      7353      7360      7356
      7359      7361      7362      7359      7361      7363      7359      7361      7364
      7362      7361      7363      7362      7361      7364      7363      7361      7364
      7361      7364      7365      7361      7364      7366      7361      7364      7372
      7365      7364      7366      7365      7364      7372      7366      7364      7372
      7364      7366      7367      7366      7367      7368      7366      7367      7369
      7368      7367      7369      7367      7369      7370      7367      7369      7371
      7367      7369      7381      7370      7369      7371      7370      7369      7381
      7371      7369      7381      7364      7372      7373      7364      7372      7374
      7364      7372      7375      7373      7372      7374      7373      7372      7375
      7374      7372      7375      7372      7375      7376      7375      7376      7377
      7375      7376      7378      7377      7376      7378      7376      7378      7379
      7376      7378      7380      7376      7378      7428      7379      7378      7380
      7379      7378      7428      7380      7378      7428      7369      7381      7382
      7369      7381      7383      7369      7381      7384      7382      7381      7383
      7382      7381      7384      7383      7381      7384      7381      7384      7385
      7381      7384      7386      7381      7384      7387      7385      7384      7386
      7385      7384      7387      7386      7384      7387      7384      7387      7388
      7384      7387      7389      7384      7387      7390      7388      7387      7389
      7388      7387      7390      7389      7387      7390      7387      7390      7391
      7387      7390      7392      7387      7390      7393      7391      7390      7392
      7391      7390      7393      7392      7390      7393      7390      7393      7394
      7390      7393      7395      7390      7393      7396      7394      7393      7395
      7394      7393      7396      7395      7393      7396      7393      7396      7397
      7393      7396      7398      7393      7396      7399      7397      7396      7398
      7397      7396      7399      7398      7396      7399      7396      7399      7400
      7396      7399      7401      7400      7399      7401      7399      7401      7402
      7399      7401      7403      7402      7401      7403      7401      7403      7404
      7401      7403      7405      7401      7403      7406      7404      7403      7405
      7404      7403      7406      7405      7403      7406      7403      7406      7407
      7403      7406      7408      7403      7406      7409      7407      7406      7408
      7407      7406      7409      7408      7406      7409      7406      7409      7410
      7406      7409      7411      7406      7409      7412      7410      7409      7411
      7410      7409      7412      7411      7409      7412      7409      7412      7413
      7409      7412      7414      7409      7412      7415      7413      7412      7414
      7413      7412      7415      7414      7412      7415      7412      7415      7416
      7412      7415      7417      7412      7415      7418      7416      7415      7417
      7416      7415      7418      7417      7415      7418      7415      7418      7419
      7415      7418      7420      7415      7418      7421      7419      7418      7420
      7419      7418      7421      7420      7418      7421      7418      7421      7422
      7418      7421      7423      7418      7421      7424      7422      7421      7423
      7422      7421      7424      7423      7421      7424      7421      7424      7425
      7421      7424      7426      7421      7424      7427      7425      7424      7426
      7425      7424      7427      7426      7424      7427      7378      7428      7429
      7378      7428      7430      7378      7428      7431      7429      7428      7430
      7429      7428      7431      7430      7428      7431      7428      7431      7432
      7428      7431      7433      7428      7431      7434      7432      7431      7433
      7432      7431      7434      7433      7431      7434      7431      7434      7435
      7431      7434      7436      7431      7434      7437      7435      7434      7436
      7435      7434      7437      7436      7434      7437      7434      7437      7438
      7434      7437      7439      7434      7437      7440      7438      7437      7439
      7438      7437      7440      7439      7437      7440      7437      7440      7441
      7437      7440      7442      7437      7440      7443      7441      7440      7442
      7441      7440      7443      7442      7440      7443      7440      7443      7444
      7440      7443      7445      7440      7443      7446      7444      7443      7445
      7444      7443      7446      7445      7443      7446      7443      7446      7447
      7443      7446      7448      7443      7446      7449      7447      7446      7448
      7447      7446      7449      7448      7446      7449      7446      7449      7450
      7446      7449      7451      7446      7449      7452      7450      7449      7451
      7450      7449      7452      7451      7449      7452      7449      7452      7453
      7449      7452      7454      7449      7452      7455      7453      7452      7454
      7453      7452      7455      7454      7452      7455      7452      7455      7456
      7452      7455      7457      7452      7455      7458      7456      7455      7457
      7456      7455      7458      7457      7455      7458      7455      7458      7459
      7455      7458      7460      7455      7458      7461      7459      7458      7460
      7459      7458      7461      7460      7458      7461      7458      7461      7462
      7458      7461      7463      7458      7461      7464      7462      7461      7463
      7462      7461      7464      7463      7461      7464      7461      7464      7465
      7461      7464      7466      7461      7464      7467      7465      7464      7466
      7465      7464      7467      7466      7464      7467      7464      7467      7468
      7464      7467      7469      7464      7467      7470      7468      7467      7469
      7468      7467      7470      7469      7467      7470     12917     12916     12918
     12917     12916     12919     12917     12916     12920     12918     12916     12919
     12918     12916     12920     12919     12916     12920     12916     12920     12921
     12916     12920     12922     12916     12920     12925     12921     12920     12922
     12921     12920     12925     12922     12920     12925     12920     12922     12923
     12920     12922     12924     12923     12922     12924     12920     12925     12926
     12920     12925     12927     12920     12925     12931     12926     12925     12927
     12926     12925     12931     12927     12925     12931     12929     12928     12930
     12929     12928     12931     12929     12928     12932     12930     12928     12931
     12930     12928     12932     12931     12928     12932     12925     12931     12928
     12928     12932     12933     12932     12933     12934     12932     12933     12935
     12932     12933     12936     12934     12933     12935     12934     12933     12936
     12935     12933     12936     12933     12936     12937     12933     12936     12938
     12933     12936     12944     12937     12936     12938     12937     12936     12944
     12938     12936     12944     12936     12938     12939     12938     12939     12940
     12938     12939     12941     12940     12939     12941     12939     12941     12942
     12939     12941     12943     12939     12941     12953     12942     12941     12943
     12942     12941     12953     12943     12941     12953     12936     12944     12945
     12936     12944     12946     12936     12944     12947     12945     12944     12946
     12945     12944     12947     12946     12944     12947     12944     12947     12948
     12947     12948     12949     12947     12948     12950     12949     12948     12950
     12948     12950     12951     12948     12950     12952     12948     12950     13000
     12951     12950     12952     12951     12950     13000     12952     12950     13000
     12941     12953     12954     12941     12953     12955     12941     12953     12956
     12954     12953     12955     12954     12953     12956     12955     12953     12956
     12953     12956     12957     12953     12956     12958     12953     12956     12959
     12957     12956     12958     12957     12956     12959     12958     12956     12959
     12956     12959     12960     12956     12959     12961     12956     12959     12962
     12960     12959     12961     12960     12959     12962     12961     12959     12962
     12959     12962     12963     12959     12962     12964     12959     12962     12965
     12963     12962     12964     12963     12962     12965     12964     12962     12965
     12962     12965     12966     12962     12965     12967     12962     12965     12968
     12966     12965     12967     12966     12965     12968     12967     12965     12968
     12965     12968     12969     12965     12968     12970     12965     12968     12971
     12969     12968     12970     12969     12968     12971     12970     12968     12971
     12968     12971     12972     12968     12971     12973     12972     12971     12973
     12971     12973     12974     12971     12973     12975     12974     12973     12975
     12973     12975     12976     12973     12975     12977     12973     12975     12978
     12976     12975     12977     12976     12975     12978     12977     12975     12978
     12975     12978     12979     12975     12978     12980     12975     12978     12981
     12979     12978     12980     12979     12978     12981     12980     12978     12981
     12978     12981     12982     12978     12981     12983     12978     12981     12984
     12982     12981     12983     12982     12981     12984     12983     12981     12984
     12981     12984     12985     12981     12984     12986     12981     12984     12987
     12985     12984     12986     12985     12984     12987     12986     12984     12987
     12984     12987     12988     12984     12987     12989     12984     12987     12990
     12988     12987     12989     12988     12987     12990     12989     12987     12990
     12987     12990     12991     12987     12990     12992     12987     12990     12993
     12991     12990     12992     12991     12990     12993     12992     12990     12993
     12990     12993     12994     12990     12993     12995     12990     12993     12996
     12994     12993     12995     12994     12993     12996     12995     12993     12996
     12993     12996     12997     12993     12996     12998     12993     12996     12999
     12997     12996     12998     12997     12996     12999     12998     12996     12999
     12950     13000     13001     12950     13000     13002     12950     13000     13003
     13001     13000     13002     13001     13000     13003     13002     13000     13003
     13000     13003     13004     13000     13003     13005     13000     13003     13006
     13004     13003     13005     13004     13003     13006     13005     13003     13006
     13003     13006     13007     13003     13006     13008     13003     13006     13009
     13007     13006     13008     13007     13006     13009     13008     13006     13009
     13006     13009     13010     13006     13009     13011     13006     13009     13012
     13010     13009     13011     13010     13009     13012     13011     13009     13012
     13009     13012     13013     13009     13012     13014     13009     13012     13015
     13013     13012     13014     13013     13012     13015     13014     13012     13015
     13012     13015     13016     13012     13015     13017     13012     13015     13018
     13016     13015     13017     13016     13015     13018     13017     13015     13018
     13015     13018     13019     13015     13018     13020     13015     13018     13021
     13019     13018     13020     13019     13018     13021     13020     13018     13021
     13018     13021     13022     13018     13021     13023     13018     13021     13024
     13022     13021     13023     13022     13021     13024     13023     13021     13024
     13021     13024     13025     13021     13024     13026     13021     13024     13027
     13025     13024     13026     13025     13024     13027     13026     13024     13027
     13024     13027     13028     13024     13027     13029     13024     13027     13030
     13028     13027     13029     13028     13027     13030     13029     13027     13030
     13027     13030     13031     13027     13030     13032     13027     13030     13033
     13031     13030     13032     13031     13030     13033     13032     13030     13033
     13030     13033     13034     13030     13033     13035     13030     13033     13036
     13034     13033     13035     13034     13033     13036     13035     13033     13036
     13033     13036     13037     13033     13036     13038     13033     13036     13039
     13037     13036     13038     13037     13036     13039     13038     13036     13039
     13036     13039     13040     13036     13039     13041     13036     13039     13042
     13040     13039     13041     13040     13039     13042     13041     13039     13042
      7472      7471      7473      7472      7471      7474      7472      7471      7475
      7473      7471      7474      7473      7471      7475      7474      7471      7475
      7471      7475      7476      7471      7475      7477      7471      7475      7478
      7476      7475      7477      7476      7475      7478      7477      7475      7478
      7475      7478      7479      7475      7478      7480      7475      7478      7485
      7479      7478      7480      7479      7478      7485      7480      7478      7485
      7482      7481      7483      7482      7481      7484      7482      7481      7485
      7483      7481      7484      7483      7481      7485      7484      7481      7485
      7481      7484      7486      7478      7485      7481      7484      7486      7487
      7484      7486      7488      7484      7486      7489      7487      7486      7488
      7487      7486      7489      7488      7486      7489      7486      7489      7490
      7486      7489      7491      7486      7489      7497      7490      7489      7491
      7490      7489      7497      7491      7489      7497      7489      7491      7492
      7491      7492      7493      7491      7492      7494      7493      7492      7494
      7492      7494      7495      7492      7494      7496      7492      7494      7506
      7495      7494      7496      7495      7494      7506      7496      7494      7506
      7489      7497      7498      7489      7497      7499      7489      7497      7500
      7498      7497      7499      7498      7497      7500      7499      7497      7500
      7497      7500      7501      7500      7501      7502      7500      7501      7503
      7502      7501      7503      7501      7503      7504      7501      7503      7505
      7501      7503      7553      7504      7503      7505      7504      7503      7553
      7505      7503      7553      7494      7506      7507      7494      7506      7508
      7494      7506      7509      7507      7506      7508      7507      7506      7509
      7508      7506      7509      7506      7509      7510      7506      7509      7511
      7506      7509      7512      7510      7509      7511      7510      7509      7512
      7511      7509      7512      7509      7512      7513      7509      7512      7514
      7509      7512      7515      7513      7512      7514      7513      7512      7515
      7514      7512      7515      7512      7515      7516      7512      7515      7517
      7512      7515      7518      7516      7515      7517      7516      7515      7518
      7517      7515      7518      7515      7518      7519      7515      7518      7520
      7515      7518      7521      7519      7518      7520      7519      7518      7521
      7520      7518      7521      7518      7521      7522      7518      7521      7523
      7518      7521      7524      7522      7521      7523      7522      7521      7524
      7523      7521      7524      7521      7524      7525      7521      7524      7526
      7525      7524      7526      7524      7526      7527      7524      7526      7528
      7527      7526      7528      7526      7528      7529      7526      7528      7530
      7526      7528      7531      7529      7528      7530      7529      7528      7531
      7530      7528      7531      7528      7531      7532      7528      7531      7533
      7528      7531      7534      7532      7531      7533      7532      7531      7534
      7533      7531      7534      7531      7534      7535      7531      7534      7536
      7531      7534      7537      7535      7534      7536      7535      7534      7537
      7536      7534      7537      7534      7537      7538      7534      7537      7539
      7534      7537      7540      7538      7537      7539      7538      7537      7540
      7539      7537      7540      7537      7540      7541      7537      7540      7542
      7537      7540      7543      7541      7540      7542      7541      7540      7543
      7542      7540      7543      7540      7543      7544      7540      7543      7545
      7540      7543      7546      7544      7543      7545      7544      7543      7546
      7545      7543      7546      7543      7546      7547      7543      7546      7548
      7543      7546      7549      7547      7546      7548      7547      7546      7549
      7548      7546      7549      7546      7549      7550      7546      7549      7551
      7546      7549      7552      7550      7549      7551      7550      7549      7552
      7551      7549      7552      7503      7553      7554      7503      7553      7555
      7503      7553      7556      7554      7553      7555      7554      7553      7556
      7555      7553      7556      7553      7556      7557      7553      7556      7558
      7553      7556      7559      7557      7556      7558      7557      7556      7559
      7558      7556      7559      7556      7559      7560      7556      7559      7561
      7556      7559      7562      7560      7559      7561      7560      7559      7562
      7561      7559      7562      7559      7562      7563      7559      7562      7564
      7559      7562      7565      7563      7562      7564      7563      7562      7565
      7564      7562      7565      7562      7565      7566      7562      7565      7567
      7562      7565      7568      7566      7565      7567      7566      7565      7568
      7567      7565      7568      7565      7568      7569      7565      7568      7570
      7565      7568      7571      7569      7568      7570      7569      7568      7571
      7570      7568      7571      7568      7571      7572      7568      7571      7573
      7568      7571      7574      7572      7571      7573      7572      7571      7574
      7573      7571      7574      7571      7574      7575      7571      7574      7576
      7571      7574      7577      7575      7574      7576      7575      7574      7577
      7576      7574      7577      7574      7577      7578      7574      7577      7579
      7574      7577      7580      7578      7577      7579      7578      7577      7580
      7579      7577      7580      7577      7580      7581      7577      7580      7582
      7577      7580      7583      7581      7580      7582      7581      7580      7583
      7582      7580      7583      7580      7583      7584      7580      7583      7585
      7580      7583      7586      7584      7583      7585      7584      7583      7586
      7585      7583      7586      7583      7586      7587      7583      7586      7588
      7583      7586      7589      7587      7586      7588      7587      7586      7589
      7588      7586      7589      7586      7589      7590      7586      7589      7591
      7586      7589      7592      7590      7589      7591      7590      7589      7592
      7591      7589      7592      7589      7592      7593      7589      7592      7594
      7589      7592      7595      7593      7592      7594      7593      7592      7595
      7594      7592      7595     13044     13043     13045     13044     13043     13046
     13044     13043     13047     13045     13043     13046     13045     13043     13047
     13046     13043     13047     13043     13047     13048     13043     13047     13049
     13043     13047     13052     13048     13047     13049     13048     13047     13052
     13049     13047     13052     13047     13049     13050     13047     13049     13051
     13050     13049     13051     13047     13052     13053     13047     13052     13054
     13047     13052     13058     13053     13052     13054     13053     13052     13058
     13054     13052     13058     13056     13055     13057     13056     13055     13058
     13056     13055     13059     13057     13055     13058     13057     13055     13059
     13058     13055     13059     13052     13058     13055     13055     13059     13060
     13059     13060     13061     13059     13060     13062     13059     13060     13063
     13061     13060     13062     13061     13060     13063     13062     13060     13063
     13060     13063     13064     13060     13063     13065     13060     13063     13071
     13064     13063     13065     13064     13063     13071     13065     13063     13071
     13063     13065     13066     13065     13066     13067     13065     13066     13068
     13067     13066     13068     13066     13068     13069     13066     13068     13070
     13066     13068     13080     13069     13068     13070     13069     13068     13080
     13070     13068     13080     13063     13071     13072     13063     13071     13073
     13063     13071     13074     13072     13071     13073     13072     13071     13074
     13073     13071     13074     13071     13074     13075     13074     13075     13076
     13074     13075     13077     13076     13075     13077     13075     13077     13078
     13075     13077     13079     13075     13077     13127     13078     13077     13079
     13078     13077     13127     13079     13077     13127     13068     13080     13081
     13068     13080     13082     13068     13080     13083     13081     13080     13082
     13081     13080     13083     13082     13080     13083     13080     13083     13084
     13080     13083     13085     13080     13083     13086     13084     13083     13085
     13084     13083     13086     13085     13083     13086     13083     13086     13087
     13083     13086     13088     13083     13086     13089     13087     13086     13088
     13087     13086     13089     13088     13086     13089     13086     13089     13090
     13086     13089     13091     13086     13089     13092     13090     13089     13091
     13090     13089     13092     13091     13089     13092     13089     13092     13093
     13089     13092     13094     13089     13092     13095     13093     13092     13094
     13093     13092     13095     13094     13092     13095     13092     13095     13096
     13092     13095     13097     13092     13095     13098     13096     13095     13097
     13096     13095     13098     13097     13095     13098     13095     13098     13099
     13095     13098     13100     13099     13098     13100     13098     13100     13101
     13098     13100     13102     13101     13100     13102     13100     13102     13103
     13100     13102     13104     13100     13102     13105     13103     13102     13104
     13103     13102     13105     13104     13102     13105     13102     13105     13106
     13102     13105     13107     13102     13105     13108     13106     13105     13107
     13106     13105     13108     13107     13105     13108     13105     13108     13109
     13105     13108     13110     13105     13108     13111     13109     13108     13110
     13109     13108     13111     13110     13108     13111     13108     13111     13112
     13108     13111     13113     13108     13111     13114     13112     13111     13113
     13112     13111     13114     13113     13111     13114     13111     13114     13115
     13111     13114     13116     13111     13114     13117     13115     13114     13116
     13115     13114     13117     13116     13114     13117     13114     13117     13118
     13114     13117     13119     13114     13117     13120     13118     13117     13119
     13118     13117     13120     13119     13117     13120     13117     13120     13121
     13117     13120     13122     13117     13120     13123     13121     13120     13122
     13121     13120     13123     13122     13120     13123     13120     13123     13124
     13120     13123     13125     13120     13123     13126     13124     13123     13125
     13124     13123     13126     13125     13123     13126     13077     13127     13128
     13077     13127     13129     13077     13127     13130     13128     13127     13129
     13128     13127     13130     13129     13127     13130     13127     13130     13131
     13127     13130     13132     13127     13130     13133     13131     13130     13132
     13131     13130     13133     13132     13130     13133     13130     13133     13134
     13130     13133     13135     13130     13133     13136     13134     13133     13135
     13134     13133     13136     13135     13133     13136     13133     13136     13137
     13133     13136     13138     13133     13136     13139     13137     13136     13138
     13137     13136     13139     13138     13136     13139     13136     13139     13140
     13136     13139     13141     13136     13139     13142     13140     13139     13141
     13140     13139     13142     13141     13139     13142     13139     13142     13143
     13139     13142     13144     13139     13142     13145     13143     13142     13144
     13143     13142     13145     13144     13142     13145     13142     13145     13146
     13142     13145     13147     13142     13145     13148     13146     13145     13147
     13146     13145     13148     13147     13145     13148     13145     13148     13149
     13145     13148     13150     13145     13148     13151     13149     13148     13150
     13149     13148     13151     13150     13148     13151     13148     13151     13152
     13148     13151     13153     13148     13151     13154     13152     13151     13153
     13152     13151     13154     13153     13151     13154     13151     13154     13155
     13151     13154     13156     13151     13154     13157     13155     13154     13156
     13155     13154     13157     13156     13154     13157     13154     13157     13158
     13154     13157     13159     13154     13157     13160     13158     13157     13159
     13158     13157     13160     13159     13157     13160     13157     13160     13161
     13157     13160     13162     13157     13160     13163     13161     13160     13162
     13161     13160     13163     13162     13160     13163     13160     13163     13164
     13160     13163     13165     13160     13163     13166     13164     13163     13165
     13164     13163     13166     13165     13163     13166     13163     13166     13167
     13163     13166     13168     13163     13166     13169     13167     13166     13168
     13167     13166     13169     13168     13166     13169      7597      7596      7598
      7597      7596      7599      7597      7596      7600      7598      7596      7599
      7598      7596      7600      7599      7596      7600      7596      7600      7601
      7596      7600      7602      7596      7600      7603      7601      7600      7602
      7601      7600      7603      7602      7600      7603      7600      7603      7604
      7600      7603      7605      7600      7603      7610      7604      7603      7605
      7604      7603      7610      7605      7603      7610      7607      7606      7608
      7607      7606      7609      7607      7606      7610      7608      7606      7609
      7608      7606      7610      7609      7606      7610      7606      7609      7611
      7603      7610      7606      7609      7611      7612      7609      7611      7613
      7609      7611      7614      7612      7611      7613      7612      7611      7614
      7613      7611      7614      7611      7614      7615      7611      7614      7616
      7611      7614      7622      7615      7614      7616      7615      7614      7622
      7616      7614      7622      7614      7616      7617      7616      7617      7618
      7616      7617      7619      7618      7617      7619      7617      7619      7620
      7617      7619      7621      7617      7619      7631      7620      7619      7621
      7620      7619      7631      7621      7619      7631      7614      7622      7623
      7614      7622      7624      7614      7622      7625      7623      7622      7624
      7623      7622      7625      7624      7622      7625      7622      7625      7626
      7625      7626      7627      7625      7626      7628      7627      7626      7628
      7626      7628      7629      7626      7628      7630      7626      7628      7678
      7629      7628      7630      7629      7628      7678      7630      7628      7678
      7619      7631      7632      7619      7631      7633      7619      7631      7634
      7632      7631      7633      7632      7631      7634      7633      7631      7634
      7631      7634      7635      7631      7634      7636      7631      7634      7637
      7635      7634      7636      7635      7634      7637      7636      7634      7637
      7634      7637      7638      7634      7637      7639      7634      7637      7640
      7638      7637      7639      7638      7637      7640      7639      7637      7640
      7637      7640      7641      7637      7640      7642      7637      7640      7643
      7641      7640      7642      7641      7640      7643      7642      7640      7643
      7640      7643      7644      7640      7643      7645      7640      7643      7646
      7644      7643      7645      7644      7643      7646      7645      7643      7646
      7643      7646      7647      7643      7646      7648      7643      7646      7649
      7647      7646      7648      7647      7646      7649      7648      7646      7649
      7646      7649      7650      7646      7649      7651      7650      7649      7651
      7649      7651      7652      7649      7651      7653      7652      7651      7653
      7651      7653      7654      7651      7653      7655      7651      7653      7656
      7654      7653      7655      7654      7653      7656      7655      7653      7656
      7653      7656      7657      7653      7656      7658      7653      7656      7659
      7657      7656      7658      7657      7656      7659      7658      7656      7659
      7656      7659      7660      7656      7659      7661      7656      7659      7662
      7660      7659      7661      7660      7659      7662      7661      7659      7662
      7659      7662      7663      7659      7662      7664      7659      7662      7665
      7663      7662      7664      7663      7662      7665      7664      7662      7665
      7662      7665      7666      7662      7665      7667      7662      7665      7668
      7666      7665      7667      7666      7665      7668      7667      7665      7668
      7665      7668      7669      7665      7668      7670      7665      7668      7671
      7669      7668      7670      7669      7668      7671      7670      7668      7671
      7668      7671      7672      7668      7671      7673      7668      7671      7674
      7672      7671      7673      7672      7671      7674      7673      7671      7674
      7671      7674      7675      7671      7674      7676      7671      7674      7677
      7675      7674      7676      7675      7674      7677      7676      7674      7677
      7628      7678      7679      7628      7678      7680      7628      7678      7681
      7679      7678      7680      7679      7678      7681      7680      7678      7681
      7678      7681      7682      7678      7681      7683      7678      7681      7684
      7682      7681      7683      7682      7681      7684      7683      7681      7684
      7681      7684      7685      7681      7684      7686      7681      7684      7687
      7685      7684      7686      7685      7684      7687      7686      7684      7687
      7684      7687      7688      7684      7687      7689      7684      7687      7690
      7688      7687      7689      7688      7687      7690      7689      7687      7690
      7687      7690      7691      7687      7690      7692      7687      7690      7693
      7691      7690      7692      7691      7690      7693      7692      7690      7693
      7690      7693      7694      7690      7693      7695      7690      7693      7696
      7694      7693      7695      7694      7693      7696      7695      7693      7696
      7693      7696      7697      7693      7696      7698      7693      7696      7699
      7697      7696      7698      7697      7696      7699      7698      7696      7699
      7696      7699      7700      7696      7699      7701      7696      7699      7702
      7700      7699      7701      7700      7699      7702      7701      7699      7702
      7699      7702      7703      7699      7702      7704      7699      7702      7705
      7703      7702      7704      7703      7702      7705      7704      7702      7705
      7702      7705      7706      7702      7705      7707      7702      7705      7708
      7706      7705      7707      7706      7705      7708      7707      7705      7708
      7705      7708      7709      7705      7708      7710      7705      7708      7711
      7709      7708      7710      7709      7708      7711      7710      7708      7711
      7708      7711      7712      7708      7711      7713      7708      7711      7714
      7712      7711      7713      7712      7711      7714      7713      7711      7714
      7711      7714      7715      7711      7714      7716      7711      7714      7717
      7715      7714      7716      7715      7714      7717      7716      7714      7717
      7714      7717      7718      7714      7717      7719      7714      7717      7720
      7718      7717      7719      7718      7717      7720      7719      7717      7720
     20654     20653     20657     20654     20653     20661     20654     20653     20665
     20657     20653     20661     20657     20653     20665     20661     20653     20665
     20653     20654     20655     20653     20654     20656     20653     20654     20669
     20655     20654     20656     20655     20654     20669     20656     20654     20669
     20653     20657     20658     20653     20657     20659     20653     20657     20660
     20658     20657     20659     20658     20657     20660     20659     20657     20660
     20653     20661     20662     20653     20661     20663     20653     20661     20664
     20662     20661     20663     20662     20661     20664     20663     20661     20664
     20653     20665     20666     20653     20665     20667     20653     20665     20668
     20666     20665     20667     20666     20665     20668     20667     20665     20668
     20654     20669     20670     20654     20669     20671     20654     20669     20675
     20670     20669     20671     20670     20669     20675     20671     20669     20675
     20673     20672     20674     20673     20672     20675     20673     20672     20676
     20674     20672     20675     20674     20672     20676     20675     20672     20676
     20669     20675     20672     20672     20676     20677     20676     20677     20678
     20676     20677     20679     20676     20677     20680     20678     20677     20679
     20678     20677     20680     20679     20677     20680     20677     20680     20681
     20677     20680     20682     20677     20680     20688     20681     20680     20682
     20681     20680     20688     20682     20680     20688     20680     20682     20683
     20682     20683     20684     20682     20683     20685     20684     20683     20685
     20683     20685     20686     20683     20685     20687     20683     20685     20697
     20686     20685     20687     20686     20685     20697     20687     20685     20697
     20680     20688     20689     20680     20688     20690     20680     20688     20691
     20689     20688     20690     20689     20688     20691     20690     20688     20691
     20688     20691     20692     20691     20692     20693     20691     20692     20694
     20693     20692     20694     20692     20694     20695     20692     20694     20696
     20692     20694     20744     20695     20694     20696     20695     20694     20744
     20696     20694     20744     20685     20697     20698     20685     20697     20699
     20685     20697     20700     20698     20697     20699     20698     20697     20700
     20699     20697     20700     20697     20700     20701     20697     20700     20702
     20697     20700     20703     20701     20700     20702     20701     20700     20703
     20702     20700     20703     20700     20703     20704     20700     20703     20705
     20700     20703     20706     20704     20703     20705     20704     20703     20706
     20705     20703     20706     20703     20706     20707     20703     20706     20708
     20703     20706     20709     20707     20706     20708     20707     20706     20709
     20708     20706     20709     20706     20709     20710     20706     20709     20711
     20706     20709     20712     20710     20709     20711     20710     20709     20712
     20711     20709     20712     20709     20712     20713     20709     20712     20714
     20709     20712     20715     20713     20712     20714     20713     20712     20715
     20714     20712     20715     20712     20715     20716     20712     20715     20717
     20716     20715     20717     20715     20717     20718     20715     20717     20719
     20718     20717     20719     20717     20719     20720     20717     20719     20721
     20717     20719     20722     20720     20719     20721     20720     20719     20722
     20721     20719     20722     20719     20722     20723     20719     20722     20724
     20719     20722     20725     20723     20722     20724     20723     20722     20725
     20724     20722     20725     20722     20725     20726     20722     20725     20727
     20722     20725     20728     20726     20725     20727     20726     20725     20728
     20727     20725     20728     20725     20728     20729     20725     20728     20730
     20725     20728     20731     20729     20728     20730     20729     20728     20731
     20730     20728     20731     20728     20731     20732     20728     20731     20733
     20728     20731     20734     20732     20731     20733     20732     20731     20734
     20733     20731     20734     20731     20734     20735     20731     20734     20736
     20731     20734     20737     20735     20734     20736     20735     20734     20737
     20736     20734     20737     20734     20737     20738     20734     20737     20739
     20734     20737     20740     20738     20737     20739     20738     20737     20740
     20739     20737     20740     20737     20740     20741     20737     20740     20742
     20737     20740     20743     20741     20740     20742     20741     20740     20743
     20742     20740     20743     20694     20744     20745     20694     20744     20746
     20694     20744     20747     20745     20744     20746     20745     20744     20747
     20746     20744     20747     20744     20747     20748     20744     20747     20749
     20744     20747     20750     20748     20747     20749     20748     20747     20750
     20749     20747     20750     20747     20750     20751     20747     20750     20752
     20747     20750     20753     20751     20750     20752     20751     20750     20753
     20752     20750     20753     20750     20753     20754     20750     20753     20755
     20750     20753     20756     20754     20753     20755     20754     20753     20756
     20755     20753     20756     20753     20756     20757     20753     20756     20758
     20753     20756     20759     20757     20756     20758     20757     20756     20759
     20758     20756     20759     20756     20759     20760     20756     20759     20761
     20756     20759     20762     20760     20759     20761     20760     20759     20762
     20761     20759     20762     20759     20762     20763     20759     20762     20764
     20759     20762     20765     20763     20762     20764     20763     20762     20765
     20764     20762     20765     20762     20765     20766     20762     20765     20767
     20762     20765     20768     20766     20765     20767     20766     20765     20768
     20767     20765     20768     20765     20768     20769     20765     20768     20770
     20765     20768     20771     20769     20768     20770     20769     20768     20771
     20770     20768     20771     20768     20771     20772     20768     20771     20773
     20768     20771     20774     20772     20771     20773     20772     20771     20774
     20773     20771     20774     20771     20774     20775     20771     20774     20776
     20771     20774     20777     20775     20774     20776     20775     20774     20777
     20776     20774     20777     20774     20777     20778     20774     20777     20779
     20774     20777     20780     20778     20777     20779     20778     20777     20780
     20779     20777     20780     20777     20780     20781     20777     20780     20782
     20777     20780     20783     20781     20780     20782     20781     20780     20783
     20782     20780     20783     20780     20783     20784     20780     20783     20785
     20780     20783     20786     20784     20783     20785     20784     20783     20786
     20785     20783     20786     20788     20787     20791     20788     20787     20795
     20788     20787     20799     20791     20787     20795     20791     20787     20799
     20795     20787     20799     20787     20788     20789     20787     20788     20790
     20787     20788     20803     20789     20788     20790     20789     20788     20803
     20790     20788     20803     20787     20791     20792     20787     20791     20793
     20787     20791     20794     20792     20791     20793     20792     20791     20794
     20793     20791     20794     20787     20795     20796     20787     20795     20797
     20787     20795     20798     20796     20795     20797     20796     20795     20798
     20797     20795     20798     20787     20799     20800     20787     20799     20801
     20787     20799     20802     20800     20799     20801     20800     20799     20802
     20801     20799     20802     20788     20803     20804     20788     20803     20805
     20788     20803     20809     20804     20803     20805     20804     20803     20809
     20805     20803     20809     20807     20806     20808     20807     20806     20809
     20807     20806     20810     20808     20806     20809     20808     20806     20810
     20809     20806     20810     20803     20809     20806     20806     20810     20811
     20810     20811     20812     20810     20811     20813     20810     20811     20814
     20812     20811     20813     20812     20811     20814     20813     20811     20814
     20811     20814     20815     20811     20814     20816     20811     20814     20822
     20815     20814     20816     20815     20814     20822     20816     20814     20822
     20814     20816     20817     20816     20817     20818     20816     20817     20819
     20818     20817     20819     20817     20819     20820     20817     20819     20821
     20817     20819     20831     20820     20819     20821     20820     20819     20831
     20821     20819     20831     20814     20822     20823     20814     20822     20824
     20814     20822     20825     20823     20822     20824     20823     20822     20825
     20824     20822     20825     20822     20825     20826     20825     20826     20827
     20825     20826     20828     20827     20826     20828     20826     20828     20829
     20826     20828     20830     20826     20828     20878     20829     20828     20830
     20829     20828     20878     20830     20828     20878     20819     20831     20832
     20819     20831     20833     20819     20831     20834     20832     20831     20833
     20832     20831     20834     20833     20831     20834     20831     20834     20835
     20831     20834     20836     20831     20834     20837     20835     20834     20836
     20835     20834     20837     20836     20834     20837     20834     20837     20838
     20834     20837     20839     20834     20837     20840     20838     20837     20839
     20838     20837     20840     20839     20837     20840     20837     20840     20841
     20837     20840     20842     20837     20840     20843     20841     20840     20842
     20841     20840     20843     20842     20840     20843     20840     20843     20844
     20840     20843     20845     20840     20843     20846     20844     20843     20845
     20844     20843     20846     20845     20843     20846     20843     20846     20847
     20843     20846     20848     20843     20846     20849     20847     20846     20848
     20847     20846     20849     20848     20846     20849     20846     20849     20850
     20846     20849     20851     20850     20849     20851     20849     20851     20852
     20849     20851     20853     20852     20851     20853     20851     20853     20854
     20851     20853     20855     20851     20853     20856     20854     20853     20855
     20854     20853     20856     20855     20853     20856     20853     20856     20857
     20853     20856     20858     20853     20856     20859     20857     20856     20858
     20857     20856     20859     20858     20856     20859     20856     20859     20860
     20856     20859     20861     20856     20859     20862     20860     20859     20861
     20860     20859     20862     20861     20859     20862     20859     20862     20863
     20859     20862     20864     20859     20862     20865     20863     20862     20864
     20863     20862     20865     20864     20862     20865     20862     20865     20866
     20862     20865     20867     20862     20865     20868     20866     20865     20867
     20866     20865     20868     20867     20865     20868     20865     20868     20869
     20865     20868     20870     20865     20868     20871     20869     20868     20870
     20869     20868     20871     20870     20868     20871     20868     20871     20872
     20868     20871     20873     20868     20871     20874     20872     20871     20873
     20872     20871     20874     20873     20871     20874     20871     20874     20875
     20871     20874     20876     20871     20874     20877     20875     20874     20876
     20875     20874     20877     20876     20874     20877     20828     20878     20879
     20828     20878     20880     20828     20878     20881     20879     20878     20880
     20879     20878     20881     20880     20878     20881     20878     20881     20882
     20878     20881     20883     20878     20881     20884     20882     20881     20883
     20882     20881     20884     20883     20881     20884     20881     20884     20885
     20881     20884     20886     20881     20884     20887     20885     20884     20886
     20885     20884     20887     20886     20884     20887     20884     20887     20888
     20884     20887     20889     20884     20887     20890     20888     20887     20889
     20888     20887     20890     20889     20887     20890     20887     20890     20891
     20887     20890     20892     20887     20890     20893     20891     20890     20892
     20891     20890     20893     20892     20890     20893     20890     20893     20894
     20890     20893     20895     20890     20893     20896     20894     20893     20895
     20894     20893     20896     20895     20893     20896     20893     20896     20897
     20893     20896     20898     20893     20896     20899     20897     20896     20898
     20897     20896     20899     20898     20896     20899     20896     20899     20900
     20896     20899     20901     20896     20899     20902     20900     20899     20901
     20900     20899     20902     20901     20899     20902     20899     20902     20903
     20899     20902     20904     20899     20902     20905     20903     20902     20904
     20903     20902     20905     20904     20902     20905     20902     20905     20906
     20902     20905     20907     20902     20905     20908     20906     20905     20907
     20906     20905     20908     20907     20905     20908     20905     20908     20909
     20905     20908     20910     20905     20908     20911     20909     20908     20910
     20909     20908     20911     20910     20908     20911     20908     20911     20912
     20908     20911     20913     20908     20911     20914     20912     20911     20913
     20912     20911     20914     20913     20911     20914     20911     20914     20915
     20911     20914     20916     20911     20914     20917     20915     20914     20916
     20915     20914     20917     20916     20914     20917     20914     20917     20918
     20914     20917     20919     20914     20917     20920     20918     20917     20919
     20918     20917     20920     20919     20917     20920      7722      7721      7723
      7722      7721      7724      7722      7721      7725      7723      7721      7724
      7723      7721      7725      7724      7721      7725      7721      7725      7726
      7721      7725      7727      7721      7725      7728      7726      7725      7727
      7726      7725      7728      7727      7725      7728      7725      7728      7729
      7725      7728      7730      7725      7728      7735      7729      7728      7730
      7729      7728      7735      7730      7728      7735      7732      7731      7733
      7732      7731      7734      7732      7731      7735      7733      7731      7734
      7733      7731      7735      7734      7731      7735      7731      7734      7736
      7728      7735      7731      7734      7736      7737      7734      7736      7738
      7734      7736      7739      7737      7736      7738      7737      7736      7739
      7738      7736      7739      7736      7739      7740      7736      7739      7741
      7736      7739      7747      7740      7739      7741      7740      7739      7747
      7741      7739      7747      7739      7741      7742      7741      7742      7743
      7741      7742      7744      7743      7742      7744      7742      7744      7745
      7742      7744      7746      7742      7744      7756      7745      7744      7746
      7745      7744      7756      7746      7744      7756      7739      7747      7748
      7739      7747      7749      7739      7747      7750      7748      7747      7749
      7748      7747      7750      7749      7747      7750      7747      7750      7751
      7750      7751      7752      7750      7751      7753      7752      7751      7753
      7751      7753      7754      7751      7753      7755      7751      7753      7803
      7754      7753      7755      7754      7753      7803      7755      7753      7803
      7744      7756      7757      7744      7756      7758      7744      7756      7759
      7757      7756      7758      7757      7756      7759      7758      7756      7759
      7756      7759      7760      7756      7759      7761      7756      7759      7762
      7760      7759      7761      7760      7759      7762      7761      7759      7762
      7759      7762      7763      7759      7762      7764      7759      7762      7765
      7763      7762      7764      7763      7762      7765      7764      7762      7765
      7762      7765      7766      7762      7765      7767      7762      7765      7768
      7766      7765      7767      7766      7765      7768      7767      7765      7768
      7765      7768      7769      7765      7768      7770      7765      7768      7771
      7769      7768      7770      7769      7768      7771      7770      7768      7771
      7768      7771      7772      7768      7771      7773      7768      7771      7774
      7772      7771      7773      7772      7771      7774      7773      7771      7774
      7771      7774      7775      7771      7774      7776      7775      7774      7776
      7774      7776      7777      7774      7776      7778      7777      7776      7778
      7776      7778      7779      7776      7778      7780      7776      7778      7781
      7779      7778      7780      7779      7778      7781      7780      7778      7781
      7778      7781      7782      7778      7781      7783      7778      7781      7784
      7782      7781      7783      7782      7781      7784      7783      7781      7784
      7781      7784      7785      7781      7784      7786      7781      7784      7787
      7785      7784      7786      7785      7784      7787      7786      7784      7787
      7784      7787      7788      7784      7787      7789      7784      7787      7790
      7788      7787      7789      7788      7787      7790      7789      7787      7790
      7787      7790      7791      7787      7790      7792      7787      7790      7793
      7791      7790      7792      7791      7790      7793      7792      7790      7793
      7790      7793      7794      7790      7793      7795      7790      7793      7796
      7794      7793      7795      7794      7793      7796      7795      7793      7796
      7793      7796      7797      7793      7796      7798      7793      7796      7799
      7797      7796      7798      7797      7796      7799      7798      7796      7799
      7796      7799      7800      7796      7799      7801      7796      7799      7802
      7800      7799      7801      7800      7799      7802      7801      7799      7802
      7753      7803      7804      7753      7803      7805      7753      7803      7806
      7804      7803      7805      7804      7803      7806      7805      7803      7806
      7803      7806      7807      7803      7806      7808      7803      7806      7809
      7807      7806      7808      7807      7806      7809      7808      7806      7809
      7806      7809      7810      7806      7809      7811      7806      7809      7812
      7810      7809      7811      7810      7809      7812      7811      7809      7812
      7809      7812      7813      7809      7812      7814      7809      7812      7815
      7813      7812      7814      7813      7812      7815      7814      7812      7815
      7812      7815      7816      7812      7815      7817      7812      7815      7818
      7816      7815      7817      7816      7815      7818      7817      7815      7818
      7815      7818      7819      7815      7818      7820      7815      7818      7821
      7819      7818      7820      7819      7818      7821      7820      7818      7821
      7818      7821      7822      7818      7821      7823      7818      7821      7824
      7822      7821      7823      7822      7821      7824      7823      7821      7824
      7821      7824      7825      7821      7824      7826      7821      7824      7827
      7825      7824      7826      7825      7824      7827      7826      7824      7827
      7824      7827      7828      7824      7827      7829      7824      7827      7830
      7828      7827      7829      7828      7827      7830      7829      7827      7830
      7827      7830      7831      7827      7830      7832      7827      7830      7833
      7831      7830      7832      7831      7830      7833      7832      7830      7833
      7830      7833      7834      7830      7833      7835      7830      7833      7836
      7834      7833      7835      7834      7833      7836      7835      7833      7836
      7833      7836      7837      7833      7836      7838      7833      7836      7839
      7837      7836      7838      7837      7836      7839      7838      7836      7839
      7836      7839      7840      7836      7839      7841      7836      7839      7842
      7840      7839      7841      7840      7839      7842      7841      7839      7842
      7839      7842      7843      7839      7842      7844      7839      7842      7845
      7843      7842      7844      7843      7842      7845      7844      7842      7845
     20922     20921     20925     20922     20921     20929     20922     20921     20933
     20925     20921     20929     20925     20921     20933     20929     20921     20933
     20921     20922     20923     20921     20922     20924     20921     20922     20937
     20923     20922     20924     20923     20922     20937     20924     20922     20937
     20921     20925     20926     20921     20925     20927     20921     20925     20928
     20926     20925     20927     20926     20925     20928     20927     20925     20928
     20921     20929     20930     20921     20929     20931     20921     20929     20932
     20930     20929     20931     20930     20929     20932     20931     20929     20932
     20921     20933     20934     20921     20933     20935     20921     20933     20936
     20934     20933     20935     20934     20933     20936     20935     20933     20936
     20922     20937     20938     20922     20937     20939     20922     20937     20943
     20938     20937     20939     20938     20937     20943     20939     20937     20943
     20941     20940     20942     20941     20940     20943     20941     20940     20944
     20942     20940     20943     20942     20940     20944     20943     20940     20944
     20937     20943     20940     20940     20944     20945     20944     20945     20946
     20944     20945     20947     20944     20945     20948     20946     20945     20947
     20946     20945     20948     20947     20945     20948     20945     20948     20949
     20945     20948     20950     20945     20948     20956     20949     20948     20950
     20949     20948     20956     20950     20948     20956     20948     20950     20951
     20950     20951     20952     20950     20951     20953     20952     20951     20953
     20951     20953     20954     20951     20953     20955     20951     20953     20965
     20954     20953     20955     20954     20953     20965     20955     20953     20965
     20948     20956     20957     20948     20956     20958     20948     20956     20959
     20957     20956     20958     20957     20956     20959     20958     20956     20959
     20956     20959     20960     20959     20960     20961     20959     20960     20962
     20961     20960     20962     20960     20962     20963     20960     20962     20964
     20960     20962     21012     20963     20962     20964     20963     20962     21012
     20964     20962     21012     20953     20965     20966     20953     20965     20967
     20953     20965     20968     20966     20965     20967     20966     20965     20968
     20967     20965     20968     20965     20968     20969     20965     20968     20970
     20965     20968     20971     20969     20968     20970     20969     20968     20971
     20970     20968     20971     20968     20971     20972     20968     20971     20973
     20968     20971     20974     20972     20971     20973     20972     20971     20974
     20973     20971     20974     20971     20974     20975     20971     20974     20976
     20971     20974     20977     20975     20974     20976     20975     20974     20977
     20976     20974     20977     20974     20977     20978     20974     20977     20979
     20974     20977     20980     20978     20977     20979     20978     20977     20980
     20979     20977     20980     20977     20980     20981     20977     20980     20982
     20977     20980     20983     20981     20980     20982     20981     20980     20983
     20982     20980     20983     20980     20983     20984     20980     20983     20985
     20984     20983     20985     20983     20985     20986     20983     20985     20987
     20986     20985     20987     20985     20987     20988     20985     20987     20989
     20985     20987     20990     20988     20987     20989     20988     20987     20990
     20989     20987     20990     20987     20990     20991     20987     20990     20992
     20987     20990     20993     20991     20990     20992     20991     20990     20993
     20992     20990     20993     20990     20993     20994     20990     20993     20995
     20990     20993     20996     20994     20993     20995     20994     20993     20996
     20995     20993     20996     20993     20996     20997     20993     20996     20998
     20993     20996     20999     20997     20996     20998     20997     20996     20999
     20998     20996     20999     20996     20999     21000     20996     20999     21001
     20996     20999     21002     21000     20999     21001     21000     20999     21002
     21001     20999     21002     20999     21002     21003     20999     21002     21004
     20999     21002     21005     21003     21002     21004     21003     21002     21005
     21004     21002     21005     21002     21005     21006     21002     21005     21007
     21002     21005     21008     21006     21005     21007     21006     21005     21008
     21007     21005     21008     21005     21008     21009     21005     21008     21010
     21005     21008     21011     21009     21008     21010     21009     21008     21011
     21010     21008     21011     20962     21012     21013     20962     21012     21014
     20962     21012     21015     21013     21012     21014     21013     21012     21015
     21014     21012     21015     21012     21015     21016     21012     21015     21017
     21012     21015     21018     21016     21015     21017     21016     21015     21018
     21017     21015     21018     21015     21018     21019     21015     21018     21020
     21015     21018     21021     21019     21018     21020     21019     21018     21021
     21020     21018     21021     21018     21021     21022     21018     21021     21023
     21018     21021     21024     21022     21021     21023     21022     21021     21024
     21023     21021     21024     21021     21024     21025     21021     21024     21026
     21021     21024     21027     21025     21024     21026     21025     21024     21027
     21026     21024     21027     21024     21027     21028     21024     21027     21029
     21024     21027     21030     21028     21027     21029     21028     21027     21030
     21029     21027     21030     21027     21030     21031     21027     21030     21032
     21027     21030     21033     21031     21030     21032     21031     21030     21033
     21032     21030     21033     21030     21033     21034     21030     21033     21035
     21030     21033     21036     21034     21033     21035     21034     21033     21036
     21035     21033     21036     21033     21036     21037     21033     21036     21038
     21033     21036     21039     21037     21036     21038     21037     21036     21039
     21038     21036     21039     21036     21039     21040     21036     21039     21041
     21036     21039     21042     21040     21039     21041     21040     21039     21042
     21041     21039     21042     21039     21042     21043     21039     21042     21044
     21039     21042     21045     21043     21042     21044     21043     21042     21045
     21044     21042     21045     21042     21045     21046     21042     21045     21047
     21042     21045     21048     21046     21045     21047     21046     21045     21048
     21047     21045     21048     21045     21048     21049     21045     21048     21050
     21045     21048     21051     21049     21048     21050     21049     21048     21051
     21050     21048     21051     21048     21051     21052     21048     21051     21053
     21048     21051     21054     21052     21051     21053     21052     21051     21054
     21053     21051     21054     13171     13170     13172     13171     13170     13173
     13171     13170     13174     13172     13170     13173     13172     13170     13174
     13173     13170     13174     13170     13174     13175     13170     13174     13176
     13170     13174     13179     13175     13174     13176     13175     13174     13179
     13176     13174     13179     13174     13176     13177     13174     13176     13178
     13177     13176     13178     13174     13179     13180     13174     13179     13181
     13174     13179     13185     13180     13179     13181     13180     13179     13185
     13181     13179     13185     13183     13182     13184     13183     13182     13185
     13183     13182     13186     13184     13182     13185     13184     13182     13186
     13185     13182     13186     13179     13185     13182     13182     13186     13187
     13186     13187     13188     13186     13187     13189     13186     13187     13190
     13188     13187     13189     13188     13187     13190     13189     13187     13190
     13187     13190     13191     13187     13190     13192     13187     13190     13198
     13191     13190     13192     13191     13190     13198     13192     13190     13198
     13190     13192     13193     13192     13193     13194     13192     13193     13195
     13194     13193     13195     13193     13195     13196     13193     13195     13197
     13193     13195     13207     13196     13195     13197     13196     13195     13207
     13197     13195     13207     13190     13198     13199     13190     13198     13200
     13190     13198     13201     13199     13198     13200     13199     13198     13201
     13200     13198     13201     13198     13201     13202     13201     13202     13203
     13201     13202     13204     13203     13202     13204     13202     13204     13205
     13202     13204     13206     13202     13204     13254     13205     13204     13206
     13205     13204     13254     13206     13204     13254     13195     13207     13208
     13195     13207     13209     13195     13207     13210     13208     13207     13209
     13208     13207     13210     13209     13207     13210     13207     13210     13211
     13207     13210     13212     13207     13210     13213     13211     13210     13212
     13211     13210     13213     13212     13210     13213     13210     13213     13214
     13210     13213     13215     13210     13213     13216     13214     13213     13215
     13214     13213     13216     13215     13213     13216     13213     13216     13217
     13213     13216     13218     13213     13216     13219     13217     13216     13218
     13217     13216     13219     13218     13216     13219     13216     13219     13220
     13216     13219     13221     13216     13219     13222     13220     13219     13221
     13220     13219     13222     13221     13219     13222     13219     13222     13223
     13219     13222     13224     13219     13222     13225     13223     13222     13224
     13223     13222     13225     13224     13222     13225     13222     13225     13226
     13222     13225     13227     13226     13225     13227     13225     13227     13228
     13225     13227     13229     13228     13227     13229     13227     13229     13230
     13227     13229     13231     13227     13229     13232     13230     13229     13231
     13230     13229     13232     13231     13229     13232     13229     13232     13233
     13229     13232     13234     13229     13232     13235     13233     13232     13234
     13233     13232     13235     13234     13232     13235     13232     13235     13236
     13232     13235     13237     13232     13235     13238     13236     13235     13237
     13236     13235     13238     13237     13235     13238     13235     13238     13239
     13235     13238     13240     13235     13238     13241     13239     13238     13240
     13239     13238     13241     13240     13238     13241     13238     13241     13242
     13238     13241     13243     13238     13241     13244     13242     13241     13243
     13242     13241     13244     13243     13241     13244     13241     13244     13245
     13241     13244     13246     13241     13244     13247     13245     13244     13246
     13245     13244     13247     13246     13244     13247     13244     13247     13248
     13244     13247     13249     13244     13247     13250     13248     13247     13249
     13248     13247     13250     13249     13247     13250     13247     13250     13251
     13247     13250     13252     13247     13250     13253     13251     13250     13252
     13251     13250     13253     13252     13250     13253     13204     13254     13255
     13204     13254     13256     13204     13254     13257     13255     13254     13256
     13255     13254     13257     13256     13254     13257     13254     13257     13258
     13254     13257     13259     13254     13257     13260     13258     13257     13259
     13258     13257     13260     13259     13257     13260     13257     13260     13261
     13257     13260     13262     13257     13260     13263     13261     13260     13262
     13261     13260     13263     13262     13260     13263     13260     13263     13264
     13260     13263     13265     13260     13263     13266     13264     13263     13265
     13264     13263     13266     13265     13263     13266     13263     13266     13267
     13263     13266     13268     13263     13266     13269     13267     13266     13268
     13267     13266     13269     13268     13266     13269     13266     13269     13270
     13266     13269     13271     13266     13269     13272     13270     13269     13271
     13270     13269     13272     13271     13269     13272     13269     13272     13273
     13269     13272     13274     13269     13272     13275     13273     13272     13274
     13273     13272     13275     13274     13272     13275     13272     13275     13276
     13272     13275     13277     13272     13275     13278     13276     13275     13277
     13276     13275     13278     13277     13275     13278     13275     13278     13279
     13275     13278     13280     13275     13278     13281     13279     13278     13280
     13279     13278     13281     13280     13278     13281     13278     13281     13282
     13278     13281     13283     13278     13281     13284     13282     13281     13283
     13282     13281     13284     13283     13281     13284     13281     13284     13285
     13281     13284     13286     13281     13284     13287     13285     13284     13286
     13285     13284     13287     13286     13284     13287     13284     13287     13288
     13284     13287     13289     13284     13287     13290     13288     13287     13289
     13288     13287     13290     13289     13287     13290     13287     13290     13291
     13287     13290     13292     13287     13290     13293     13291     13290     13292
     13291     13290     13293     13292     13290     13293     13290     13293     13294
     13290     13293     13295     13290     13293     13296     13294     13293     13295
     13294     13293     13296     13295     13293     13296     21056     21055     21059
     21056     21055     21063     21056     21055     21067     21059     21055     21063
     21059     21055     21067     21063     21055     21067     21055     21056     21057
     21055     21056     21058     21055     21056     21071     21057     21056     21058
     21057     21056     21071     21058     21056     21071     21055     21059     21060
     21055     21059     21061     21055     21059     21062     21060     21059     21061
     21060     21059     21062     21061     21059     21062     21055     21063     21064
     21055     21063     21065     21055     21063     21066     21064     21063     21065
     21064     21063     21066     21065     21063     21066     21055     21067     21068
     21055     21067     21069     21055     21067     21070     21068     21067     21069
     21068     21067     21070     21069     21067     21070     21056     21071     21072
     21056     21071     21073     21056     21071     21077     21072     21071     21073
     21072     21071     21077     21073     21071     21077     21075     21074     21076
     21075     21074     21077     21075     21074     21078     21076     21074     21077
     21076     21074     21078     21077     21074     21078     21071     21077     21074
     21074     21078     21079     21078     21079     21080     21078     21079     21081
     21078     21079     21082     21080     21079     21081     21080     21079     21082
     21081     21079     21082     21079     21082     21083     21079     21082     21084
     21079     21082     21090     21083     21082     21084     21083     21082     21090
     21084     21082     21090     21082     21084     21085     21084     21085     21086
     21084     21085     21087     21086     21085     21087     21085     21087     21088
     21085     21087     21089     21085     21087     21099     21088     21087     21089
     21088     21087     21099     21089     21087     21099     21082     21090     21091
     21082     21090     21092     21082     21090     21093     21091     21090     21092
     21091     21090     21093     21092     21090     21093     21090     21093     21094
     21093     21094     21095     21093     21094     21096     21095     21094     21096
     21094     21096     21097     21094     21096     21098     21094     21096     21146
     21097     21096     21098     21097     21096     21146     21098     21096     21146
     21087     21099     21100     21087     21099     21101     21087     21099     21102
     21100     21099     21101     21100     21099     21102     21101     21099     21102
     21099     21102     21103     21099     21102     21104     21099     21102     21105
     21103     21102     21104     21103     21102     21105     21104     21102     21105
     21102     21105     21106     21102     21105     21107     21102     21105     21108
     21106     21105     21107     21106     21105     21108     21107     21105     21108
     21105     21108     21109     21105     21108     21110     21105     21108     21111
     21109     21108     21110     21109     21108     21111     21110     21108     21111
     21108     21111     21112     21108     21111     21113     21108     21111     21114
     21112     21111     21113     21112     21111     21114     21113     21111     21114
     21111     21114     21115     21111     21114     21116     21111     21114     21117
     21115     21114     21116     21115     21114     21117     21116     21114     21117
     21114     21117     21118     21114     21117     21119     21118     21117     21119
     21117     21119     21120     21117     21119     21121     21120     21119     21121
     21119     21121     21122     21119     21121     21123     21119     21121     21124
     21122     21121     21123     21122     21121     21124     21123     21121     21124
     21121     21124     21125     21121     21124     21126     21121     21124     21127
     21125     21124     21126     21125     21124     21127     21126     21124     21127
     21124     21127     21128     21124     21127     21129     21124     21127     21130
     21128     21127     21129     21128     21127     21130     21129     21127     21130
     21127     21130     21131     21127     21130     21132     21127     21130     21133
     21131     21130     21132     21131     21130     21133     21132     21130     21133
     21130     21133     21134     21130     21133     21135     21130     21133     21136
     21134     21133     21135     21134     21133     21136     21135     21133     21136
     21133     21136     21137     21133     21136     21138     21133     21136     21139
     21137     21136     21138     21137     21136     21139     21138     21136     21139
     21136     21139     21140     21136     21139     21141     21136     21139     21142
     21140     21139     21141     21140     21139     21142     21141     21139     21142
     21139     21142     21143     21139     21142     21144     21139     21142     21145
     21143     21142     21144     21143     21142     21145     21144     21142     21145
     21096     21146     21147     21096     21146     21148     21096     21146     21149
     21147     21146     21148     21147     21146     21149     21148     21146     21149
     21146     21149     21150     21146     21149     21151     21146     21149     21152
     21150     21149     21151     21150     21149     21152     21151     21149     21152
     21149     21152     21153     21149     21152     21154     21149     21152     21155
     21153     21152     21154     21153     21152     21155     21154     21152     21155
     21152     21155     21156     21152     21155     21157     21152     21155     21158
     21156     21155     21157     21156     21155     21158     21157     21155     21158
     21155     21158     21159     21155     21158     21160     21155     21158     21161
     21159     21158     21160     21159     21158     21161     21160     21158     21161
     21158     21161     21162     21158     21161     21163     21158     21161     21164
     21162     21161     21163     21162     21161     21164     21163     21161     21164
     21161     21164     21165     21161     21164     21166     21161     21164     21167
     21165     21164     21166     21165     21164     21167     21166     21164     21167
     21164     21167     21168     21164     21167     21169     21164     21167     21170
     21168     21167     21169     21168     21167     21170     21169     21167     21170
     21167     21170     21171     21167     21170     21172     21167     21170     21173
     21171     21170     21172     21171     21170     21173     21172     21170     21173
     21170     21173     21174     21170     21173     21175     21170     21173     21176
     21174     21173     21175     21174     21173     21176     21175     21173     21176
     21173     21176     21177     21173     21176     21178     21173     21176     21179
     21177     21176     21178     21177     21176     21179     21178     21176     21179
     21176     21179     21180     21176     21179     21181     21176     21179     21182
     21180     21179     21181     21180     21179     21182     21181     21179     21182
     21179     21182     21183     21179     21182     21184     21179     21182     21185
     21183     21182     21184     21183     21182     21185     21184     21182     21185
     21182     21185     21186     21182     21185     21187     21182     21185     21188
     21186     21185     21187     21186     21185     21188     21187     21185     21188
      7847      7846      7848      7847      7846      7849      7847      7846      7850
      7848      7846      7849      7848      7846      7850      7849      7846      7850
      7846      7850      7851      7846      7850      7852      7846      7850      7853
      7851      7850      7852      7851      7850      7853      7852      7850      7853
      7850      7853      7854      7850      7853      7855      7850      7853      7860
      7854      7853      7855      7854      7853      7860      7855      7853      7860
      7857      7856      7858      7857      7856      7859      7857      7856      7860
      7858      7856      7859      7858      7856      7860      7859      7856      7860
      7856      7859      7861      7853      7860      7856      7859      7861      7862
      7859      7861      7863      7859      7861      7864      7862      7861      7863
      7862      7861      7864      7863      7861      7864      7861      7864      7865
      7861      7864      7866      7861      7864      7872      7865      7864      7866
      7865      7864      7872      7866      7864      7872      7864      7866      7867
      7866      7867      7868      7866      7867      7869      7868      7867      7869
      7867      7869      7870      7867      7869      7871      7867      7869      7881
      7870      7869      7871      7870      7869      7881      7871      7869      7881
      7864      7872      7873      7864      7872      7874      7864      7872      7875
      7873      7872      7874      7873      7872      7875      7874      7872      7875
      7872      7875      7876      7875      7876      7877      7875      7876      7878
      7877      7876      7878      7876      7878      7879      7876      7878      7880
      7876      7878      7928      7879      7878      7880      7879      7878      7928
      7880      7878      7928      7869      7881      7882      7869      7881      7883
      7869      7881      7884      7882      7881      7883      7882      7881      7884
      7883      7881      7884      7881      7884      7885      7881      7884      7886
      7881      7884      7887      7885      7884      7886      7885      7884      7887
      7886      7884      7887      7884      7887      7888      7884      7887      7889
      7884      7887      7890      7888      7887      7889      7888      7887      7890
      7889      7887      7890      7887      7890      7891      7887      7890      7892
      7887      7890      7893      7891      7890      7892      7891      7890      7893
      7892      7890      7893      7890      7893      7894      7890      7893      7895
      7890      7893      7896      7894      7893      7895      7894      7893      7896
      7895      7893      7896      7893      7896      7897      7893      7896      7898
      7893      7896      7899      7897      7896      7898      7897      7896      7899
      7898      7896      7899      7896      7899      7900      7896      7899      7901
      7900      7899      7901      7899      7901      7902      7899      7901      7903
      7902      7901      7903      7901      7903      7904      7901      7903      7905
      7901      7903      7906      7904      7903      7905      7904      7903      7906
      7905      7903      7906      7903      7906      7907      7903      7906      7908
      7903      7906      7909      7907      7906      7908      7907      7906      7909
      7908      7906      7909      7906      7909      7910      7906      7909      7911
      7906      7909      7912      7910      7909      7911      7910      7909      7912
      7911      7909      7912      7909      7912      7913      7909      7912      7914
      7909      7912      7915      7913      7912      7914      7913      7912      7915
      7914      7912      7915      7912      7915      7916      7912      7915      7917
      7912      7915      7918      7916      7915      7917      7916      7915      7918
      7917      7915      7918      7915      7918      7919      7915      7918      7920
      7915      7918      7921      7919      7918      7920      7919      7918      7921
      7920      7918      7921      7918      7921      7922      7918      7921      7923
      7918      7921      7924      7922      7921      7923      7922      7921      7924
      7923      7921      7924      7921      7924      7925      7921      7924      7926
      7921      7924      7927      7925      7924      7926      7925      7924      7927
      7926      7924      7927      7878      7928      7929      7878      7928      7930
      7878      7928      7931      7929      7928      7930      7929      7928      7931
      7930      7928      7931      7928      7931      7932      7928      7931      7933
      7928      7931      7934      7932      7931      7933      7932      7931      7934
      7933      7931      7934      7931      7934      7935      7931      7934      7936
      7931      7934      7937      7935      7934      7936      7935      7934      7937
      7936      7934      7937      7934      7937      7938      7934      7937      7939
      7934      7937      7940      7938      7937      7939      7938      7937      7940
      7939      7937      7940      7937      7940      7941      7937      7940      7942
      7937      7940      7943      7941      7940      7942      7941      7940      7943
      7942      7940      7943      7940      7943      7944      7940      7943      7945
      7940      7943      7946      7944      7943      7945      7944      7943      7946
      7945      7943      7946      7943      7946      7947      7943      7946      7948
      7943      7946      7949      7947      7946      7948      7947      7946      7949
      7948      7946      7949      7946      7949      7950      7946      7949      7951
      7946      7949      7952      7950      7949      7951      7950      7949      7952
      7951      7949      7952      7949      7952      7953      7949      7952      7954
      7949      7952      7955      7953      7952      7954      7953      7952      7955
      7954      7952      7955      7952      7955      7956      7952      7955      7957
      7952      7955      7958      7956      7955      7957      7956      7955      7958
      7957      7955      7958      7955      7958      7959      7955      7958      7960
      7955      7958      7961      7959      7958      7960      7959      7958      7961
      7960      7958      7961      7958      7961      7962      7958      7961      7963
      7958      7961      7964      7962      7961      7963      7962      7961      7964
      7963      7961      7964      7961      7964      7965      7961      7964      7966
      7961      7964      7967      7965      7964      7966      7965      7964      7967
      7966      7964      7967      7964      7967      7968      7964      7967      7969
      7964      7967      7970      7968      7967      7969      7968      7967      7970
      7969      7967      7970     21190     21189     21193     21190     21189     21197
     21190     21189     21201     21193     21189     21197     21193     21189     21201
     21197     21189     21201     21189     21190     21191     21189     21190     21192
     21189     21190     21205     21191     21190     21192     21191     21190     21205
     21192     21190     21205     21189     21193     21194     21189     21193     21195
     21189     21193     21196     21194     21193     21195     21194     21193     21196
     21195     21193     21196     21189     21197     21198     21189     21197     21199
     21189     21197     21200     21198     21197     21199     21198     21197     21200
     21199     21197     21200     21189     21201     21202     21189     21201     21203
     21189     21201     21204     21202     21201     21203     21202     21201     21204
     21203     21201     21204     21190     21205     21206     21190     21205     21207
     21190     21205     21211     21206     21205     21207     21206     21205     21211
     21207     21205     21211     21209     21208     21210     21209     21208     21211
     21209     21208     21212     21210     21208     21211     21210     21208     21212
     21211     21208     21212     21205     21211     21208     21208     21212     21213
     21212     21213     21214     21212     21213     21215     21212     21213     21216
     21214     21213     21215     21214     21213     21216     21215     21213     21216
     21213     21216     21217     21213     21216     21218     21213     21216     21224
     21217     21216     21218     21217     21216     21224     21218     21216     21224
     21216     21218     21219     21218     21219     21220     21218     21219     21221
     21220     21219     21221     21219     21221     21222     21219     21221     21223
     21219     21221     21233     21222     21221     21223     21222     21221     21233
     21223     21221     21233     21216     21224     21225     21216     21224     21226
     21216     21224     21227     21225     21224     21226     21225     21224     21227
     21226     21224     21227     21224     21227     21228     21227     21228     21229
     21227     21228     21230     21229     21228     21230     21228     21230     21231
     21228     21230     21232     21228     21230     21280     21231     21230     21232
     21231     21230     21280     21232     21230     21280     21221     21233     21234
     21221     21233     21235     21221     21233     21236     21234     21233     21235
     21234     21233     21236     21235     21233     21236     21233     21236     21237
     21233     21236     21238     21233     21236     21239     21237     21236     21238
     21237     21236     21239     21238     21236     21239     21236     21239     21240
     21236     21239     21241     21236     21239     21242     21240     21239     21241
     21240     21239     21242     21241     21239     21242     21239     21242     21243
     21239     21242     21244     21239     21242     21245     21243     21242     21244
     21243     21242     21245     21244     21242     21245     21242     21245     21246
     21242     21245     21247     21242     21245     21248     21246     21245     21247
     21246     21245     21248     21247     21245     21248     21245     21248     21249
     21245     21248     21250     21245     21248     21251     21249     21248     21250
     21249     21248     21251     21250     21248     21251     21248     21251     21252
     21248     21251     21253     21252     21251     21253     21251     21253     21254
     21251     21253     21255     21254     21253     21255     21253     21255     21256
     21253     21255     21257     21253     21255     21258     21256     21255     21257
     21256     21255     21258     21257     21255     21258     21255     21258     21259
     21255     21258     21260     21255     21258     21261     21259     21258     21260
     21259     21258     21261     21260     21258     21261     21258     21261     21262
     21258     21261     21263     21258     21261     21264     21262     21261     21263
     21262     21261     21264     21263     21261     21264     21261     21264     21265
     21261     21264     21266     21261     21264     21267     21265     21264     21266
     21265     21264     21267     21266     21264     21267     21264     21267     21268
     21264     21267     21269     21264     21267     21270     21268     21267     21269
     21268     21267     21270     21269     21267     21270     21267     21270     21271
     21267     21270     21272     21267     21270     21273     21271     21270     21272
     21271     21270     21273     21272     21270     21273     21270     21273     21274
     21270     21273     21275     21270     21273     21276     21274     21273     21275
     21274     21273     21276     21275     21273     21276     21273     21276     21277
     21273     21276     21278     21273     21276     21279     21277     21276     21278
     21277     21276     21279     21278     21276     21279     21230     21280     21281
     21230     21280     21282     21230     21280     21283     21281     21280     21282
     21281     21280     21283     21282     21280     21283     21280     21283     21284
     21280     21283     21285     21280     21283     21286     21284     21283     21285
     21284     21283     21286     21285     21283     21286     21283     21286     21287
     21283     21286     21288     21283     21286     21289     21287     21286     21288
     21287     21286     21289     21288     21286     21289     21286     21289     21290
     21286     21289     21291     21286     21289     21292     21290     21289     21291
     21290     21289     21292     21291     21289     21292     21289     21292     21293
     21289     21292     21294     21289     21292     21295     21293     21292     21294
     21293     21292     21295     21294     21292     21295     21292     21295     21296
     21292     21295     21297     21292     21295     21298     21296     21295     21297
     21296     21295     21298     21297     21295     21298     21295     21298     21299
     21295     21298     21300     21295     21298     21301     21299     21298     21300
     21299     21298     21301     21300     21298     21301     21298     21301     21302
     21298     21301     21303     21298     21301     21304     21302     21301     21303
     21302     21301     21304     21303     21301     21304     21301     21304     21305
     21301     21304     21306     21301     21304     21307     21305     21304     21306
     21305     21304     21307     21306     21304     21307     21304     21307     21308
     21304     21307     21309     21304     21307     21310     21308     21307     21309
     21308     21307     21310     21309     21307     21310     21307     21310     21311
     21307     21310     21312     21307     21310     21313     21311     21310     21312
     21311     21310     21313     21312     21310     21313     21310     21313     21314
     21310     21313     21315     21310     21313     21316     21314     21313     21315
     21314     21313     21316     21315     21313     21316     21313     21316     21317
     21313     21316     21318     21313     21316     21319     21317     21316     21318
     21317     21316     21319     21318     21316     21319     21316     21319     21320
     21316     21319     21321     21316     21319     21322     21320     21319     21321
     21320     21319     21322     21321     21319     21322      7972      7971      7973
      7972      7971      7974      7972      7971      7975      7973      7971      7974
      7973      7971      7975      7974      7971      7975      7971      7975      7976
      7971      7975      7977      7971      7975      7978      7976      7975      7977
      7976      7975      7978      7977      7975      7978      7975      7978      7979
      7975      7978      7980      7975      7978      7985      7979      7978      7980
      7979      7978      7985      7980      7978      7985      7982      7981      7983
      7982      7981      7984      7982      7981      7985      7983      7981      7984
      7983      7981      7985      7984      7981      7985      7981      7984      7986
      7978      7985      7981      7984      7986      7987      7984      7986      7988
      7984      7986      7989      7987      7986      7988      7987      7986      7989
      7988      7986      7989      7986      7989      7990      7986      7989      7991
      7986      7989      7997      7990      7989      7991      7990      7989      7997
      7991      7989      7997      7989      7991      7992      7991      7992      7993
      7991      7992      7994      7993      7992      7994      7992      7994      7995
      7992      7994      7996      7992      7994      8006      7995      7994      7996
      7995      7994      8006      7996      7994      8006      7989      7997      7998
      7989      7997      7999      7989      7997      8000      7998      7997      7999
      7998      7997      8000      7999      7997      8000      7997      8000      8001
      8000      8001      8002      8000      8001      8003      8002      8001      8003
      8001      8003      8004      8001      8003      8005      8001      8003      8053
      8004      8003      8005      8004      8003      8053      8005      8003      8053
      7994      8006      8007      7994      8006      8008      7994      8006      8009
      8007      8006      8008      8007      8006      8009      8008      8006      8009
      8006      8009      8010      8006      8009      8011      8006      8009      8012
      8010      8009      8011      8010      8009      8012      8011      8009      8012
      8009      8012      8013      8009      8012      8014      8009      8012      8015
      8013      8012      8014      8013      8012      8015      8014      8012      8015
      8012      8015      8016      8012      8015      8017      8012      8015      8018
      8016      8015      8017      8016      8015      8018      8017      8015      8018
      8015      8018      8019      8015      8018      8020      8015      8018      8021
      8019      8018      8020      8019      8018      8021      8020      8018      8021
      8018      8021      8022      8018      8021      8023      8018      8021      8024
      8022      8021      8023      8022      8021      8024      8023      8021      8024
      8021      8024      8025      8021      8024      8026      8025      8024      8026
      8024      8026      8027      8024      8026      8028      8027      8026      8028
      8026      8028      8029      8026      8028      8030      8026      8028      8031
      8029      8028      8030      8029      8028      8031      8030      8028      8031
      8028      8031      8032      8028      8031      8033      8028      8031      8034
      8032      8031      8033      8032      8031      8034      8033      8031      8034
      8031      8034      8035      8031      8034      8036      8031      8034      8037
      8035      8034      8036      8035      8034      8037      8036      8034      8037
      8034      8037      8038      8034      8037      8039      8034      8037      8040
      8038      8037      8039      8038      8037      8040      8039      8037      8040
      8037      8040      8041      8037      8040      8042      8037      8040      8043
      8041      8040      8042      8041      8040      8043      8042      8040      8043
      8040      8043      8044      8040      8043      8045      8040      8043      8046
      8044      8043      8045      8044      8043      8046      8045      8043      8046
      8043      8046      8047      8043      8046      8048      8043      8046      8049
      8047      8046      8048      8047      8046      8049      8048      8046      8049
      8046      8049      8050      8046      8049      8051      8046      8049      8052
      8050      8049      8051      8050      8049      8052      8051      8049      8052
      8003      8053      8054      8003      8053      8055      8003      8053      8056
      8054      8053      8055      8054      8053      8056      8055      8053      8056
      8053      8056      8057      8053      8056      8058      8053      8056      8059
      8057      8056      8058      8057      8056      8059      8058      8056      8059
      8056      8059      8060      8056      8059      8061      8056      8059      8062
      8060      8059      8061      8060      8059      8062      8061      8059      8062
      8059      8062      8063      8059      8062      8064      8059      8062      8065
      8063      8062      8064      8063      8062      8065      8064      8062      8065
      8062      8065      8066      8062      8065      8067      8062      8065      8068
      8066      8065      8067      8066      8065      8068      8067      8065      8068
      8065      8068      8069      8065      8068      8070      8065      8068      8071
      8069      8068      8070      8069      8068      8071      8070      8068      8071
      8068      8071      8072      8068      8071      8073      8068      8071      8074
      8072      8071      8073      8072      8071      8074      8073      8071      8074
      8071      8074      8075      8071      8074      8076      8071      8074      8077
      8075      8074      8076      8075      8074      8077      8076      8074      8077
      8074      8077      8078      8074      8077      8079      8074      8077      8080
      8078      8077      8079      8078      8077      8080      8079      8077      8080
      8077      8080      8081      8077      8080      8082      8077      8080      8083
      8081      8080      8082      8081      8080      8083      8082      8080      8083
      8080      8083      8084      8080      8083      8085      8080      8083      8086
      8084      8083      8085      8084      8083      8086      8085      8083      8086
      8083      8086      8087      8083      8086      8088      8083      8086      8089
      8087      8086      8088      8087      8086      8089      8088      8086      8089
      8086      8089      8090      8086      8089      8091      8086      8089      8092
      8090      8089      8091      8090      8089      8092      8091      8089      8092
      8089      8092      8093      8089      8092      8094      8089      8092      8095
      8093      8092      8094      8093      8092      8095      8094      8092      8095
     22688     22687     22689     22688     22687     22691     22688     22687     22707
     22689     22687     22691     22689     22687     22707     22691     22687     22707
     22687     22689     22690     22687     22691     22692     22687     22691     22693
     22687     22691     22695     22692     22691     22693     22692     22691     22695
     22693     22691     22695     22691     22693     22694     22691     22695     22696
     22691     22695     22697     22691     22695     22699     22696     22695     22697
     22696     22695     22699     22697     22695     22699     22695     22697     22698
     22695     22699     22700     22695     22699     22701     22695     22699     22703
     22700     22699     22701     22700     22699     22703     22701     22699     22703
     22699     22701     22702     22699     22703     22704     22699     22703     22705
     22699     22703     22707     22704     22703     22705     22704     22703     22707
     22705     22703     22707     22703     22705     22706     22687     22707     22703
     22687     22707     22708     22687     22707     22712     22703     22707     22708
     22703     22707     22712     22708     22707     22712     22710     22709     22711
     22710     22709     22712     22710     22709     22713     22711     22709     22712
     22711     22709     22713     22712     22709     22713     22707     22712     22709
     22709     22713     22714     22713     22714     22715     22713     22714     22716
     22713     22714     22717     22715     22714     22716     22715     22714     22717
     22716     22714     22717     22714     22717     22718     22714     22717     22719
     22714     22717     22725     22718     22717     22719     22718     22717     22725
     22719     22717     22725     22717     22719     22720     22719     22720     22721
     22719     22720     22722     22721     22720     22722     22720     22722     22723
     22720     22722     22724     22720     22722     22734     22723     22722     22724
     22723     22722     22734     22724     22722     22734     22717     22725     22726
     22717     22725     22727     22717     22725     22728     22726     22725     22727
     22726     22725     22728     22727     22725     22728     22725     22728     22729
     22728     22729     22730     22728     22729     22731     22730     22729     22731
     22729     22731     22732     22729     22731     22733     22729     22731     22781
     22732     22731     22733     22732     22731     22781     22733     22731     22781
     22722     22734     22735     22722     22734     22736     22722     22734     22737
     22735     22734     22736     22735     22734     22737     22736     22734     22737
     22734     22737     22738     22734     22737     22739     22734     22737     22740
     22738     22737     22739     22738     22737     22740     22739     22737     22740
     22737     22740     22741     22737     22740     22742     22737     22740     22743
     22741     22740     22742     22741     22740     22743     22742     22740     22743
     22740     22743     22744     22740     22743     22745     22740     22743     22746
     22744     22743     22745     22744     22743     22746     22745     22743     22746
     22743     22746     22747     22743     22746     22748     22743     22746     22749
     22747     22746     22748     22747     22746     22749     22748     22746     22749
     22746     22749     22750     22746     22749     22751     22746     22749     22752
     22750     22749     22751     22750     22749     22752     22751     22749     22752
     22749     22752     22753     22749     22752     22754     22753     22752     22754
     22752     22754     22755     22752     22754     22756     22755     22754     22756
     22754     22756     22757     22754     22756     22758     22754     22756     22759
     22757     22756     22758     22757     22756     22759     22758     22756     22759
     22756     22759     22760     22756     22759     22761     22756     22759     22762
     22760     22759     22761     22760     22759     22762     22761     22759     22762
     22759     22762     22763     22759     22762     22764     22759     22762     22765
     22763     22762     22764     22763     22762     22765     22764     22762     22765
     22762     22765     22766     22762     22765     22767     22762     22765     22768
     22766     22765     22767     22766     22765     22768     22767     22765     22768
     22765     22768     22769     22765     22768     22770     22765     22768     22771
     22769     22768     22770     22769     22768     22771     22770     22768     22771
     22768     22771     22772     22768     22771     22773     22768     22771     22774
     22772     22771     22773     22772     22771     22774     22773     22771     22774
     22771     22774     22775     22771     22774     22776     22771     22774     22777
     22775     22774     22776     22775     22774     22777     22776     22774     22777
     22774     22777     22778     22774     22777     22779     22774     22777     22780
     22778     22777     22779     22778     22777     22780     22779     22777     22780
     22731     22781     22782     22731     22781     22783     22731     22781     22784
     22782     22781     22783     22782     22781     22784     22783     22781     22784
     22781     22784     22785     22781     22784     22786     22781     22784     22787
     22785     22784     22786     22785     22784     22787     22786     22784     22787
     22784     22787     22788     22784     22787     22789     22784     22787     22790
     22788     22787     22789     22788     22787     22790     22789     22787     22790
     22787     22790     22791     22787     22790     22792     22787     22790     22793
     22791     22790     22792     22791     22790     22793     22792     22790     22793
     22790     22793     22794     22790     22793     22795     22790     22793     22796
     22794     22793     22795     22794     22793     22796     22795     22793     22796
     22793     22796     22797     22793     22796     22798     22793     22796     22799
     22797     22796     22798     22797     22796     22799     22798     22796     22799
     22796     22799     22800     22796     22799     22801     22796     22799     22802
     22800     22799     22801     22800     22799     22802     22801     22799     22802
     22799     22802     22803     22799     22802     22804     22799     22802     22805
     22803     22802     22804     22803     22802     22805     22804     22802     22805
     22802     22805     22806     22802     22805     22807     22802     22805     22808
     22806     22805     22807     22806     22805     22808     22807     22805     22808
     22805     22808     22809     22805     22808     22810     22805     22808     22811
     22809     22808     22810     22809     22808     22811     22810     22808     22811
     22808     22811     22812     22808     22811     22813     22808     22811     22814
     22812     22811     22813     22812     22811     22814     22813     22811     22814
     22811     22814     22815     22811     22814     22816     22811     22814     22817
     22815     22814     22816     22815     22814     22817     22816     22814     22817
     22814     22817     22818     22814     22817     22819     22814     22817     22820
     22818     22817     22819     22818     22817     22820     22819     22817     22820
     22817     22820     22821     22817     22820     22822     22817     22820     22823
     22821     22820     22822     22821     22820     22823     22822     22820     22823
      8097      8096      8098      8097      8096      8099      8097      8096      8100
      8098      8096      8099      8098      8096      8100      8099      8096      8100
      8096      8100      8101      8096      8100      8102      8096      8100      8103
      8101      8100      8102      8101      8100      8103      8102      8100      8103
      8100      8103      8104      8100      8103      8105      8100      8103      8110
      8104      8103      8105      8104      8103      8110      8105      8103      8110
      8107      8106      8108      8107      8106      8109      8107      8106      8110
      8108      8106      8109      8108      8106      8110      8109      8106      8110
      8106      8109      8111      8103      8110      8106      8109      8111      8112
      8109      8111      8113      8109      8111      8114      8112      8111      8113
      8112      8111      8114      8113      8111      8114      8111      8114      8115
      8111      8114      8116      8111      8114      8122      8115      8114      8116
      8115      8114      8122      8116      8114      8122      8114      8116      8117
      8116      8117      8118      8116      8117      8119      8118      8117      8119
      8117      8119      8120      8117      8119      8121      8117      8119      8131
      8120      8119      8121      8120      8119      8131      8121      8119      8131
      8114      8122      8123      8114      8122      8124      8114      8122      8125
      8123      8122      8124      8123      8122      8125      8124      8122      8125
      8122      8125      8126      8125      8126      8127      8125      8126      8128
      8127      8126      8128      8126      8128      8129      8126      8128      8130
      8126      8128      8178      8129      8128      8130      8129      8128      8178
      8130      8128      8178      8119      8131      8132      8119      8131      8133
      8119      8131      8134      8132      8131      8133      8132      8131      8134
      8133      8131      8134      8131      8134      8135      8131      8134      8136
      8131      8134      8137      8135      8134      8136      8135      8134      8137
      8136      8134      8137      8134      8137      8138      8134      8137      8139
      8134      8137      8140      8138      8137      8139      8138      8137      8140
      8139      8137      8140      8137      8140      8141      8137      8140      8142
      8137      8140      8143      8141      8140      8142      8141      8140      8143
      8142      8140      8143      8140      8143      8144      8140      8143      8145
      8140      8143      8146      8144      8143      8145      8144      8143      8146
      8145      8143      8146      8143      8146      8147      8143      8146      8148
      8143      8146      8149      8147      8146      8148      8147      8146      8149
      8148      8146      8149      8146      8149      8150      8146      8149      8151
      8150      8149      8151      8149      8151      8152      8149      8151      8153
      8152      8151      8153      8151      8153      8154      8151      8153      8155
      8151      8153      8156      8154      8153      8155      8154      8153      8156
      8155      8153      8156      8153      8156      8157      8153      8156      8158
      8153      8156      8159      8157      8156      8158      8157      8156      8159
      8158      8156      8159      8156      8159      8160      8156      8159      8161
      8156      8159      8162      8160      8159      8161      8160      8159      8162
      8161      8159      8162      8159      8162      8163      8159      8162      8164
      8159      8162      8165      8163      8162      8164      8163      8162      8165
      8164      8162      8165      8162      8165      8166      8162      8165      8167
      8162      8165      8168      8166      8165      8167      8166      8165      8168
      8167      8165      8168      8165      8168      8169      8165      8168      8170
      8165      8168      8171      8169      8168      8170      8169      8168      8171
      8170      8168      8171      8168      8171      8172      8168      8171      8173
      8168      8171      8174      8172      8171      8173      8172      8171      8174
      8173      8171      8174      8171      8174      8175      8171      8174      8176
      8171      8174      8177      8175      8174      8176      8175      8174      8177
      8176      8174      8177      8128      8178      8179      8128      8178      8180
      8128      8178      8181      8179      8178      8180      8179      8178      8181
      8180      8178      8181      8178      8181      8182      8178      8181      8183
      8178      8181      8184      8182      8181      8183      8182      8181      8184
      8183      8181      8184      8181      8184      8185      8181      8184      8186
      8181      8184      8187      8185      8184      8186      8185      8184      8187
      8186      8184      8187      8184      8187      8188      8184      8187      8189
      8184      8187      8190      8188      8187      8189      8188      8187      8190
      8189      8187      8190      8187      8190      8191      8187      8190      8192
      8187      8190      8193      8191      8190      8192      8191      8190      8193
      8192      8190      8193      8190      8193      8194      8190      8193      8195
      8190      8193      8196      8194      8193      8195      8194      8193      8196
      8195      8193      8196      8193      8196      8197      8193      8196      8198
      8193      8196      8199      8197      8196      8198      8197      8196      8199
      8198      8196      8199      8196      8199      8200      8196      8199      8201
      8196      8199      8202      8200      8199      8201      8200      8199      8202
      8201      8199      8202      8199      8202      8203      8199      8202      8204
      8199      8202      8205      8203      8202      8204      8203      8202      8205
      8204      8202      8205      8202      8205      8206      8202      8205      8207
      8202      8205      8208      8206      8205      8207      8206      8205      8208
      8207      8205      8208      8205      8208      8209      8205      8208      8210
      8205      8208      8211      8209      8208      8210      8209      8208      8211
      8210      8208      8211      8208      8211      8212      8208      8211      8213
      8208      8211      8214      8212      8211      8213      8212      8211      8214
      8213      8211      8214      8211      8214      8215      8211      8214      8216
      8211      8214      8217      8215      8214      8216      8215      8214      8217
      8216      8214      8217      8214      8217      8218      8214      8217      8219
      8214      8217      8220      8218      8217      8219      8218      8217      8220
      8219      8217      8220      2074      2073      2075      2074      2073      2077
      2074      2073      2119      2075      2073      2077      2075      2073      2119
      2077      2073      2119      2073      2075      2076      2073      2077      2078
      2073      2077      2079      2073      2077      2080      2078      2077      2079
      2078      2077      2080      2079      2077      2080      2077      2080      2081
      2077      2080      2111      2081      2080      2111      2080      2081      2082
      2080      2081      2083      2082      2081      2083      2081      2083      2084
      2081      2083      2085      2081      2083      2086      2084      2083      2085
      2084      2083      2086      2085      2083      2086      2083      2086      2087
      2083      2086      2088      2083      2086      2109      2087      2086      2088
      2087      2086      2109      2088      2086      2109      2086      2088      2089
      2086      2088      2090      2086      2088      2098      2089      2088      2090
      2089      2088      2098      2090      2088      2098      2088      2090      2091
      2088      2090      2092      2088      2090      2093      2091      2090      2092
      2091      2090      2093      2092      2090      2093      2090      2093      2094
      2090      2093      2095      2090      2093      2096      2094      2093      2095
      2094      2093      2096      2095      2093      2096      2093      2096      2097
      2093      2096      2098      2093      2096      2122      2097      2096      2098
      2097      2096      2122      2098      2096      2122      2088      2098      2096
      2088      2098      2099      2088      2098      2103      2096      2098      2099
      2096      2098      2103      2099      2098      2103      2098      2099      2100
      2098      2099      2101      2098      2099      2102      2100      2099      2101
      2100      2099      2102      2101      2099      2102      2098      2103      2104
      2098      2103      2105      2098      2103      2106      2104      2103      2105
      2104      2103      2106      2105      2103      2106      2103      2106      2107
      2103      2106      2108      2103      2106      2109      2107      2106      2108
      2107      2106      2109      2108      2106      2109      2086      2109      2106
      2086      2109      2110      2086      2109      2111      2106      2109      2110
      2106      2109      2111      2110      2109      2111      2080      2111      2109
      2080      2111      2112      2080      2111      2116      2109      2111      2112
      2109      2111      2116      2112      2111      2116      2111      2112      2113
      2111      2112      2114      2111      2112      2115      2113      2112      2114
      2113      2112      2115      2114      2112      2115      2111      2116      2117
      2111      2116      2118      2111      2116      2119      2117      2116      2118
      2117      2116      2119      2118      2116      2119      2073      2119      2116
      2073      2119      2120      2073      2119      2121      2116      2119      2120
      2116      2119      2121      2120      2119      2121      2096      2122      2123
      2096      2122      2124      2096      2122      2128      2123      2122      2124
      2123      2122      2128      2124      2122      2128      2122      2124      2125
      2122      2124      2126      2122      2124      2127      2125      2124      2126
      2125      2124      2127      2126      2124      2127      2122      2128      2129
      2122      2128      2130      2122      2128      2131      2129      2128      2130
      2129      2128      2131      2130      2128      2131      2128      2131      2132
      2128      2131      2133      2128      2131      2134      2132      2131      2133
      2132      2131      2134      2133      2131      2134      2131      2134      2135
      2131      2134      2136      2131      2134      2137      2135      2134      2136
      2135      2134      2137      2136      2134      2137      2134      2137      2138
      2134      2137      2139      2134      2137      2143      2138      2137      2139
      2138      2137      2143      2139      2137      2143      2137      2139      2140
      2137      2139      2141      2137      2139      2142      2140      2139      2141
      2140      2139      2142      2141      2139      2142      2137      2143      2144
      2137      2143      2145      2137      2143      2146      2144      2143      2145
      2144      2143      2146      2145      2143      2146      8222      8221      8223
      8222      8221      8224      8222      8221      8225      8223      8221      8224
      8223      8221      8225      8224      8221      8225      8221      8225      8226
      8221      8225      8227      8221      8225      8228      8226      8225      8227
      8226      8225      8228      8227      8225      8228      8225      8228      8229
      8225      8228      8230      8225      8228      8235      8229      8228      8230
      8229      8228      8235      8230      8228      8235      8232      8231      8233
      8232      8231      8234      8232      8231      8235      8233      8231      8234
      8233      8231      8235      8234      8231      8235      8231      8234      8236
      8228      8235      8231      8234      8236      8237      8234      8236      8238
      8234      8236      8239      8237      8236      8238      8237      8236      8239
      8238      8236      8239      8236      8239      8240      8236      8239      8241
      8236      8239      8247      8240      8239      8241      8240      8239      8247
      8241      8239      8247      8239      8241      8242      8241      8242      8243
      8241      8242      8244      8243      8242      8244      8242      8244      8245
      8242      8244      8246      8242      8244      8256      8245      8244      8246
      8245      8244      8256      8246      8244      8256      8239      8247      8248
      8239      8247      8249      8239      8247      8250      8248      8247      8249
      8248      8247      8250      8249      8247      8250      8247      8250      8251
      8250      8251      8252      8250      8251      8253      8252      8251      8253
      8251      8253      8254      8251      8253      8255      8251      8253      8303
      8254      8253      8255      8254      8253      8303      8255      8253      8303
      8244      8256      8257      8244      8256      8258      8244      8256      8259
      8257      8256      8258      8257      8256      8259      8258      8256      8259
      8256      8259      8260      8256      8259      8261      8256      8259      8262
      8260      8259      8261      8260      8259      8262      8261      8259      8262
      8259      8262      8263      8259      8262      8264      8259      8262      8265
      8263      8262      8264      8263      8262      8265      8264      8262      8265
      8262      8265      8266      8262      8265      8267      8262      8265      8268
      8266      8265      8267      8266      8265      8268      8267      8265      8268
      8265      8268      8269      8265      8268      8270      8265      8268      8271
      8269      8268      8270      8269      8268      8271      8270      8268      8271
      8268      8271      8272      8268      8271      8273      8268      8271      8274
      8272      8271      8273      8272      8271      8274      8273      8271      8274
      8271      8274      8275      8271      8274      8276      8275      8274      8276
      8274      8276      8277      8274      8276      8278      8277      8276      8278
      8276      8278      8279      8276      8278      8280      8276      8278      8281
      8279      8278      8280      8279      8278      8281      8280      8278      8281
      8278      8281      8282      8278      8281      8283      8278      8281      8284
      8282      8281      8283      8282      8281      8284      8283      8281      8284
      8281      8284      8285      8281      8284      8286      8281      8284      8287
      8285      8284      8286      8285      8284      8287      8286      8284      8287
      8284      8287      8288      8284      8287      8289      8284      8287      8290
      8288      8287      8289      8288      8287      8290      8289      8287      8290
      8287      8290      8291      8287      8290      8292      8287      8290      8293
      8291      8290      8292      8291      8290      8293      8292      8290      8293
      8290      8293      8294      8290      8293      8295      8290      8293      8296
      8294      8293      8295      8294      8293      8296      8295      8293      8296
      8293      8296      8297      8293      8296      8298      8293      8296      8299
      8297      8296      8298      8297      8296      8299      8298      8296      8299
      8296      8299      8300      8296      8299      8301      8296      8299      8302
      8300      8299      8301      8300      8299      8302      8301      8299      8302
      8253      8303      8304      8253      8303      8305      8253      8303      8306
      8304      8303      8305      8304      8303      8306      8305      8303      8306
      8303      8306      8307      8303      8306      8308      8303      8306      8309
      8307      8306      8308      8307      8306      8309      8308      8306      8309
      8306      8309      8310      8306      8309      8311      8306      8309      8312
      8310      8309      8311      8310      8309      8312      8311      8309      8312
      8309      8312      8313      8309      8312      8314      8309      8312      8315
      8313      8312      8314      8313      8312      8315      8314      8312      8315
      8312      8315      8316      8312      8315      8317      8312      8315      8318
      8316      8315      8317      8316      8315      8318      8317      8315      8318
      8315      8318      8319      8315      8318      8320      8315      8318      8321
      8319      8318      8320      8319      8318      8321      8320      8318      8321
      8318      8321      8322      8318      8321      8323      8318      8321      8324
      8322      8321      8323      8322      8321      8324      8323      8321      8324
      8321      8324      8325      8321      8324      8326      8321      8324      8327
      8325      8324      8326      8325      8324      8327      8326      8324      8327
      8324      8327      8328      8324      8327      8329      8324      8327      8330
      8328      8327      8329      8328      8327      8330      8329      8327      8330
      8327      8330      8331      8327      8330      8332      8327      8330      8333
      8331      8330      8332      8331      8330      8333      8332      8330      8333
      8330      8333      8334      8330      8333      8335      8330      8333      8336
      8334      8333      8335      8334      8333      8336      8335      8333      8336
      8333      8336      8337      8333      8336      8338      8333      8336      8339
      8337      8336      8338      8337      8336      8339      8338      8336      8339
      8336      8339      8340      8336      8339      8341      8336      8339      8342
      8340      8339      8341      8340      8339      8342      8341      8339      8342
      8339      8342      8343      8339      8342      8344      8339      8342      8345
      8343      8342      8344      8343      8342      8345      8344      8342      8345
      2148      2147      2149      2148      2147      2151      2148      2147      2193
      2149      2147      2151      2149      2147      2193      2151      2147      2193
      2147      2149      2150      2147      2151      2152      2147      2151      2153
      2147      2151      2154      2152      2151      2153      2152      2151      2154
      2153      2151      2154      2151      2154      2155      2151      2154      2185
      2155      2154      2185      2154      2155      2156      2154      2155      2157
      2156      2155      2157      2155      2157      2158      2155      2157      2159
      2155      2157      2160      2158      2157      2159      2158      2157      2160
      2159      2157      2160      2157      2160      2161      2157      2160      2162
      2157      2160      2183      2161      2160      2162      2161      2160      2183
      2162      2160      2183      2160      2162      2163      2160      2162      2164
      2160      2162      2172      2163      2162      2164      2163      2162      2172
      2164      2162      2172      2162      2164      2165      2162      2164      2166
      2162      2164      2167      2165      2164      2166      2165      2164      2167
      2166      2164      2167      2164      2167      2168      2164      2167      2169
      2164      2167      2170      2168      2167      2169      2168      2167      2170
      2169      2167      2170      2167      2170      2171      2167      2170      2172
      2167      2170      2196      2171      2170      2172      2171      2170      2196
      2172      2170      2196      2162      2172      2170      2162      2172      2173
      2162      2172      2177      2170      2172      2173      2170      2172      2177
      2173      2172      2177      2172      2173      2174      2172      2173      2175
      2172      2173      2176      2174      2173      2175      2174      2173      2176
      2175      2173      2176      2172      2177      2178      2172      2177      2179
      2172      2177      2180      2178      2177      2179      2178      2177      2180
      2179      2177      2180      2177      2180      2181      2177      2180      2182
      2177      2180      2183      2181      2180      2182      2181      2180      2183
      2182      2180      2183      2160      2183      2180      2160      2183      2184
      2160      2183      2185      2180      2183      2184      2180      2183      2185
      2184      2183      2185      2154      2185      2183      2154      2185      2186
      2154      2185      2190      2183      2185      2186      2183      2185      2190
      2186      2185      2190      2185      2186      2187      2185      2186      2188
      2185      2186      2189      2187      2186      2188      2187      2186      2189
      2188      2186      2189      2185      2190      2191      2185      2190      2192
      2185      2190      2193      2191      2190      2192      2191      2190      2193
      2192      2190      2193      2147      2193      2190      2147      2193      2194
      2147      2193      2195      2190      2193      2194      2190      2193      2195
      2194      2193      2195      2170      2196      2197      2170      2196      2198
      2170      2196      2202      2197      2196      2198      2197      2196      2202
      2198      2196      2202      2196      2198      2199      2196      2198      2200
      2196      2198      2201      2199      2198      2200      2199      2198      2201
      2200      2198      2201      2196      2202      2203      2196      2202      2204
      2196      2202      2205      2203      2202      2204      2203      2202      2205
      2204      2202      2205      2202      2205      2206      2202      2205      2207
      2202      2205      2208      2206      2205      2207      2206      2205      2208
      2207      2205      2208      2205      2208      2209      2205      2208      2210
      2205      2208      2211      2209      2208      2210      2209      2208      2211
      2210      2208      2211      2208      2211      2212      2208      2211      2213
      2208      2211      2217      2212      2211      2213      2212      2211      2217
      2213      2211      2217      2211      2213      2214      2211      2213      2215
      2211      2213      2216      2214      2213      2215      2214      2213      2216
      2215      2213      2216      2211      2217      2218      2211      2217      2219
      2211      2217      2220      2218      2217      2219      2218      2217      2220
      2219      2217      2220      8347      8346      8348      8347      8346      8349
      8347      8346      8350      8348      8346      8349      8348      8346      8350
      8349      8346      8350      8346      8350      8351      8346      8350      8352
      8346      8350      8353      8351      8350      8352      8351      8350      8353
      8352      8350      8353      8350      8353      8354      8350      8353      8355
      8350      8353      8360      8354      8353      8355      8354      8353      8360
      8355      8353      8360      8357      8356      8358      8357      8356      8359
      8357      8356      8360      8358      8356      8359      8358      8356      8360
      8359      8356      8360      8356      8359      8361      8353      8360      8356
      8359      8361      8362      8359      8361      8363      8359      8361      8364
      8362      8361      8363      8362      8361      8364      8363      8361      8364
      8361      8364      8365      8361      8364      8366      8361      8364      8372
      8365      8364      8366      8365      8364      8372      8366      8364      8372
      8364      8366      8367      8366      8367      8368      8366      8367      8369
      8368      8367      8369      8367      8369      8370      8367      8369      8371
      8367      8369      8381      8370      8369      8371      8370      8369      8381
      8371      8369      8381      8364      8372      8373      8364      8372      8374
      8364      8372      8375      8373      8372      8374      8373      8372      8375
      8374      8372      8375      8372      8375      8376      8375      8376      8377
      8375      8376      8378      8377      8376      8378      8376      8378      8379
      8376      8378      8380      8376      8378      8428      8379      8378      8380
      8379      8378      8428      8380      8378      8428      8369      8381      8382
      8369      8381      8383      8369      8381      8384      8382      8381      8383
      8382      8381      8384      8383      8381      8384      8381      8384      8385
      8381      8384      8386      8381      8384      8387      8385      8384      8386
      8385      8384      8387      8386      8384      8387      8384      8387      8388
      8384      8387      8389      8384      8387      8390      8388      8387      8389
      8388      8387      8390      8389      8387      8390      8387      8390      8391
      8387      8390      8392      8387      8390      8393      8391      8390      8392
      8391      8390      8393      8392      8390      8393      8390      8393      8394
      8390      8393      8395      8390      8393      8396      8394      8393      8395
      8394      8393      8396      8395      8393      8396      8393      8396      8397
      8393      8396      8398      8393      8396      8399      8397      8396      8398
      8397      8396      8399      8398      8396      8399      8396      8399      8400
      8396      8399      8401      8400      8399      8401      8399      8401      8402
      8399      8401      8403      8402      8401      8403      8401      8403      8404
      8401      8403      8405      8401      8403      8406      8404      8403      8405
      8404      8403      8406      8405      8403      8406      8403      8406      8407
      8403      8406      8408      8403      8406      8409      8407      8406      8408
      8407      8406      8409      8408      8406      8409      8406      8409      8410
      8406      8409      8411      8406      8409      8412      8410      8409      8411
      8410      8409      8412      8411      8409      8412      8409      8412      8413
      8409      8412      8414      8409      8412      8415      8413      8412      8414
      8413      8412      8415      8414      8412      8415      8412      8415      8416
      8412      8415      8417      8412      8415      8418      8416      8415      8417
      8416      8415      8418      8417      8415      8418      8415      8418      8419
      8415      8418      8420      8415      8418      8421      8419      8418      8420
      8419      8418      8421      8420      8418      8421      8418      8421      8422
      8418      8421      8423      8418      8421      8424      8422      8421      8423
      8422      8421      8424      8423      8421      8424      8421      8424      8425
      8421      8424      8426      8421      8424      8427      8425      8424      8426
      8425      8424      8427      8426      8424      8427      8378      8428      8429
      8378      8428      8430      8378      8428      8431      8429      8428      8430
      8429      8428      8431      8430      8428      8431      8428      8431      8432
      8428      8431      8433      8428      8431      8434      8432      8431      8433
      8432      8431      8434      8433      8431      8434      8431      8434      8435
      8431      8434      8436      8431      8434      8437      8435      8434      8436
      8435      8434      8437      8436      8434      8437      8434      8437      8438
      8434      8437      8439      8434      8437      8440      8438      8437      8439
      8438      8437      8440      8439      8437      8440      8437      8440      8441
      8437      8440      8442      8437      8440      8443      8441      8440      8442
      8441      8440      8443      8442      8440      8443      8440      8443      8444
      8440      8443      8445      8440      8443      8446      8444      8443      8445
      8444      8443      8446      8445      8443      8446      8443      8446      8447
      8443      8446      8448      8443      8446      8449      8447      8446      8448
      8447      8446      8449      8448      8446      8449      8446      8449      8450
      8446      8449      8451      8446      8449      8452      8450      8449      8451
      8450      8449      8452      8451      8449      8452      8449      8452      8453
      8449      8452      8454      8449      8452      8455      8453      8452      8454
      8453      8452      8455      8454      8452      8455      8452      8455      8456
      8452      8455      8457      8452      8455      8458      8456      8455      8457
      8456      8455      8458      8457      8455      8458      8455      8458      8459
      8455      8458      8460      8455      8458      8461      8459      8458      8460
      8459      8458      8461      8460      8458      8461      8458      8461      8462
      8458      8461      8463      8458      8461      8464      8462      8461      8463
      8462      8461      8464      8463      8461      8464      8461      8464      8465
      8461      8464      8466      8461      8464      8467      8465      8464      8466
      8465      8464      8467      8466      8464      8467      8464      8467      8468
      8464      8467      8469      8464      8467      8470      8468      8467      8469
      8468      8467      8470      8469      8467      8470     21324     21323     21327
     21324     21323     21331     21324     21323     21335     21327     21323     21331
     21327     21323     21335     21331     21323     21335     21323     21324     21325
     21323     21324     21326     21323     21324     21339     21325     21324     21326
     21325     21324     21339     21326     21324     21339     21323     21327     21328
     21323     21327     21329     21323     21327     21330     21328     21327     21329
     21328     21327     21330     21329     21327     21330     21323     21331     21332
     21323     21331     21333     21323     21331     21334     21332     21331     21333
     21332     21331     21334     21333     21331     21334     21323     21335     21336
     21323     21335     21337     21323     21335     21338     21336     21335     21337
     21336     21335     21338     21337     21335     21338     21324     21339     21340
     21324     21339     21341     21324     21339     21345     21340     21339     21341
     21340     21339     21345     21341     21339     21345     21343     21342     21344
     21343     21342     21345     21343     21342     21346     21344     21342     21345
     21344     21342     21346     21345     21342     21346     21339     21345     21342
     21342     21346     21347     21346     21347     21348     21346     21347     21349
     21346     21347     21350     21348     21347     21349     21348     21347     21350
     21349     21347     21350     21347     21350     21351     21347     21350     21352
     21347     21350     21358     21351     21350     21352     21351     21350     21358
     21352     21350     21358     21350     21352     21353     21352     21353     21354
     21352     21353     21355     21354     21353     21355     21353     21355     21356
     21353     21355     21357     21353     21355     21367     21356     21355     21357
     21356     21355     21367     21357     21355     21367     21350     21358     21359
     21350     21358     21360     21350     21358     21361     21359     21358     21360
     21359     21358     21361     21360     21358     21361     21358     21361     21362
     21361     21362     21363     21361     21362     21364     21363     21362     21364
     21362     21364     21365     21362     21364     21366     21362     21364     21414
     21365     21364     21366     21365     21364     21414     21366     21364     21414
     21355     21367     21368     21355     21367     21369     21355     21367     21370
     21368     21367     21369     21368     21367     21370     21369     21367     21370
     21367     21370     21371     21367     21370     21372     21367     21370     21373
     21371     21370     21372     21371     21370     21373     21372     21370     21373
     21370     21373     21374     21370     21373     21375     21370     21373     21376
     21374     21373     21375     21374     21373     21376     21375     21373     21376
     21373     21376     21377     21373     21376     21378     21373     21376     21379
     21377     21376     21378     21377     21376     21379     21378     21376     21379
     21376     21379     21380     21376     21379     21381     21376     21379     21382
     21380     21379     21381     21380     21379     21382     21381     21379     21382
     21379     21382     21383     21379     21382     21384     21379     21382     21385
     21383     21382     21384     21383     21382     21385     21384     21382     21385
     21382     21385     21386     21382     21385     21387     21386     21385     21387
     21385     21387     21388     21385     21387     21389     21388     21387     21389
     21387     21389     21390     21387     21389     21391     21387     21389     21392
     21390     21389     21391     21390     21389     21392     21391     21389     21392
     21389     21392     21393     21389     21392     21394     21389     21392     21395
     21393     21392     21394     21393     21392     21395     21394     21392     21395
     21392     21395     21396     21392     21395     21397     21392     21395     21398
     21396     21395     21397     21396     21395     21398     21397     21395     21398
     21395     21398     21399     21395     21398     21400     21395     21398     21401
     21399     21398     21400     21399     21398     21401     21400     21398     21401
     21398     21401     21402     21398     21401     21403     21398     21401     21404
     21402     21401     21403     21402     21401     21404     21403     21401     21404
     21401     21404     21405     21401     21404     21406     21401     21404     21407
     21405     21404     21406     21405     21404     21407     21406     21404     21407
     21404     21407     21408     21404     21407     21409     21404     21407     21410
     21408     21407     21409     21408     21407     21410     21409     21407     21410
     21407     21410     21411     21407     21410     21412     21407     21410     21413
     21411     21410     21412     21411     21410     21413     21412     21410     21413
     21364     21414     21415     21364     21414     21416     21364     21414     21417
     21415     21414     21416     21415     21414     21417     21416     21414     21417
     21414     21417     21418     21414     21417     21419     21414     21417     21420
     21418     21417     21419     21418     21417     21420     21419     21417     21420
     21417     21420     21421     21417     21420     21422     21417     21420     21423
     21421     21420     21422     21421     21420     21423     21422     21420     21423
     21420     21423     21424     21420     21423     21425     21420     21423     21426
     21424     21423     21425     21424     21423     21426     21425     21423     21426
     21423     21426     21427     21423     21426     21428     21423     21426     21429
     21427     21426     21428     21427     21426     21429     21428     21426     21429
     21426     21429     21430     21426     21429     21431     21426     21429     21432
     21430     21429     21431     21430     21429     21432     21431     21429     21432
     21429     21432     21433     21429     21432     21434     21429     21432     21435
     21433     21432     21434     21433     21432     21435     21434     21432     21435
     21432     21435     21436     21432     21435     21437     21432     21435     21438
     21436     21435     21437     21436     21435     21438     21437     21435     21438
     21435     21438     21439     21435     21438     21440     21435     21438     21441
     21439     21438     21440     21439     21438     21441     21440     21438     21441
     21438     21441     21442     21438     21441     21443     21438     21441     21444
     21442     21441     21443     21442     21441     21444     21443     21441     21444
     21441     21444     21445     21441     21444     21446     21441     21444     21447
     21445     21444     21446     21445     21444     21447     21446     21444     21447
     21444     21447     21448     21444     21447     21449     21444     21447     21450
     21448     21447     21449     21448     21447     21450     21449     21447     21450
     21447     21450     21451     21447     21450     21452     21447     21450     21453
     21451     21450     21452     21451     21450     21453     21452     21450     21453
     21450     21453     21454     21450     21453     21455     21450     21453     21456
     21454     21453     21455     21454     21453     21456     21455     21453     21456
     13298     13297     13299     13298     13297     13300     13298     13297     13301
     13299     13297     13300     13299     13297     13301     13300     13297     13301
     13297     13301     13302     13297     13301     13303     13297     13301     13306
     13302     13301     13303     13302     13301     13306     13303     13301     13306
     13301     13303     13304     13301     13303     13305     13304     13303     13305
     13301     13306     13307     13301     13306     13308     13301     13306     13312
     13307     13306     13308     13307     13306     13312     13308     13306     13312
     13310     13309     13311     13310     13309     13312     13310     13309     13313
     13311     13309     13312     13311     13309     13313     13312     13309     13313
     13306     13312     13309     13309     13313     13314     13313     13314     13315
     13313     13314     13316     13313     13314     13317     13315     13314     13316
     13315     13314     13317     13316     13314     13317     13314     13317     13318
     13314     13317     13319     13314     13317     13325     13318     13317     13319
     13318     13317     13325     13319     13317     13325     13317     13319     13320
     13319     13320     13321     13319     13320     13322     13321     13320     13322
     13320     13322     13323     13320     13322     13324     13320     13322     13334
     13323     13322     13324     13323     13322     13334     13324     13322     13334
     13317     13325     13326     13317     13325     13327     13317     13325     13328
     13326     13325     13327     13326     13325     13328     13327     13325     13328
     13325     13328     13329     13328     13329     13330     13328     13329     13331
     13330     13329     13331     13329     13331     13332     13329     13331     13333
     13329     13331     13381     13332     13331     13333     13332     13331     13381
     13333     13331     13381     13322     13334     13335     13322     13334     13336
     13322     13334     13337     13335     13334     13336     13335     13334     13337
     13336     13334     13337     13334     13337     13338     13334     13337     13339
     13334     13337     13340     13338     13337     13339     13338     13337     13340
     13339     13337     13340     13337     13340     13341     13337     13340     13342
     13337     13340     13343     13341     13340     13342     13341     13340     13343
     13342     13340     13343     13340     13343     13344     13340     13343     13345
     13340     13343     13346     13344     13343     13345     13344     13343     13346
     13345     13343     13346     13343     13346     13347     13343     13346     13348
     13343     13346     13349     13347     13346     13348     13347     13346     13349
     13348     13346     13349     13346     13349     13350     13346     13349     13351
     13346     13349     13352     13350     13349     13351     13350     13349     13352
     13351     13349     13352     13349     13352     13353     13349     13352     13354
     13353     13352     13354     13352     13354     13355     13352     13354     13356
     13355     13354     13356     13354     13356     13357     13354     13356     13358
     13354     13356     13359     13357     13356     13358     13357     13356     13359
     13358     13356     13359     13356     13359     13360     13356     13359     13361
     13356     13359     13362     13360     13359     13361     13360     13359     13362
     13361     13359     13362     13359     13362     13363     13359     13362     13364
     13359     13362     13365     13363     13362     13364     13363     13362     13365
     13364     13362     13365     13362     13365     13366     13362     13365     13367
     13362     13365     13368     13366     13365     13367     13366     13365     13368
     13367     13365     13368     13365     13368     13369     13365     13368     13370
     13365     13368     13371     13369     13368     13370     13369     13368     13371
     13370     13368     13371     13368     13371     13372     13368     13371     13373
     13368     13371     13374     13372     13371     13373     13372     13371     13374
     13373     13371     13374     13371     13374     13375     13371     13374     13376
     13371     13374     13377     13375     13374     13376     13375     13374     13377
     13376     13374     13377     13374     13377     13378     13374     13377     13379
     13374     13377     13380     13378     13377     13379     13378     13377     13380
     13379     13377     13380     13331     13381     13382     13331     13381     13383
     13331     13381     13384     13382     13381     13383     13382     13381     13384
     13383     13381     13384     13381     13384     13385     13381     13384     13386
     13381     13384     13387     13385     13384     13386     13385     13384     13387
     13386     13384     13387     13384     13387     13388     13384     13387     13389
     13384     13387     13390     13388     13387     13389     13388     13387     13390
     13389     13387     13390     13387     13390     13391     13387     13390     13392
     13387     13390     13393     13391     13390     13392     13391     13390     13393
     13392     13390     13393     13390     13393     13394     13390     13393     13395
     13390     13393     13396     13394     13393     13395     13394     13393     13396
     13395     13393     13396     13393     13396     13397     13393     13396     13398
     13393     13396     13399     13397     13396     13398     13397     13396     13399
     13398     13396     13399     13396     13399     13400     13396     13399     13401
     13396     13399     13402     13400     13399     13401     13400     13399     13402
     13401     13399     13402     13399     13402     13403     13399     13402     13404
     13399     13402     13405     13403     13402     13404     13403     13402     13405
     13404     13402     13405     13402     13405     13406     13402     13405     13407
     13402     13405     13408     13406     13405     13407     13406     13405     13408
     13407     13405     13408     13405     13408     13409     13405     13408     13410
     13405     13408     13411     13409     13408     13410     13409     13408     13411
     13410     13408     13411     13408     13411     13412     13408     13411     13413
     13408     13411     13414     13412     13411     13413     13412     13411     13414
     13413     13411     13414     13411     13414     13415     13411     13414     13416
     13411     13414     13417     13415     13414     13416     13415     13414     13417
     13416     13414     13417     13414     13417     13418     13414     13417     13419
     13414     13417     13420     13418     13417     13419     13418     13417     13420
     13419     13417     13420     13417     13420     13421     13417     13420     13422
     13417     13420     13423     13421     13420     13422     13421     13420     13423
     13422     13420     13423     13425     13424     13426     13425     13424     13427
     13425     13424     13428     13426     13424     13427     13426     13424     13428
     13427     13424     13428     13424     13428     13429     13424     13428     13430
     13424     13428     13433     13429     13428     13430     13429     13428     13433
     13430     13428     13433     13428     13430     13431     13428     13430     13432
     13431     13430     13432     13428     13433     13434     13428     13433     13435
     13428     13433     13439     13434     13433     13435     13434     13433     13439
     13435     13433     13439     13437     13436     13438     13437     13436     13439
     13437     13436     13440     13438     13436     13439     13438     13436     13440
     13439     13436     13440     13433     13439     13436     13436     13440     13441
     13440     13441     13442     13440     13441     13443     13440     13441     13444
     13442     13441     13443     13442     13441     13444     13443     13441     13444
     13441     13444     13445     13441     13444     13446     13441     13444     13452
     13445     13444     13446     13445     13444     13452     13446     13444     13452
     13444     13446     13447     13446     13447     13448     13446     13447     13449
     13448     13447     13449     13447     13449     13450     13447     13449     13451
     13447     13449     13461     13450     13449     13451     13450     13449     13461
     13451     13449     13461     13444     13452     13453     13444     13452     13454
     13444     13452     13455     13453     13452     13454     13453     13452     13455
     13454     13452     13455     13452     13455     13456     13455     13456     13457
     13455     13456     13458     13457     13456     13458     13456     13458     13459
     13456     13458     13460     13456     13458     13508     13459     13458     13460
     13459     13458     13508     13460     13458     13508     13449     13461     13462
     13449     13461     13463     13449     13461     13464     13462     13461     13463
     13462     13461     13464     13463     13461     13464     13461     13464     13465
     13461     13464     13466     13461     13464     13467     13465     13464     13466
     13465     13464     13467     13466     13464     13467     13464     13467     13468
     13464     13467     13469     13464     13467     13470     13468     13467     13469
     13468     13467     13470     13469     13467     13470     13467     13470     13471
     13467     13470     13472     13467     13470     13473     13471     13470     13472
     13471     13470     13473     13472     13470     13473     13470     13473     13474
     13470     13473     13475     13470     13473     13476     13474     13473     13475
     13474     13473     13476     13475     13473     13476     13473     13476     13477
     13473     13476     13478     13473     13476     13479     13477     13476     13478
     13477     13476     13479     13478     13476     13479     13476     13479     13480
     13476     13479     13481     13480     13479     13481     13479     13481     13482
     13479     13481     13483     13482     13481     13483     13481     13483     13484
     13481     13483     13485     13481     13483     13486     13484     13483     13485
     13484     13483     13486     13485     13483     13486     13483     13486     13487
     13483     13486     13488     13483     13486     13489     13487     13486     13488
     13487     13486     13489     13488     13486     13489     13486     13489     13490
     13486     13489     13491     13486     13489     13492     13490     13489     13491
     13490     13489     13492     13491     13489     13492     13489     13492     13493
     13489     13492     13494     13489     13492     13495     13493     13492     13494
     13493     13492     13495     13494     13492     13495     13492     13495     13496
     13492     13495     13497     13492     13495     13498     13496     13495     13497
     13496     13495     13498     13497     13495     13498     13495     13498     13499
     13495     13498     13500     13495     13498     13501     13499     13498     13500
     13499     13498     13501     13500     13498     13501     13498     13501     13502
     13498     13501     13503     13498     13501     13504     13502     13501     13503
     13502     13501     13504     13503     13501     13504     13501     13504     13505
     13501     13504     13506     13501     13504     13507     13505     13504     13506
     13505     13504     13507     13506     13504     13507     13458     13508     13509
     13458     13508     13510     13458     13508     13511     13509     13508     13510
     13509     13508     13511     13510     13508     13511     13508     13511     13512
     13508     13511     13513     13508     13511     13514     13512     13511     13513
     13512     13511     13514     13513     13511     13514     13511     13514     13515
     13511     13514     13516     13511     13514     13517     13515     13514     13516
     13515     13514     13517     13516     13514     13517     13514     13517     13518
     13514     13517     13519     13514     13517     13520     13518     13517     13519
     13518     13517     13520     13519     13517     13520     13517     13520     13521
     13517     13520     13522     13517     13520     13523     13521     13520     13522
     13521     13520     13523     13522     13520     13523     13520     13523     13524
     13520     13523     13525     13520     13523     13526     13524     13523     13525
     13524     13523     13526     13525     13523     13526     13523     13526     13527
     13523     13526     13528     13523     13526     13529     13527     13526     13528
     13527     13526     13529     13528     13526     13529     13526     13529     13530
     13526     13529     13531     13526     13529     13532     13530     13529     13531
     13530     13529     13532     13531     13529     13532     13529     13532     13533
     13529     13532     13534     13529     13532     13535     13533     13532     13534
     13533     13532     13535     13534     13532     13535     13532     13535     13536
     13532     13535     13537     13532     13535     13538     13536     13535     13537
     13536     13535     13538     13537     13535     13538     13535     13538     13539
     13535     13538     13540     13535     13538     13541     13539     13538     13540
     13539     13538     13541     13540     13538     13541     13538     13541     13542
     13538     13541     13543     13538     13541     13544     13542     13541     13543
     13542     13541     13544     13543     13541     13544     13541     13544     13545
     13541     13544     13546     13541     13544     13547     13545     13544     13546
     13545     13544     13547     13546     13544     13547     13544     13547     13548
     13544     13547     13549     13544     13547     13550     13548     13547     13549
     13548     13547     13550     13549     13547     13550     21458     21457     21461
     21458     21457     21465     21458     21457     21469     21461     21457     21465
     21461     21457     21469     21465     21457     21469     21457     21458     21459
     21457     21458     21460     21457     21458     21473     21459     21458     21460
     21459     21458     21473     21460     21458     21473     21457     21461     21462
     21457     21461     21463     21457     21461     21464     21462     21461     21463
     21462     21461     21464     21463     21461     21464     21457     21465     21466
     21457     21465     21467     21457     21465     21468     21466     21465     21467
     21466     21465     21468     21467     21465     21468     21457     21469     21470
     21457     21469     21471     21457     21469     21472     21470     21469     21471
     21470     21469     21472     21471     21469     21472     21458     21473     21474
     21458     21473     21475     21458     21473     21479     21474     21473     21475
     21474     21473     21479     21475     21473     21479     21477     21476     21478
     21477     21476     21479     21477     21476     21480     21478     21476     21479
     21478     21476     21480     21479     21476     21480     21473     21479     21476
     21476     21480     21481     21480     21481     21482     21480     21481     21483
     21480     21481     21484     21482     21481     21483     21482     21481     21484
     21483     21481     21484     21481     21484     21485     21481     21484     21486
     21481     21484     21492     21485     21484     21486     21485     21484     21492
     21486     21484     21492     21484     21486     21487     21486     21487     21488
     21486     21487     21489     21488     21487     21489     21487     21489     21490
     21487     21489     21491     21487     21489     21501     21490     21489     21491
     21490     21489     21501     21491     21489     21501     21484     21492     21493
     21484     21492     21494     21484     21492     21495     21493     21492     21494
     21493     21492     21495     21494     21492     21495     21492     21495     21496
     21495     21496     21497     21495     21496     21498     21497     21496     21498
     21496     21498     21499     21496     21498     21500     21496     21498     21548
     21499     21498     21500     21499     21498     21548     21500     21498     21548
     21489     21501     21502     21489     21501     21503     21489     21501     21504
     21502     21501     21503     21502     21501     21504     21503     21501     21504
     21501     21504     21505     21501     21504     21506     21501     21504     21507
     21505     21504     21506     21505     21504     21507     21506     21504     21507
     21504     21507     21508     21504     21507     21509     21504     21507     21510
     21508     21507     21509     21508     21507     21510     21509     21507     21510
     21507     21510     21511     21507     21510     21512     21507     21510     21513
     21511     21510     21512     21511     21510     21513     21512     21510     21513
     21510     21513     21514     21510     21513     21515     21510     21513     21516
     21514     21513     21515     21514     21513     21516     21515     21513     21516
     21513     21516     21517     21513     21516     21518     21513     21516     21519
     21517     21516     21518     21517     21516     21519     21518     21516     21519
     21516     21519     21520     21516     21519     21521     21520     21519     21521
     21519     21521     21522     21519     21521     21523     21522     21521     21523
     21521     21523     21524     21521     21523     21525     21521     21523     21526
     21524     21523     21525     21524     21523     21526     21525     21523     21526
     21523     21526     21527     21523     21526     21528     21523     21526     21529
     21527     21526     21528     21527     21526     21529     21528     21526     21529
     21526     21529     21530     21526     21529     21531     21526     21529     21532
     21530     21529     21531     21530     21529     21532     21531     21529     21532
     21529     21532     21533     21529     21532     21534     21529     21532     21535
     21533     21532     21534     21533     21532     21535     21534     21532     21535
     21532     21535     21536     21532     21535     21537     21532     21535     21538
     21536     21535     21537     21536     21535     21538     21537     21535     21538
     21535     21538     21539     21535     21538     21540     21535     21538     21541
     21539     21538     21540     21539     21538     21541     21540     21538     21541
     21538     21541     21542     21538     21541     21543     21538     21541     21544
     21542     21541     21543     21542     21541     21544     21543     21541     21544
     21541     21544     21545     21541     21544     21546     21541     21544     21547
     21545     21544     21546     21545     21544     21547     21546     21544     21547
     21498     21548     21549     21498     21548     21550     21498     21548     21551
     21549     21548     21550     21549     21548     21551     21550     21548     21551
     21548     21551     21552     21548     21551     21553     21548     21551     21554
     21552     21551     21553     21552     21551     21554     21553     21551     21554
     21551     21554     21555     21551     21554     21556     21551     21554     21557
     21555     21554     21556     21555     21554     21557     21556     21554     21557
     21554     21557     21558     21554     21557     21559     21554     21557     21560
     21558     21557     21559     21558     21557     21560     21559     21557     21560
     21557     21560     21561     21557     21560     21562     21557     21560     21563
     21561     21560     21562     21561     21560     21563     21562     21560     21563
     21560     21563     21564     21560     21563     21565     21560     21563     21566
     21564     21563     21565     21564     21563     21566     21565     21563     21566
     21563     21566     21567     21563     21566     21568     21563     21566     21569
     21567     21566     21568     21567     21566     21569     21568     21566     21569
     21566     21569     21570     21566     21569     21571     21566     21569     21572
     21570     21569     21571     21570     21569     21572     21571     21569     21572
     21569     21572     21573     21569     21572     21574     21569     21572     21575
     21573     21572     21574     21573     21572     21575     21574     21572     21575
     21572     21575     21576     21572     21575     21577     21572     21575     21578
     21576     21575     21577     21576     21575     21578     21577     21575     21578
     21575     21578     21579     21575     21578     21580     21575     21578     21581
     21579     21578     21580     21579     21578     21581     21580     21578     21581
     21578     21581     21582     21578     21581     21583     21578     21581     21584
     21582     21581     21583     21582     21581     21584     21583     21581     21584
     21581     21584     21585     21581     21584     21586     21581     21584     21587
     21585     21584     21586     21585     21584     21587     21586     21584     21587
     21584     21587     21588     21584     21587     21589     21584     21587     21590
     21588     21587     21589     21588     21587     21590     21589     21587     21590
     22825     22824     22826     22825     22824     22828     22825     22824     22844
     22826     22824     22828     22826     22824     22844     22828     22824     22844
     22824     22826     22827     22824     22828     22829     22824     22828     22830
     22824     22828     22832     22829     22828     22830     22829     22828     22832
     22830     22828     22832     22828     22830     22831     22828     22832     22833
     22828     22832     22834     22828     22832     22836     22833     22832     22834
     22833     22832     22836     22834     22832     22836     22832     22834     22835
     22832     22836     22837     22832     22836     22838     22832     22836     22840
     22837     22836     22838     22837     22836     22840     22838     22836     22840
     22836     22838     22839     22836     22840     22841     22836     22840     22842
     22836     22840     22844     22841     22840     22842     22841     22840     22844
     22842     22840     22844     22840     22842     22843     22824     22844     22840
     22824     22844     22845     22824     22844     22849     22840     22844     22845
     22840     22844     22849     22845     22844     22849     22847     22846     22848
     22847     22846     22849     22847     22846     22850     22848     22846     22849
     22848     22846     22850     22849     22846     22850     22844     22849     22846
     22846     22850     22851     22850     22851     22852     22850     22851     22853
     22850     22851     22854     22852     22851     22853     22852     22851     22854
     22853     22851     22854     22851     22854     22855     22851     22854     22856
     22851     22854     22862     22855     22854     22856     22855     22854     22862
     22856     22854     22862     22854     22856     22857     22856     22857     22858
     22856     22857     22859     22858     22857     22859     22857     22859     22860
     22857     22859     22861     22857     22859     22871     22860     22859     22861
     22860     22859     22871     22861     22859     22871     22854     22862     22863
     22854     22862     22864     22854     22862     22865     22863     22862     22864
     22863     22862     22865     22864     22862     22865     22862     22865     22866
     22865     22866     22867     22865     22866     22868     22867     22866     22868
     22866     22868     22869     22866     22868     22870     22866     22868     22918
     22869     22868     22870     22869     22868     22918     22870     22868     22918
     22859     22871     22872     22859     22871     22873     22859     22871     22874
     22872     22871     22873     22872     22871     22874     22873     22871     22874
     22871     22874     22875     22871     22874     22876     22871     22874     22877
     22875     22874     22876     22875     22874     22877     22876     22874     22877
     22874     22877     22878     22874     22877     22879     22874     22877     22880
     22878     22877     22879     22878     22877     22880     22879     22877     22880
     22877     22880     22881     22877     22880     22882     22877     22880     22883
     22881     22880     22882     22881     22880     22883     22882     22880     22883
     22880     22883     22884     22880     22883     22885     22880     22883     22886
     22884     22883     22885     22884     22883     22886     22885     22883     22886
     22883     22886     22887     22883     22886     22888     22883     22886     22889
     22887     22886     22888     22887     22886     22889     22888     22886     22889
     22886     22889     22890     22886     22889     22891     22890     22889     22891
     22889     22891     22892     22889     22891     22893     22892     22891     22893
     22891     22893     22894     22891     22893     22895     22891     22893     22896
     22894     22893     22895     22894     22893     22896     22895     22893     22896
     22893     22896     22897     22893     22896     22898     22893     22896     22899
     22897     22896     22898     22897     22896     22899     22898     22896     22899
     22896     22899     22900     22896     22899     22901     22896     22899     22902
     22900     22899     22901     22900     22899     22902     22901     22899     22902
     22899     22902     22903     22899     22902     22904     22899     22902     22905
     22903     22902     22904     22903     22902     22905     22904     22902     22905
     22902     22905     22906     22902     22905     22907     22902     22905     22908
     22906     22905     22907     22906     22905     22908     22907     22905     22908
     22905     22908     22909     22905     22908     22910     22905     22908     22911
     22909     22908     22910     22909     22908     22911     22910     22908     22911
     22908     22911     22912     22908     22911     22913     22908     22911     22914
     22912     22911     22913     22912     22911     22914     22913     22911     22914
     22911     22914     22915     22911     22914     22916     22911     22914     22917
     22915     22914     22916     22915     22914     22917     22916     22914     22917
     22868     22918     22919     22868     22918     22920     22868     22918     22921
     22919     22918     22920     22919     22918     22921     22920     22918     22921
     22918     22921     22922     22918     22921     22923     22918     22921     22924
     22922     22921     22923     22922     22921     22924     22923     22921     22924
     22921     22924     22925     22921     22924     22926     22921     22924     22927
     22925     22924     22926     22925     22924     22927     22926     22924     22927
     22924     22927     22928     22924     22927     22929     22924     22927     22930
     22928     22927     22929     22928     22927     22930     22929     22927     22930
     22927     22930     22931     22927     22930     22932     22927     22930     22933
     22931     22930     22932     22931     22930     22933     22932     22930     22933
     22930     22933     22934     22930     22933     22935     22930     22933     22936
     22934     22933     22935     22934     22933     22936     22935     22933     22936
     22933     22936     22937     22933     22936     22938     22933     22936     22939
     22937     22936     22938     22937     22936     22939     22938     22936     22939
     22936     22939     22940     22936     22939     22941     22936     22939     22942
     22940     22939     22941     22940     22939     22942     22941     22939     22942
     22939     22942     22943     22939     22942     22944     22939     22942     22945
     22943     22942     22944     22943     22942     22945     22944     22942     22945
     22942     22945     22946     22942     22945     22947     22942     22945     22948
     22946     22945     22947     22946     22945     22948     22947     22945     22948
     22945     22948     22949     22945     22948     22950     22945     22948     22951
     22949     22948     22950     22949     22948     22951     22950     22948     22951
     22948     22951     22952     22948     22951     22953     22948     22951     22954
     22952     22951     22953     22952     22951     22954     22953     22951     22954
     22951     22954     22955     22951     22954     22956     22951     22954     22957
     22955     22954     22956     22955     22954     22957     22956     22954     22957
     22954     22957     22958     22954     22957     22959     22954     22957     22960
     22958     22957     22959     22958     22957     22960     22959     22957     22960
     24320     24319     24321     24323     24322     24324     24326     24325     24327
     24329     24328     24330     24332     24331     24333     24335     24334     24336
     24338     24337     24339     24341     24340     24342     24344     24343     24345
     24347     24346     24348     24350     24349     24351     24353     24352     24354
     24356     24355     24357     24359     24358     24360     24362     24361     24363
     24365     24364     24366     24368     24367     24369     24371     24370     24372
     24374     24373     24375     24377     24376     24378     24380     24379     24381
     24383     24382     24384     24386     24385     24387     24389     24388     24390
     24392     24391     24393     24395     24394     24396     24398     24397     24399
     24401     24400     24402     24404     24403     24405     24407     24406     24408
     24410     24409     24411     24413     24412     24414     24416     24415     24417
     24419     24418     24420     24422     24421     24423     24425     24424     24426
     24428     24427     24429     24431     24430     24432     24434     24433     24435
     24437     24436     24438     24440     24439     24441     24443     24442     24444
     24446     24445     24447     24449     24448     24450     24452     24451     24453
     24455     24454     24456     24458     24457     24459     24461     24460     24462
     24464     24463     24465     24467     24466     24468     24470     24469     24471
     24473     24472     24474     24476     24475     24477     24479     24478     24480
     24482     24481     24483     24485     24484     24486     24488     24487     24489
     24491     24490     24492     24494     24493     24495     24497     24496     24498
     24500     24499     24501     24503     24502     24504     24506     24505     24507
     24509     24508     24510     24512     24511     24513     24515     24514     24516
     24518     24517     24519     24521     24520     24522     24524     24523     24525
     24527     24526     24528     24530     24529     24531     24533     24532     24534
     24536     24535     24537     24539     24538     24540     24542     24541     24543
     24545     24544     24546     24548     24547     24549     24551     24550     24552
     24554     24553     24555     24557     24556     24558     24560     24559     24561
     24563     24562     24564     24566     24565     24567     24569     24568     24570
     24572     24571     24573     24575     24574     24576     24578     24577     24579
     24581     24580     24582     24584     24583     24585     24587     24586     24588
     24590     24589     24591     24593     24592     24594     24596     24595     24597
     24599     24598     24600     24602     24601     24603     24605     24604     24606
     24608     24607     24609     24611     24610     24612     24614     24613     24615
     24617     24616     24618     24620     24619     24621     24623     24622     24624
     24626     24625     24627     24629     24628     24630     24632     24631     24633
     24635     24634     24636     24638     24637     24639     24641     24640     24642
     24644     24643     24645     24647     24646     24648     24650     24649     24651
     24653     24652     24654     24656     24655     24657     24659     24658     24660
     24662     24661     24663     24665     24664     24666     24668     24667     24669
     24671     24670     24672     24674     24673     24675     24677     24676     24678
     24680     24679     24681     24683     24682     24684     24686     24685     24687
     24689     24688     24690     24692     24691     24693     24695     24694     24696
     24698     24697     24699     24701     24700     24702     24704     24703     24705
     24707     24706     24708     24710     24709     24711     24713     24712     24714
     24716     24715     24717     24719     24718     24720     24722     24721     24723
     24725     24724     24726     24728     24727     24729     24731     24730     24732
     24734     24733     24735     24737     24736     24738     24740     24739     24741
     24743     24742     24744     24746     24745     24747     24749     24748     24750
     24752     24751     24753     24755     24754     24756     24758     24757     24759
     24761     24760     24762     24764     24763     24765     24767     24766     24768
     24770     24769     24771     24773     24772     24774     24776     24775     24777
     24779     24778     24780     24782     24781     24783     24785     24784     24786
     24788     24787     24789     24791     24790     24792     24794     24793     24795
     24797     24796     24798     24800     24799     24801     24803     24802     24804
     24806     24805     24807     24809     24808     24810     24812     24811     24813
     24815     24814     24816     24818     24817     24819     24821     24820     24822
     24824     24823     24825     24827     24826     24828     24830     24829     24831
     24833     24832     24834     24836     24835     24837     24839     24838     24840
     24842     24841     24843     24845     24844     24846     24848     24847     24849
     24851     24850     24852     24854     24853     24855     24857     24856     24858
     24860     24859     24861     24863     24862     24864     24866     24865     24867
     24869     24868     24870     24872     24871     24873     24875     24874     24876
     24878     24877     24879     24881     24880     24882     24884     24883     24885
     24887     24886     24888     24890     24889     24891     24893     24892     24894
     24896     24895     24897     24899     24898     24900     24902     24901     24903
     24905     24904     24906     24908     24907     24909     24911     24910     24912
     24914     24913     24915     24917     24916     24918     24920     24919     24921
     24923     24922     24924     24926     24925     24927     24929     24928     24930
     24932     24931     24933     24935     24934     24936     24938     24937     24939
     24941     24940     24942     24944     24943     24945     24947     24946     24948
     24950     24949     24951     24953     24952     24954     24956     24955     24957
     24959     24958     24960     24962     24961     24963     24965     24964     24966
     24968     24967     24969     24971     24970     24972     24974     24973     24975
     24977     24976     24978     24980     24979     24981     24983     24982     24984
     24986     24985     24987     24989     24988     24990     24992     24991     24993
     24995     24994     24996     24998     24997     24999     25001     25000     25002
     25004     25003     25005     25007     25006     25008     25010     25009     25011
     25013     25012     25014     25016     25015     25017     25019     25018     25020
     25022     25021     25023     25025     25024     25026     25028     25027     25029
     25031     25030     25032     25034     25033     25035     25037     25036     25038
     25040     25039     25041     25043     25042     25044     25046     25045     25047
     25049     25048     25050     25052     25051     25053     25055     25054     25056
     25058     25057     25059     25061     25060     25062     25064     25063     25065
     25067     25066     25068     25070     25069     25071     25073     25072     25074
     25076     25075     25077     25079     25078     25080     25082     25081     25083
     25085     25084     25086     25088     25087     25089     25091     25090     25092
     25094     25093     25095     25097     25096     25098     25100     25099     25101
     25103     25102     25104     25106     25105     25107     25109     25108     25110
     25112     25111     25113     25115     25114     25116     25118     25117     25119
     25121     25120     25122     25124     25123     25125     25127     25126     25128
     25130     25129     25131     25133     25132     25134     25136     25135     25137
     25139     25138     25140     25142     25141     25143     25145     25144     25146
     25148     25147     25149     25151     25150     25152     25154     25153     25155
     25157     25156     25158     25160     25159     25161     25163     25162     25164
     25166     25165     25167     25169     25168     25170     25172     25171     25173
     25175     25174     25176     25178     25177     25179     25181     25180     25182
     25184     25183     25185     25187     25186     25188     25190     25189     25191
     25193     25192     25194     25196     25195     25197     25199     25198     25200
     25202     25201     25203     25205     25204     25206     25208     25207     25209
     25211     25210     25212     25214     25213     25215     25217     25216     25218
     25220     25219     25221     25223     25222     25224     25226     25225     25227
     25229     25228     25230     25232     25231     25233     25235     25234     25236
     25238     25237     25239     25241     25240     25242     25244     25243     25245
     25247     25246     25248     25250     25249     25251     25253     25252     25254
     25256     25255     25257     25259     25258     25260     25262     25261     25263
     25265     25264     25266     25268     25267     25269     25271     25270     25272
     25274     25273     25275     25277     25276     25278     25280     25279     25281
     25283     25282     25284     25286     25285     25287     25289     25288     25290
     25292     25291     25293     25295     25294     25296     25298     25297     25299
     25301     25300     25302     25304     25303     25305     25307     25306     25308
     25310     25309     25311     25313     25312     25314     25316     25315     25317
     25319     25318     25320     25322     25321     25323     25325     25324     25326
     25328     25327     25329     25331     25330     25332     25334     25333     25335
     25337     25336     25338     25340     25339     25341     25343     25342     25344
     25346     25345     25347     25349     25348     25350     25352     25351     25353
     25355     25354     25356     25358     25357     25359     25361     25360     25362
     25364     25363     25365     25367     25366     25368     25370     25369     25371
     25373     25372     25374     25376     25375     25377     25379     25378     25380
     25382     25381     25383     25385     25384     25386     25388     25387     25389
     25391     25390     25392     25394     25393     25395     25397     25396     25398
     25400     25399     25401     25403     25402     25404     25406     25405     25407
     25409     25408     25410     25412     25411     25413     25415     25414     25416
     25418     25417     25419     25421     25420     25422     25424     25423     25425
     25427     25426     25428     25430     25429     25431     25433     25432     25434
     25436     25435     25437     25439     25438     25440     25442     25441     25443
     25445     25444     25446     25448     25447     25449     25451     25450     25452
     25454     25453     25455     25457     25456     25458     25460     25459     25461
     25463     25462     25464     25466     25465     25467     25469     25468     25470
     25472     25471     25473     25475     25474     25476     25478     25477     25479
     25481     25480     25482     25484     25483     25485     25487     25486     25488
     25490     25489     25491     25493     25492     25494     25496     25495     25497
     25499     25498     25500     25502     25501     25503     25505     25504     25506
     25508     25507     25509     25511     25510     25512     25514     25513     25515
     25517     25516     25518     25520     25519     25521     25523     25522     25524
     25526     25525     25527     25529     25528     25530     25532     25531     25533
     25535     25534     25536     25538     25537     25539     25541     25540     25542
     25544     25543     25545     25547     25546     25548     25550     25549     25551
     25553     25552     25554     25556     25555     25557     25559     25558     25560
     25562     25561     25563     25565     25564     25566     25568     25567     25569
     25571     25570     25572     25574     25573     25575     25577     25576     25578
     25580     25579     25581     25583     25582     25584     25586     25585     25587
     25589     25588     25590     25592     25591     25593     25595     25594     25596
     25598     25597     25599     25601     25600     25602     25604     25603     25605
     25607     25606     25608     25610     25609     25611     25613     25612     25614
     25616     25615     25617     25619     25618     25620     25622     25621     25623
     25625     25624     25626     25628     25627     25629     25631     25630     25632
     25634     25633     25635     25637     25636     25638     25640     25639     25641
     25643     25642     25644     25646     25645     25647     25649     25648     25650
     25652     25651     25653     25655     25654     25656     25658     25657     25659
     25661     25660     25662     25664     25663     25665     25667     25666     25668
     25670     25669     25671     25673     25672     25674     25676     25675     25677
     25679     25678     25680     25682     25681     25683     25685     25684     25686
     25688     25687     25689     25691     25690     25692     25694     25693     25695
     25697     25696     25698     25700     25699     25701     25703     25702     25704
     25706     25705     25707     25709     25708     25710     25712     25711     25713
     25715     25714     25716     25718     25717     25719     25721     25720     25722
     25724     25723     25725     25727     25726     25728     25730     25729     25731
     25733     25732     25734     25736     25735     25737     25739     25738     25740
     25742     25741     25743     25745     25744     25746     25748     25747     25749
     25751     25750     25752     25754     25753     25755     25757     25756     25758
     25760     25759     25761     25763     25762     25764     25766     25765     25767
     25769     25768     25770     25772     25771     25773     25775     25774     25776
     25778     25777     25779     25781     25780     25782     25784     25783     25785
     25787     25786     25788     25790     25789     25791     25793     25792     25794
     25796     25795     25797     25799     25798     25800     25802     25801     25803
     25805     25804     25806     25808     25807     25809     25811     25810     25812
     25814     25813     25815     25817     25816     25818     25820     25819     25821
     25823     25822     25824     25826     25825     25827     25829     25828     25830
     25832     25831     25833     25835     25834     25836     25838     25837     25839
     25841     25840     25842     25844     25843     25845     25847     25846     25848
     25850     25849     25851     25853     25852     25854     25856     25855     25857
     25859     25858     25860     25862     25861     25863     25865     25864     25866
     25868     25867     25869     25871     25870     25872     25874     25873     25875
     25877     25876     25878     25880     25879     25881     25883     25882     25884
     25886     25885     25887     25889     25888     25890     25892     25891     25893
     25895     25894     25896     25898     25897     25899     25901     25900     25902
     25904     25903     25905     25907     25906     25908     25910     25909     25911
     25913     25912     25914     25916     25915     25917     25919     25918     25920
     25922     25921     25923     25925     25924     25926     25928     25927     25929
     25931     25930     25932     25934     25933     25935     25937     25936     25938
     25940     25939     25941     25943     25942     25944     25946     25945     25947
     25949     25948     25950     25952     25951     25953     25955     25954     25956
     25958     25957     25959     25961     25960     25962     25964     25963     25965
     25967     25966     25968     25970     25969     25971     25973     25972     25974
     25976     25975     25977     25979     25978     25980     25982     25981     25983
     25985     25984     25986     25988     25987     25989     25991     25990     25992
     25994     25993     25995     25997     25996     25998     26000     25999     26001
     26003     26002     26004     26006     26005     26007     26009     26008     26010
     26012     26011     26013     26015     26014     26016     26018     26017     26019
     26021     26020     26022     26024     26023     26025     26027     26026     26028
     26030     26029     26031     26033     26032     26034     26036     26035     26037
     26039     26038     26040     26042     26041     26043     26045     26044     26046
     26048     26047     26049     26051     26050     26052     26054     26053     26055
     26057     26056     26058     26060     26059     26061     26063     26062     26064
     26066     26065     26067     26069     26068     26070     26072     26071     26073
     26075     26074     26076     26078     26077     26079     26081     26080     26082
     26084     26083     26085     26087     26086     26088     26090     26089     26091
     26093     26092     26094     26096     26095     26097     26099     26098     26100
     26102     26101     26103     26105     26104     26106     26108     26107     26109
     26111     26110     26112     26114     26113     26115     26117     26116     26118
     26120     26119     26121     26123     26122     26124     26126     26125     26127
     26129     26128     26130     26132     26131     26133     26135     26134     26136
     26138     26137     26139     26141     26140     26142     26144     26143     26145
     26147     26146     26148     26150     26149     26151     26153     26152     26154
     26156     26155     26157     26159     26158     26160     26162     26161     26163
     26165     26164     26166     26168     26167     26169     26171     26170     26172
     26174     26173     26175     26177     26176     26178     26180     26179     26181
     26183     26182     26184     26186     26185     26187     26189     26188     26190
     26192     26191     26193     26195     26194     26196     26198     26197     26199
     26201     26200     26202     26204     26203     26205     26207     26206     26208
     26210     26209     26211     26213     26212     26214     26216     26215     26217
     26219     26218     26220     26222     26221     26223     26225     26224     26226
     26228     26227     26229     26231     26230     26232     26234     26233     26235
     26237     26236     26238     26240     26239     26241     26243     26242     26244
     26246     26245     26247     26249     26248     26250     26252     26251     26253
     26255     26254     26256     26258     26257     26259     26261     26260     26262
     26264     26263     26265     26267     26266     26268     26270     26269     26271
     26273     26272     26274     26276     26275     26277     26279     26278     26280
     26282     26281     26283     26285     26284     26286     26288     26287     26289
     26291     26290     26292     26294     26293     26295     26297     26296     26298
     26300     26299     26301     26303     26302     26304     26306     26305     26307
     26309     26308     26310     26312     26311     26313     26315     26314     26316
     26318     26317     26319     26321     26320     26322     26324     26323     26325
     26327     26326     26328     26330     26329     26331     26333     26332     26334
     26336     26335     26337     26339     26338     26340     26342     26341     26343
     26345     26344     26346     26348     26347     26349     26351     26350     26352
     26354     26353     26355     26357     26356     26358     26360     26359     26361
     26363     26362     26364     26366     26365     26367     26369     26368     26370
     26372     26371     26373     26375     26374     26376     26378     26377     26379
     26381     26380     26382     26384     26383     26385     26387     26386     26388
     26390     26389     26391     26393     26392     26394     26396     26395     26397
     26399     26398     26400     26402     26401     26403     26405     26404     26406
     26408     26407     26409     26411     26410     26412     26414     26413     26415
     26417     26416     26418     26420     26419     26421     26423     26422     26424
     26426     26425     26427     26429     26428     26430     26432     26431     26433
     26435     26434     26436     26438     26437     26439     26441     26440     26442
     26444     26443     26445     26447     26446     26448     26450     26449     26451
     26453     26452     26454     26456     26455     26457     26459     26458     26460
     26462     26461     26463     26465     26464     26466     26468     26467     26469
     26471     26470     26472     26474     26473     26475     26477     26476     26478
     26480     26479     26481     26483     26482     26484     26486     26485     26487
     26489     26488     26490     26492     26491     26493     26495     26494     26496
     26498     26497     26499     26501     26500     26502     26504     26503     26505
     26507     26506     26508     26510     26509     26511     26513     26512     26514
     26516     26515     26517     26519     26518     26520     26522     26521     26523
     26525     26524     26526     26528     26527     26529     26531     26530     26532
     26534     26533     26535     26537     26536     26538     26540     26539     26541
     26543     26542     26544     26546     26545     26547     26549     26548     26550
     26552     26551     26553     26555     26554     26556     26558     26557     26559
     26561     26560     26562     26564     26563     26565     26567     26566     26568
     26570     26569     26571     26573     26572     26574     26576     26575     26577
     26579     26578     26580     26582     26581     26583     26585     26584     26586
     26588     26587     26589     26591     26590     26592     26594     26593     26595
     26597     26596     26598     26600     26599     26601     26603     26602     26604
     26606     26605     26607     26609     26608     26610     26612     26611     26613
     26615     26614     26616     26618     26617     26619     26621     26620     26622
     26624     26623     26625     26627     26626     26628     26630     26629     26631
     26633     26632     26634     26636     26635     26637     26639     26638     26640
     26642     26641     26643     26645     26644     26646     26648     26647     26649
     26651     26650     26652     26654     26653     26655     26657     26656     26658
     26660     26659     26661     26663     26662     26664     26666     26665     26667
     26669     26668     26670     26672     26671     26673     26675     26674     26676
     26678     26677     26679     26681     26680     26682     26684     26683     26685
     26687     26686     26688     26690     26689     26691     26693     26692     26694
     26696     26695     26697     26699     26698     26700     26702     26701     26703
     26705     26704     26706     26708     26707     26709     26711     26710     26712
     26714     26713     26715     26717     26716     26718     26720     26719     26721
     26723     26722     26724     26726     26725     26727     26729     26728     26730
     26732     26731     26733     26735     26734     26736     26738     26737     26739
     26741     26740     26742     26744     26743     26745     26747     26746     26748
     26750     26749     26751     26753     26752     26754     26756     26755     26757
     26759     26758     26760     26762     26761     26763     26765     26764     26766
     26768     26767     26769     26771     26770     26772     26774     26773     26775
     26777     26776     26778     26780     26779     26781     26783     26782     26784
     26786     26785     26787     26789     26788     26790     26792     26791     26793
     26795     26794     26796     26798     26797     26799     26801     26800     26802
     26804     26803     26805     26807     26806     26808     26810     26809     26811
     26813     26812     26814     26816     26815     26817     26819     26818     26820
     26822     26821     26823     26825     26824     26826     26828     26827     26829
     26831     26830     26832     26834     26833     26835     26837     26836     26838
     26840     26839     26841     26843     26842     26844     26846     26845     26847
     26849     26848     26850     26852     26851     26853     26855     26854     26856
     26858     26857     26859     26861     26860     26862     26864     26863     26865
     26867     26866     26868     26870     26869     26871     26873     26872     26874
     26876     26875     26877     26879     26878     26880     26882     26881     26883
     26885     26884     26886     26888     26887     26889     26891     26890     26892
     26894     26893     26895     26897     26896     26898     26900     26899     26901
     26903     26902     26904     26906     26905     26907     26909     26908     26910
     26912     26911     26913     26915     26914     26916     26918     26917     26919
     26921     26920     26922     26924     26923     26925     26927     26926     26928
     26930     26929     26931     26933     26932     26934     26936     26935     26937
     26939     26938     26940     26942     26941     26943     26945     26944     26946
     26948     26947     26949     26951     26950     26952     26954     26953     26955
     26957     26956     26958     26960     26959     26961     26963     26962     26964
     26966     26965     26967     26969     26968     26970     26972     26971     26973
     26975     26974     26976     26978     26977     26979     26981     26980     26982
     26984     26983     26985     26987     26986     26988     26990     26989     26991
     26993     26992     26994     26996     26995     26997     26999     26998     27000
     27002     27001     27003     27005     27004     27006     27008     27007     27009
     27011     27010     27012     27014     27013     27015     27017     27016     27018
     27020     27019     27021     27023     27022     27024     27026     27025     27027
     27029     27028     27030     27032     27031     27033     27035     27034     27036
     27038     27037     27039     27041     27040     27042     27044     27043     27045
     27047     27046     27048     27050     27049     27051     27053     27052     27054
     27056     27055     27057     27059     27058     27060     27062     27061     27063
     27065     27064     27066     27068     27067     27069     27071     27070     27072
     27074     27073     27075     27077     27076     27078     27080     27079     27081
     27083     27082     27084     27086     27085     27087     27089     27088     27090
     27092     27091     27093     27095     27094     27096     27098     27097     27099
     27101     27100     27102     27104     27103     27105     27107     27106     27108
     27110     27109     27111     27113     27112     27114     27116     27115     27117
     27119     27118     27120     27122     27121     27123     27125     27124     27126
     27128     27127     27129     27131     27130     27132     27134     27133     27135
     27137     27136     27138     27140     27139     27141     27143     27142     27144
     27146     27145     27147     27149     27148     27150     27152     27151     27153
     27155     27154     27156     27158     27157     27159     27161     27160     27162
     27164     27163     27165     27167     27166     27168     27170     27169     27171
     27173     27172     27174     27176     27175     27177     27179     27178     27180
     27182     27181     27183     27185     27184     27186     27188     27187     27189
     27191     27190     27192     27194     27193     27195     27197     27196     27198
     27200     27199     27201     27203     27202     27204     27206     27205     27207
     27209     27208     27210     27212     27211     27213     27215     27214     27216
     27218     27217     27219     27221     27220     27222     27224     27223     27225
     27227     27226     27228     27230     27229     27231     27233     27232     27234
     27236     27235     27237     27239     27238     27240     27242     27241     27243
     27245     27244     27246     27248     27247     27249     27251     27250     27252
     27254     27253     27255     27257     27256     27258     27260     27259     27261
     27263     27262     27264     27266     27265     27267     27269     27268     27270
     27272     27271     27273     27275     27274     27276     27278     27277     27279
     27281     27280     27282     27284     27283     27285     27287     27286     27288
     27290     27289     27291     27293     27292     27294     27296     27295     27297
     27299     27298     27300     27302     27301     27303     27305     27304     27306
     27308     27307     27309     27311     27310     27312     27314     27313     27315
     27317     27316     27318     27320     27319     27321     27323     27322     27324
     27326     27325     27327     27329     27328     27330     27332     27331     27333
     27335     27334     27336     27338     27337     27339     27341     27340     27342
     27344     27343     27345     27347     27346     27348     27350     27349     27351
     27353     27352     27354     27356     27355     27357     27359     27358     27360
     27362     27361     27363     27365     27364     27366     27368     27367     27369
     27371     27370     27372     27374     27373     27375     27377     27376     27378
     27380     27379     27381     27383     27382     27384     27386     27385     27387
     27389     27388     27390     27392     27391     27393     27395     27394     27396
     27398     27397     27399     27401     27400     27402     27404     27403     27405
     27407     27406     27408     27410     27409     27411     27413     27412     27414
     27416     27415     27417     27419     27418     27420     27422     27421     27423
     27425     27424     27426     27428     27427     27429     27431     27430     27432
     27434     27433     27435     27437     27436     27438     27440     27439     27441
     27443     27442     27444     27446     27445     27447     27449     27448     27450
     27452     27451     27453     27455     27454     27456     27458     27457     27459
     27461     27460     27462     27464     27463     27465     27467     27466     27468
     27470     27469     27471     27473     27472     27474     27476     27475     27477
     27479     27478     27480     27482     27481     27483     27485     27484     27486
     27488     27487     27489     27491     27490     27492     27494     27493     27495
     27497     27496     27498     27500     27499     27501     27503     27502     27504
     27506     27505     27507     27509     27508     27510     27512     27511     27513
     27515     27514     27516     27518     27517     27519     27521     27520     27522
     27524     27523     27525     27527     27526     27528     27530     27529     27531
     27533     27532     27534     27536     27535     27537     27539     27538     27540
     27542     27541     27543     27545     27544     27546     27548     27547     27549
     27551     27550     27552     27554     27553     27555     27557     27556     27558
     27560     27559     27561     27563     27562     27564     27566     27565     27567
     27569     27568     27570     27572     27571     27573     27575     27574     27576
     27578     27577     27579     27581     27580     27582     27584     27583     27585
     27587     27586     27588     27590     27589     27591     27593     27592     27594
     27596     27595     27597     27599     27598     27600     27602     27601     27603
     27605     27604     27606     27608     27607     27609     27611     27610     27612
     27614     27613     27615     27617     27616     27618     27620     27619     27621
     27623     27622     27624     27626     27625     27627     27629     27628     27630
     27632     27631     27633     27635     27634     27636     27638     27637     27639
     27641     27640     27642     27644     27643     27645     27647     27646     27648
     27650     27649     27651     27653     27652     27654     27656     27655     27657
     27659     27658     27660     27662     27661     27663     27665     27664     27666
     27668     27667     27669     27671     27670     27672     27674     27673     27675
     27677     27676     27678     27680     27679     27681     27683     27682     27684
     27686     27685     27687     27689     27688     27690     27692     27691     27693
     27695     27694     27696     27698     27697     27699     27701     27700     27702
     27704     27703     27705     27707     27706     27708     27710     27709     27711
     27713     27712     27714     27716     27715     27717     27719     27718     27720
     27722     27721     27723     27725     27724     27726     27728     27727     27729
     27731     27730     27732     27734     27733     27735     27737     27736     27738
     27740     27739     27741     27743     27742     27744     27746     27745     27747
     27749     27748     27750     27752     27751     27753     27755     27754     27756
     27758     27757     27759     27761     27760     27762     27764     27763     27765
     27767     27766     27768     27770     27769     27771     27773     27772     27774
     27776     27775     27777     27779     27778     27780     27782     27781     27783
     27785     27784     27786     27788     27787     27789     27791     27790     27792
     27794     27793     27795     27797     27796     27798     27800     27799     27801
     27803     27802     27804     27806     27805     27807     27809     27808     27810
     27812     27811     27813     27815     27814     27816     27818     27817     27819
     27821     27820     27822     27824     27823     27825     27827     27826     27828
     27830     27829     27831     27833     27832     27834     27836     27835     27837
     27839     27838     27840     27842     27841     27843     27845     27844     27846
     27848     27847     27849     27851     27850     27852     27854     27853     27855
     27857     27856     27858     27860     27859     27861     27863     27862     27864
     27866     27865     27867     27869     27868     27870     27872     27871     27873
     27875     27874     27876     27878     27877     27879     27881     27880     27882
     27884     27883     27885     27887     27886     27888     27890     27889     27891
     27893     27892     27894     27896     27895     27897     27899     27898     27900
     27902     27901     27903     27905     27904     27906     27908     27907     27909
     27911     27910     27912     27914     27913     27915     27917     27916     27918
     27920     27919     27921     27923     27922     27924     27926     27925     27927
     27929     27928     27930     27932     27931     27933     27935     27934     27936
     27938     27937     27939     27941     27940     27942     27944     27943     27945
     27947     27946     27948     27950     27949     27951     27953     27952     27954
     27956     27955     27957     27959     27958     27960     27962     27961     27963
     27965     27964     27966     27968     27967     27969     27971     27970     27972
     27974     27973     27975     27977     27976     27978     27980     27979     27981
     27983     27982     27984     27986     27985     27987     27989     27988     27990
     27992     27991     27993     27995     27994     27996     27998     27997     27999
     28001     28000     28002     28004     28003     28005     28007     28006     28008
     28010     28009     28011     28013     28012     28014     28016     28015     28017
     28019     28018     28020     28022     28021     28023     28025     28024     28026
     28028     28027     28029     28031     28030     28032     28034     28033     28035
     28037     28036     28038     28040     28039     28041     28043     28042     28044
     28046     28045     28047     28049     28048     28050     28052     28051     28053
     28055     28054     28056     28058     28057     28059     28061     28060     28062
     28064     28063     28065     28067     28066     28068     28070     28069     28071
     28073     28072     28074     28076     28075     28077     28079     28078     28080
     28082     28081     28083     28085     28084     28086     28088     28087     28089
     28091     28090     28092     28094     28093     28095     28097     28096     28098
     28100     28099     28101     28103     28102     28104     28106     28105     28107
     28109     28108     28110     28112     28111     28113     28115     28114     28116
     28118     28117     28119     28121     28120     28122     28124     28123     28125
     28127     28126     28128     28130     28129     28131     28133     28132     28134
     28136     28135     28137     28139     28138     28140     28142     28141     28143
     28145     28144     28146     28148     28147     28149     28151     28150     28152
     28154     28153     28155     28157     28156     28158     28160     28159     28161
     28163     28162     28164     28166     28165     28167     28169     28168     28170
     28172     28171     28173     28175     28174     28176     28178     28177     28179
     28181     28180     28182     28184     28183     28185     28187     28186     28188
     28190     28189     28191     28193     28192     28194     28196     28195     28197
     28199     28198     28200     28202     28201     28203     28205     28204     28206
     28208     28207     28209     28211     28210     28212     28214     28213     28215
     28217     28216     28218     28220     28219     28221     28223     28222     28224
     28226     28225     28227     28229     28228     28230     28232     28231     28233
     28235     28234     28236     28238     28237     28239     28241     28240     28242
     28244     28243     28245     28247     28246     28248     28250     28249     28251
     28253     28252     28254     28256     28255     28257     28259     28258     28260
     28262     28261     28263     28265     28264     28266     28268     28267     28269
     28271     28270     28272     28274     28273     28275     28277     28276     28278
     28280     28279     28281     28283     28282     28284     28286     28285     28287
     28289     28288     28290     28292     28291     28293     28295     28294     28296
     28298     28297     28299     28301     28300     28302     28304     28303     28305
     28307     28306     28308     28310     28309     28311     28313     28312     28314
     28316     28315     28317     28319     28318     28320     28322     28321     28323
     28325     28324     28326     28328     28327     28329     28331     28330     28332
     28334     28333     28335     28337     28336     28338     28340     28339     28341
     28343     28342     28344     28346     28345     28347     28349     28348     28350
     28352     28351     28353     28355     28354     28356     28358     28357     28359
     28361     28360     28362     28364     28363     28365     28367     28366     28368
     28370     28369     28371     28373     28372     28374     28376     28375     28377
     28379     28378     28380     28382     28381     28383     28385     28384     28386
     28388     28387     28389     28391     28390     28392     28394     28393     28395
     28397     28396     28398     28400     28399     28401     28403     28402     28404
     28406     28405     28407     28409     28408     28410     28412     28411     28413
     28415     28414     28416     28418     28417     28419     28421     28420     28422
     28424     28423     28425     28427     28426     28428     28430     28429     28431
     28433     28432     28434     28436     28435     28437     28439     28438     28440
     28442     28441     28443     28445     28444     28446     28448     28447     28449
     28451     28450     28452     28454     28453     28455     28457     28456     28458
     28460     28459     28461     28463     28462     28464     28466     28465     28467
     28469     28468     28470     28472     28471     28473     28475     28474     28476
     28478     28477     28479     28481     28480     28482     28484     28483     28485
     28487     28486     28488     28490     28489     28491     28493     28492     28494
     28496     28495     28497     28499     28498     28500     28502     28501     28503
     28505     28504     28506     28508     28507     28509     28511     28510     28512
     28514     28513     28515     28517     28516     28518     28520     28519     28521
     28523     28522     28524     28526     28525     28527     28529     28528     28530
     28532     28531     28533     28535     28534     28536     28538     28537     28539
     28541     28540     28542     28544     28543     28545     28547     28546     28548
     28550     28549     28551     28553     28552     28554     28556     28555     28557
     28559     28558     28560     28562     28561     28563     28565     28564     28566
     28568     28567     28569     28571     28570     28572     28574     28573     28575
     28577     28576     28578     28580     28579     28581     28583     28582     28584
     28586     28585     28587     28589     28588     28590     28592     28591     28593
     28595     28594     28596     28598     28597     28599     28601     28600     28602
     28604     28603     28605     28607     28606     28608     28610     28609     28611
     28613     28612     28614     28616     28615     28617     28619     28618     28620
     28622     28621     28623     28625     28624     28626     28628     28627     28629
     28631     28630     28632     28634     28633     28635     28637     28636     28638
     28640     28639     28641     28643     28642     28644     28646     28645     28647
     28649     28648     28650     28652     28651     28653     28655     28654     28656
     28658     28657     28659     28661     28660     28662     28664     28663     28665
     28667     28666     28668     28670     28669     28671     28673     28672     28674
     28676     28675     28677     28679     28678     28680     28682     28681     28683
     28685     28684     28686     28688     28687     28689     28691     28690     28692
     28694     28693     28695     28697     28696     28698     28700     28699     28701
     28703     28702     28704     28706     28705     28707     28709     28708     28710
     28712     28711     28713     28715     28714     28716     28718     28717     28719
     28721     28720     28722     28724     28723     28725     28727     28726     28728
     28730     28729     28731     28733     28732     28734     28736     28735     28737
     28739     28738     28740     28742     28741     28743     28745     28744     28746
     28748     28747     28749     28751     28750     28752     28754     28753     28755
     28757     28756     28758     28760     28759     28761     28763     28762     28764
     28766     28765     28767     28769     28768     28770     28772     28771     28773
     28775     28774     28776     28778     28777     28779     28781     28780     28782
     28784     28783     28785     28787     28786     28788     28790     28789     28791
     28793     28792     28794     28796     28795     28797     28799     28798     28800
     28802     28801     28803     28805     28804     28806     28808     28807     28809
     28811     28810     28812     28814     28813     28815     28817     28816     28818
     28820     28819     28821     28823     28822     28824     28826     28825     28827
     28829     28828     28830     28832     28831     28833     28835     28834     28836
     28838     28837     28839     28841     28840     28842     28844     28843     28845
     28847     28846     28848     28850     28849     28851     28853     28852     28854
     28856     28855     28857     28859     28858     28860     28862     28861     28863
     28865     28864     28866     28868     28867     28869     28871     28870     28872
     28874     28873     28875     28877     28876     28878     28880     28879     28881
     28883     28882     28884     28886     28885     28887     28889     28888     28890
     28892     28891     28893     28895     28894     28896     28898     28897     28899
     28901     28900     28902     28904     28903     28905     28907     28906     28908
     28910     28909     28911     28913     28912     28914     28916     28915     28917
     28919     28918     28920     28922     28921     28923     28925     28924     28926
     28928     28927     28929     28931     28930     28932     28934     28933     28935
     28937     28936     28938     28940     28939     28941     28943     28942     28944
     28946     28945     28947     28949     28948     28950     28952     28951     28953
     28955     28954     28956     28958     28957     28959     28961     28960     28962
     28964     28963     28965     28967     28966     28968     28970     28969     28971
     28973     28972     28974     28976     28975     28977     28979     28978     28980
     28982     28981     28983     28985     28984     28986     28988     28987     28989
     28991     28990     28992     28994     28993     28995     28997     28996     28998
     29000     28999     29001     29003     29002     29004     29006     29005     29007
     29009     29008     29010     29012     29011     29013     29015     29014     29016
     29018     29017     29019     29021     29020     29022     29024     29023     29025
     29027     29026     29028     29030     29029     29031     29033     29032     29034
     29036     29035     29037     29039     29038     29040     29042     29041     29043
     29045     29044     29046     29048     29047     29049     29051     29050     29052
     29054     29053     29055     29057     29056     29058     29060     29059     29061
     29063     29062     29064     29066     29065     29067     29069     29068     29070
     29072     29071     29073     29075     29074     29076     29078     29077     29079
     29081     29080     29082     29084     29083     29085     29087     29086     29088
     29090     29089     29091     29093     29092     29094     29096     29095     29097
     29099     29098     29100     29102     29101     29103     29105     29104     29106
     29108     29107     29109     29111     29110     29112     29114     29113     29115
     29117     29116     29118     29120     29119     29121     29123     29122     29124
     29126     29125     29127     29129     29128     29130     29132     29131     29133
     29135     29134     29136     29138     29137     29139     29141     29140     29142
     29144     29143     29145     29147     29146     29148     29150     29149     29151
     29153     29152     29154     29156     29155     29157     29159     29158     29160
     29162     29161     29163     29165     29164     29166     29168     29167     29169
     29171     29170     29172     29174     29173     29175     29177     29176     29178
     29180     29179     29181     29183     29182     29184     29186     29185     29187
     29189     29188     29190     29192     29191     29193     29195     29194     29196
     29198     29197     29199     29201     29200     29202     29204     29203     29205
     29207     29206     29208     29210     29209     29211     29213     29212     29214
     29216     29215     29217     29219     29218     29220     29222     29221     29223
     29225     29224     29226     29228     29227     29229     29231     29230     29232
     29234     29233     29235     29237     29236     29238     29240     29239     29241
     29243     29242     29244     29246     29245     29247     29249     29248     29250
     29252     29251     29253     29255     29254     29256     29258     29257     29259
     29261     29260     29262     29264     29263     29265     29267     29266     29268
     29270     29269     29271     29273     29272     29274     29276     29275     29277
     29279     29278     29280     29282     29281     29283     29285     29284     29286
     29288     29287     29289     29291     29290     29292     29294     29293     29295
     29297     29296     29298     29300     29299     29301     29303     29302     29304
     29306     29305     29307     29309     29308     29310     29312     29311     29313
     29315     29314     29316     29318     29317     29319     29321     29320     29322
     29324     29323     29325     29327     29326     29328     29330     29329     29331
     29333     29332     29334     29336     29335     29337     29339     29338     29340
     29342     29341     29343     29345     29344     29346     29348     29347     29349
     29351     29350     29352     29354     29353     29355     29357     29356     29358
     29360     29359     29361     29363     29362     29364     29366     29365     29367
     29369     29368     29370     29372     29371     29373     29375     29374     29376
     29378     29377     29379     29381     29380     29382     29384     29383     29385
     29387     29386     29388     29390     29389     29391     29393     29392     29394
     29396     29395     29397     29399     29398     29400     29402     29401     29403
     29405     29404     29406     29408     29407     29409     29411     29410     29412
     29414     29413     29415     29417     29416     29418     29420     29419     29421
     29423     29422     29424     29426     29425     29427     29429     29428     29430
     29432     29431     29433     29435     29434     29436     29438     29437     29439
     29441     29440     29442     29444     29443     29445     29447     29446     29448
     29450     29449     29451     29453     29452     29454     29456     29455     29457
     29459     29458     29460     29462     29461     29463     29465     29464     29466
     29468     29467     29469     29471     29470     29472     29474     29473     29475
     29477     29476     29478     29480     29479     29481     29483     29482     29484
     29486     29485     29487     29489     29488     29490     29492     29491     29493
     29495     29494     29496     29498     29497     29499     29501     29500     29502
     29504     29503     29505     29507     29506     29508     29510     29509     29511
     29513     29512     29514     29516     29515     29517     29519     29518     29520
     29522     29521     29523     29525     29524     29526     29528     29527     29529
     29531     29530     29532     29534     29533     29535     29537     29536     29538
     29540     29539     29541     29543     29542     29544     29546     29545     29547
     29549     29548     29550     29552     29551     29553     29555     29554     29556
     29558     29557     29559     29561     29560     29562     29564     29563     29565
     29567     29566     29568     29570     29569     29571     29573     29572     29574
     29576     29575     29577     29579     29578     29580     29582     29581     29583
     29585     29584     29586     29588     29587     29589     29591     29590     29592
     29594     29593     29595     29597     29596     29598     29600     29599     29601
     29603     29602     29604     29606     29605     29607     29609     29608     29610
     29612     29611     29613     29615     29614     29616     29618     29617     29619
     29621     29620     29622     29624     29623     29625     29627     29626     29628
     29630     29629     29631     29633     29632     29634     29636     29635     29637
     29639     29638     29640     29642     29641     29643     29645     29644     29646
     29648     29647     29649     29651     29650     29652     29654     29653     29655
     29657     29656     29658     29660     29659     29661     29663     29662     29664
     29666     29665     29667     29669     29668     29670     29672     29671     29673
     29675     29674     29676     29678     29677     29679     29681     29680     29682
     29684     29683     29685     29687     29686     29688     29690     29689     29691
     29693     29692     29694     29696     29695     29697     29699     29698     29700
     29702     29701     29703     29705     29704     29706     29708     29707     29709
     29711     29710     29712     29714     29713     29715     29717     29716     29718
     29720     29719     29721     29723     29722     29724     29726     29725     29727
     29729     29728     29730     29732     29731     29733     29735     29734     29736
     29738     29737     29739     29741     29740     29742     29744     29743     29745
     29747     29746     29748     29750     29749     29751     29753     29752     29754
     29756     29755     29757     29759     29758     29760     29762     29761     29763
     29765     29764     29766     29768     29767     29769     29771     29770     29772
     29774     29773     29775     29777     29776     29778     29780     29779     29781
     29783     29782     29784     29786     29785     29787     29789     29788     29790
     29792     29791     29793     29795     29794     29796     29798     29797     29799
     29801     29800     29802     29804     29803     29805     29807     29806     29808
     29810     29809     29811     29813     29812     29814     29816     29815     29817
     29819     29818     29820     29822     29821     29823     29825     29824     29826
     29828     29827     29829     29831     29830     29832     29834     29833     29835
     29837     29836     29838     29840     29839     29841     29843     29842     29844
     29846     29845     29847     29849     29848     29850     29852     29851     29853
     29855     29854     29856     29858     29857     29859     29861     29860     29862
     29864     29863     29865     29867     29866     29868     29870     29869     29871
     29873     29872     29874     29876     29875     29877     29879     29878     29880
     29882     29881     29883     29885     29884     29886     29888     29887     29889
     29891     29890     29892     29894     29893     29895     29897     29896     29898
     29900     29899     29901     29903     29902     29904     29906     29905     29907
     29909     29908     29910     29912     29911     29913     29915     29914     29916
     29918     29917     29919     29921     29920     29922     29924     29923     29925
     29927     29926     29928     29930     29929     29931     29933     29932     29934
     29936     29935     29937     29939     29938     29940     29942     29941     29943
     29945     29944     29946     29948     29947     29949     29951     29950     29952
     29954     29953     29955     29957     29956     29958     29960     29959     29961
     29963     29962     29964     29966     29965     29967     29969     29968     29970
     29972     29971     29973     29975     29974     29976     29978     29977     29979
     29981     29980     29982     29984     29983     29985     29987     29986     29988
     29990     29989     29991     29993     29992     29994     29996     29995     29997
     29999     29998     30000     30002     30001     30003     30005     30004     30006
     30008     30007     30009     30011     30010     30012     30014     30013     30015
     30017     30016     30018     30020     30019     30021     30023     30022     30024
     30026     30025     30027     30029     30028     30030     30032     30031     30033
     30035     30034     30036     30038     30037     30039     30041     30040     30042
     30044     30043     30045     30047     30046     30048     30050     30049     30051
     30053     30052     30054     30056     30055     30057     30059     30058     30060
     30062     30061     30063     30065     30064     30066     30068     30067     30069
     30071     30070     30072     30074     30073     30075     30077     30076     30078
     30080     30079     30081     30083     30082     30084     30086     30085     30087
     30089     30088     30090     30092     30091     30093     30095     30094     30096
     30098     30097     30099     30101     30100     30102     30104     30103     30105
     30107     30106     30108     30110     30109     30111     30113     30112     30114
     30116     30115     30117     30119     30118     30120     30122     30121     30123
     30125     30124     30126     30128     30127     30129     30131     30130     30132
     30134     30133     30135     30137     30136     30138     30140     30139     30141
     30143     30142     30144     30146     30145     30147     30149     30148     30150
     30152     30151     30153     30155     30154     30156     30158     30157     30159
     30161     30160     30162     30164     30163     30165     30167     30166     30168
     30170     30169     30171     30173     30172     30174     30176     30175     30177
     30179     30178     30180     30182     30181     30183     30185     30184     30186
     30188     30187     30189     30191     30190     30192     30194     30193     30195
     30197     30196     30198     30200     30199     30201     30203     30202     30204
     30206     30205     30207     30209     30208     30210     30212     30211     30213
     30215     30214     30216     30218     30217     30219     30221     30220     30222
     30224     30223     30225     30227     30226     30228     30230     30229     30231
     30233     30232     30234     30236     30235     30237     30239     30238     30240
     30242     30241     30243     30245     30244     30246     30248     30247     30249
     30251     30250     30252     30254     30253     30255     30257     30256     30258
     30260     30259     30261     30263     30262     30264     30266     30265     30267
     30269     30268     30270     30272     30271     30273     30275     30274     30276
     30278     30277     30279     30281     30280     30282     30284     30283     30285
     30287     30286     30288     30290     30289     30291     30293     30292     30294
     30296     30295     30297     30299     30298     30300     30302     30301     30303
     30305     30304     30306     30308     30307     30309     30311     30310     30312
     30314     30313     30315     30317     30316     30318     30320     30319     30321
     30323     30322     30324     30326     30325     30327     30329     30328     30330
     30332     30331     30333     30335     30334     30336     30338     30337     30339
     30341     30340     30342     30344     30343     30345     30347     30346     30348
     30350     30349     30351     30353     30352     30354     30356     30355     30357
     30359     30358     30360     30362     30361     30363     30365     30364     30366
     30368     30367     30369     30371     30370     30372     30374     30373     30375
     30377     30376     30378     30380     30379     30381     30383     30382     30384
     30386     30385     30387     30389     30388     30390     30392     30391     30393
     30395     30394     30396     30398     30397     30399     30401     30400     30402
     30404     30403     30405     30407     30406     30408     30410     30409     30411
     30413     30412     30414     30416     30415     30417     30419     30418     30420
     30422     30421     30423     30425     30424     30426     30428     30427     30429
     30431     30430     30432     30434     30433     30435     30437     30436     30438
     30440     30439     30441     30443     30442     30444     30446     30445     30447
     30449     30448     30450     30452     30451     30453     30455     30454     30456
     30458     30457     30459     30461     30460     30462     30464     30463     30465
     30467     30466     30468     30470     30469     30471     30473     30472     30474
     30476     30475     30477     30479     30478     30480     30482     30481     30483
     30485     30484     30486     30488     30487     30489     30491     30490     30492
     30494     30493     30495     30497     30496     30498     30500     30499     30501
     30503     30502     30504     30506     30505     30507     30509     30508     30510
     30512     30511     30513     30515     30514     30516     30518     30517     30519
     30521     30520     30522     30524     30523     30525     30527     30526     30528
     30530     30529     30531     30533     30532     30534     30536     30535     30537
     30539     30538     30540     30542     30541     30543     30545     30544     30546
     30548     30547     30549     30551     30550     30552     30554     30553     30555
     30557     30556     30558     30560     30559     30561     30563     30562     30564
     30566     30565     30567     30569     30568     30570     30572     30571     30573
     30575     30574     30576     30578     30577     30579     30581     30580     30582
     30584     30583     30585     30587     30586     30588     30590     30589     30591
     30593     30592     30594     30596     30595     30597     30599     30598     30600
     30602     30601     30603     30605     30604     30606     30608     30607     30609
     30611     30610     30612     30614     30613     30615     30617     30616     30618
     30620     30619     30621     30623     30622     30624     30626     30625     30627
     30629     30628     30630     30632     30631     30633     30635     30634     30636
     30638     30637     30639     30641     30640     30642     30644     30643     30645
     30647     30646     30648     30650     30649     30651     30653     30652     30654
     30656     30655     30657     30659     30658     30660     30662     30661     30663
     30665     30664     30666     30668     30667     30669     30671     30670     30672
     30674     30673     30675     30677     30676     30678     30680     30679     30681
     30683     30682     30684     30686     30685     30687     30689     30688     30690
     30692     30691     30693     30695     30694     30696     30698     30697     30699
     30701     30700     30702     30704     30703     30705     30707     30706     30708
     30710     30709     30711     30713     30712     30714     30716     30715     30717
     30719     30718     30720     30722     30721     30723     30725     30724     30726
     30728     30727     30729     30731     30730     30732     30734     30733     30735
     30737     30736     30738     30740     30739     30741     30743     30742     30744
     30746     30745     30747     30749     30748     30750     30752     30751     30753
     30755     30754     30756     30758     30757     30759     30761     30760     30762
     30764     30763     30765     30767     30766     30768     30770     30769     30771
     30773     30772     30774     30776     30775     30777     30779     30778     30780
     30782     30781     30783     30785     30784     30786     30788     30787     30789
     30791     30790     30792     30794     30793     30795     30797     30796     30798
     30800     30799     30801     30803     30802     30804     30806     30805     30807
     30809     30808     30810     30812     30811     30813     30815     30814     30816
     30818     30817     30819     30821     30820     30822     30824     30823     30825
     30827     30826     30828     30830     30829     30831     30833     30832     30834
     30836     30835     30837     30839     30838     30840     30842     30841     30843
     30845     30844     30846     30848     30847     30849     30851     30850     30852
     30854     30853     30855     30857     30856     30858     30860     30859     30861
     30863     30862     30864     30866     30865     30867     30869     30868     30870
     30872     30871     30873     30875     30874     30876     30878     30877     30879
     30881     30880     30882     30884     30883     30885     30887     30886     30888
     30890     30889     30891     30893     30892     30894     30896     30895     30897
     30899     30898     30900     30902     30901     30903     30905     30904     30906
     30908     30907     30909     30911     30910     30912     30914     30913     30915
     30917     30916     30918     30920     30919     30921     30923     30922     30924
     30926     30925     30927     30929     30928     30930     30932     30931     30933
     30935     30934     30936     30938     30937     30939     30941     30940     30942
     30944     30943     30945     30947     30946     30948     30950     30949     30951
     30953     30952     30954     30956     30955     30957     30959     30958     30960
     30962     30961     30963     30965     30964     30966     30968     30967     30969
     30971     30970     30972     30974     30973     30975     30977     30976     30978
     30980     30979     30981     30983     30982     30984     30986     30985     30987
     30989     30988     30990     30992     30991     30993     30995     30994     30996
     30998     30997     30999     31001     31000     31002     31004     31003     31005
     31007     31006     31008     31010     31009     31011     31013     31012     31014
     31016     31015     31017     31019     31018     31020     31022     31021     31023
     31025     31024     31026     31028     31027     31029     31031     31030     31032
     31034     31033     31035     31037     31036     31038     31040     31039     31041
     31043     31042     31044     31046     31045     31047     31049     31048     31050
     31052     31051     31053     31055     31054     31056     31058     31057     31059
     31061     31060     31062     31064     31063     31065     31067     31066     31068
     31070     31069     31071     31073     31072     31074     31076     31075     31077
     31079     31078     31080     31082     31081     31083     31085     31084     31086
     31088     31087     31089     31091     31090     31092     31094     31093     31095
     31097     31096     31098     31100     31099     31101     31103     31102     31104
     31106     31105     31107     31109     31108     31110     31112     31111     31113
     31115     31114     31116     31118     31117     31119     31121     31120     31122
     31124     31123     31125     31127     31126     31128     31130     31129     31131
     31133     31132     31134     31136     31135     31137     31139     31138     31140
     31142     31141     31143     31145     31144     31146     31148     31147     31149
     31151     31150     31152     31154     31153     31155     31157     31156     31158
     31160     31159     31161     31163     31162     31164     31166     31165     31167
     31169     31168     31170     31172     31171     31173     31175     31174     31176
     31178     31177     31179     31181     31180     31182     31184     31183     31185
     31187     31186     31188     31190     31189     31191     31193     31192     31194
     31196     31195     31197     31199     31198     31200     31202     31201     31203
     31205     31204     31206     31208     31207     31209     31211     31210     31212
     31214     31213     31215     31217     31216     31218     31220     31219     31221
     31223     31222     31224     31226     31225     31227     31229     31228     31230
     31232     31231     31233     31235     31234     31236     31238     31237     31239
     31241     31240     31242     31244     31243     31245     31247     31246     31248
     31250     31249     31251     31253     31252     31254     31256     31255     31257
     31259     31258     31260     31262     31261     31263     31265     31264     31266
     31268     31267     31269     31271     31270     31272     31274     31273     31275
     31277     31276     31278     31280     31279     31281     31283     31282     31284
     31286     31285     31287     31289     31288     31290     31292     31291     31293
     31295     31294     31296     31298     31297     31299     31301     31300     31302
     31304     31303     31305     31307     31306     31308     31310     31309     31311
     31313     31312     31314     31316     31315     31317     31319     31318     31320
     31322     31321     31323     31325     31324     31326     31328     31327     31329
     31331     31330     31332     31334     31333     31335     31337     31336     31338
     31340     31339     31341     31343     31342     31344     31346     31345     31347
     31349     31348     31350     31352     31351     31353     31355     31354     31356
     31358     31357     31359     31361     31360     31362     31364     31363     31365
     31367     31366     31368     31370     31369     31371     31373     31372     31374
     31376     31375     31377     31379     31378     31380     31382     31381     31383
     31385     31384     31386     31388     31387     31389     31391     31390     31392
     31394     31393     31395     31397     31396     31398     31400     31399     31401
     31403     31402     31404     31406     31405     31407     31409     31408     31410
     31412     31411     31413     31415     31414     31416     31418     31417     31419
     31421     31420     31422     31424     31423     31425     31427     31426     31428
     31430     31429     31431     31433     31432     31434     31436     31435     31437
     31439     31438     31440     31442     31441     31443     31445     31444     31446
     31448     31447     31449     31451     31450     31452     31454     31453     31455
     31457     31456     31458     31460     31459     31461     31463     31462     31464
     31466     31465     31467     31469     31468     31470     31472     31471     31473
     31475     31474     31476     31478     31477     31479     31481     31480     31482
     31484     31483     31485     31487     31486     31488     31490     31489     31491
     31493     31492     31494     31496     31495     31497     31499     31498     31500
     31502     31501     31503     31505     31504     31506     31508     31507     31509
     31511     31510     31512     31514     31513     31515     31517     31516     31518
     31520     31519     31521     31523     31522     31524     31526     31525     31527
     31529     31528     31530     31532     31531     31533     31535     31534     31536
     31538     31537     31539     31541     31540     31542     31544     31543     31545
     31547     31546     31548     31550     31549     31551     31553     31552     31554
     31556     31555     31557     31559     31558     31560     31562     31561     31563
     31565     31564     31566     31568     31567     31569     31571     31570     31572
     31574     31573     31575     31577     31576     31578     31580     31579     31581
     31583     31582     31584     31586     31585     31587     31589     31588     31590
     31592     31591     31593     31595     31594     31596     31598     31597     31599
     31601     31600     31602     31604     31603     31605     31607     31606     31608
     31610     31609     31611     31613     31612     31614     31616     31615     31617
     31619     31618     31620     31622     31621     31623     31625     31624     31626
     31628     31627     31629     31631     31630     31632     31634     31633     31635
     31637     31636     31638     31640     31639     31641     31643     31642     31644
     31646     31645     31647     31649     31648     31650     31652     31651     31653
     31655     31654     31656     31658     31657     31659     31661     31660     31662
     31664     31663     31665     31667     31666     31668     31670     31669     31671
     31673     31672     31674     31676     31675     31677     31679     31678     31680
     31682     31681     31683     31685     31684     31686     31688     31687     31689
     31691     31690     31692     31694     31693     31695     31697     31696     31698
     31700     31699     31701     31703     31702     31704     31706     31705     31707
     31709     31708     31710     31712     31711     31713     31715     31714     31716
     31718     31717     31719     31721     31720     31722     31724     31723     31725
     31727     31726     31728     31730     31729     31731     31733     31732     31734
     31736     31735     31737     31739     31738     31740     31742     31741     31743
     31745     31744     31746     31748     31747     31749     31751     31750     31752
     31754     31753     31755     31757     31756     31758     31760     31759     31761
     31763     31762     31764     31766     31765     31767     31769     31768     31770
     31772     31771     31773     31775     31774     31776     31778     31777     31779
     31781     31780     31782     31784     31783     31785     31787     31786     31788
     31790     31789     31791     31793     31792     31794     31796     31795     31797
     31799     31798     31800     31802     31801     31803     31805     31804     31806
     31808     31807     31809     31811     31810     31812     31814     31813     31815
     31817     31816     31818     31820     31819     31821     31823     31822     31824
     31826     31825     31827     31829     31828     31830     31832     31831     31833
     31835     31834     31836     31838     31837     31839     31841     31840     31842
     31844     31843     31845     31847     31846     31848     31850     31849     31851
     31853     31852     31854     31856     31855     31857     31859     31858     31860
     31862     31861     31863     31865     31864     31866     31868     31867     31869
     31871     31870     31872     31874     31873     31875     31877     31876     31878
     31880     31879     31881     31883     31882     31884     31886     31885     31887
     31889     31888     31890     31892     31891     31893     31895     31894     31896
     31898     31897     31899     31901     31900     31902     31904     31903     31905
     31907     31906     31908     31910     31909     31911     31913     31912     31914
     31916     31915     31917     31919     31918     31920     31922     31921     31923
     31925     31924     31926     31928     31927     31929     31931     31930     31932
     31934     31933     31935     31937     31936     31938     31940     31939     31941
     31943     31942     31944     31946     31945     31947     31949     31948     31950
     31952     31951     31953     31955     31954     31956     31958     31957     31959
     31961     31960     31962     31964     31963     31965     31967     31966     31968
     31970     31969     31971     31973     31972     31974     31976     31975     31977
     31979     31978     31980     31982     31981     31983     31985     31984     31986
     31988     31987     31989     31991     31990     31992     31994     31993     31995
     31997     31996     31998     32000     31999     32001     32003     32002     32004
     32006     32005     32007     32009     32008     32010     32012     32011     32013
     32015     32014     32016     32018     32017     32019     32021     32020     32022
     32024     32023     32025     32027     32026     32028     32030     32029     32031
     32033     32032     32034     32036     32035     32037     32039     32038     32040
     32042     32041     32043     32045     32044     32046     32048     32047     32049
     32051     32050     32052     32054     32053     32055     32057     32056     32058
     32060     32059     32061     32063     32062     32064     32066     32065     32067
     32069     32068     32070     32072     32071     32073     32075     32074     32076
     32078     32077     32079     32081     32080     32082     32084     32083     32085
     32087     32086     32088     32090     32089     32091     32093     32092     32094
     32096     32095     32097     32099     32098     32100     32102     32101     32103
     32105     32104     32106     32108     32107     32109     32111     32110     32112
     32114     32113     32115     32117     32116     32118     32120     32119     32121
     32123     32122     32124     32126     32125     32127     32129     32128     32130
     32132     32131     32133     32135     32134     32136     32138     32137     32139
     32141     32140     32142     32144     32143     32145     32147     32146     32148
     32150     32149     32151     32153     32152     32154     32156     32155     32157
     32159     32158     32160     32162     32161     32163     32165     32164     32166
     32168     32167     32169     32171     32170     32172     32174     32173     32175
     32177     32176     32178     32180     32179     32181     32183     32182     32184
     32186     32185     32187     32189     32188     32190     32192     32191     32193
     32195     32194     32196     32198     32197     32199     32201     32200     32202
     32204     32203     32205     32207     32206     32208     32210     32209     32211
     32213     32212     32214     32216     32215     32217     32219     32218     32220
     32222     32221     32223     32225     32224     32226     32228     32227     32229
     32231     32230     32232     32234     32233     32235     32237     32236     32238
     32240     32239     32241     32243     32242     32244     32246     32245     32247
     32249     32248     32250     32252     32251     32253     32255     32254     32256
     32258     32257     32259     32261     32260     32262     32264     32263     32265
     32267     32266     32268     32270     32269     32271     32273     32272     32274
     32276     32275     32277     32279     32278     32280     32282     32281     32283
     32285     32284     32286     32288     32287     32289     32291     32290     32292
     32294     32293     32295     32297     32296     32298     32300     32299     32301
     32303     32302     32304     32306     32305     32307     32309     32308     32310
     32312     32311     32313     32315     32314     32316     32318     32317     32319
     32321     32320     32322     32324     32323     32325     32327     32326     32328
     32330     32329     32331     32333     32332     32334     32336     32335     32337
     32339     32338     32340     32342     32341     32343     32345     32344     32346
     32348     32347     32349     32351     32350     32352     32354     32353     32355
     32357     32356     32358     32360     32359     32361     32363     32362     32364
     32366     32365     32367     32369     32368     32370     32372     32371     32373
     32375     32374     32376     32378     32377     32379     32381     32380     32382
     32384     32383     32385     32387     32386     32388     32390     32389     32391
     32393     32392     32394     32396     32395     32397     32399     32398     32400
     32402     32401     32403     32405     32404     32406     32408     32407     32409
     32411     32410     32412     32414     32413     32415     32417     32416     32418
     32420     32419     32421     32423     32422     32424     32426     32425     32427
     32429     32428     32430     32432     32431     32433     32435     32434     32436
     32438     32437     32439     32441     32440     32442     32444     32443     32445
     32447     32446     32448     32450     32449     32451     32453     32452     32454
     32456     32455     32457     32459     32458     32460     32462     32461     32463
     32465     32464     32466     32468     32467     32469     32471     32470     32472
     32474     32473     32475     32477     32476     32478     32480     32479     32481
     32483     32482     32484     32486     32485     32487     32489     32488     32490
     32492     32491     32493     32495     32494     32496     32498     32497     32499
     32501     32500     32502     32504     32503     32505     32507     32506     32508
     32510     32509     32511     32513     32512     32514     32516     32515     32517
     32519     32518     32520     32522     32521     32523     32525     32524     32526
     32528     32527     32529     32531     32530     32532     32534     32533     32535
     32537     32536     32538     32540     32539     32541     32543     32542     32544
     32546     32545     32547     32549     32548     32550     32552     32551     32553
     32555     32554     32556     32558     32557     32559     32561     32560     32562
     32564     32563     32565     32567     32566     32568     32570     32569     32571
     32573     32572     32574     32576     32575     32577     32579     32578     32580
     32582     32581     32583     32585     32584     32586     32588     32587     32589
     32591     32590     32592     32594     32593     32595     32597     32596     32598
     32600     32599     32601     32603     32602     32604     32606     32605     32607
     32609     32608     32610     32612     32611     32613     32615     32614     32616
     32618     32617     32619     32621     32620     32622     32624     32623     32625
     32627     32626     32628     32630     32629     32631     32633     32632     32634
     32636     32635     32637     32639     32638     32640     32642     32641     32643
     32645     32644     32646     32648     32647     32649     32651     32650     32652
     32654     32653     32655     32657     32656     32658     32660     32659     32661
     32663     32662     32664     32666     32665     32667     32669     32668     32670
     32672     32671     32673     32675     32674     32676     32678     32677     32679
     32681     32680     32682     32684     32683     32685     32687     32686     32688
     32690     32689     32691     32693     32692     32694     32696     32695     32697
     32699     32698     32700     32702     32701     32703     32705     32704     32706
     32708     32707     32709     32711     32710     32712     32714     32713     32715
     32717     32716     32718     32720     32719     32721     32723     32722     32724
     32726     32725     32727     32729     32728     32730     32732     32731     32733
     32735     32734     32736     32738     32737     32739     32741     32740     32742
     32744     32743     32745     32747     32746     32748     32750     32749     32751
     32753     32752     32754     32756     32755     32757     32759     32758     32760
     32762     32761     32763     32765     32764     32766     32768     32767     32769
     32771     32770     32772     32774     32773     32775     32777     32776     32778
     32780     32779     32781     32783     32782     32784     32786     32785     32787
     32789     32788     32790     32792     32791     32793     32795     32794     32796
     32798     32797     32799     32801     32800     32802     32804     32803     32805
     32807     32806     32808     32810     32809     32811     32813     32812     32814
     32816     32815     32817     32819     32818     32820     32822     32821     32823
     32825     32824     32826     32828     32827     32829     32831     32830     32832
     32834     32833     32835     32837     32836     32838     32840     32839     32841
     32843     32842     32844     32846     32845     32847     32849     32848     32850
     32852     32851     32853     32855     32854     32856     32858     32857     32859
     32861     32860     32862     32864     32863     32865     32867     32866     32868
     32870     32869     32871     32873     32872     32874     32876     32875     32877
     32879     32878     32880     32882     32881     32883     32885     32884     32886
     32888     32887     32889     32891     32890     32892     32894     32893     32895
     32897     32896     32898     32900     32899     32901     32903     32902     32904
     32906     32905     32907     32909     32908     32910     32912     32911     32913
     32915     32914     32916     32918     32917     32919     32921     32920     32922
     32924     32923     32925     32927     32926     32928     32930     32929     32931
     32933     32932     32934     32936     32935     32937     32939     32938     32940
     32942     32941     32943     32945     32944     32946     32948     32947     32949
     32951     32950     32952     32954     32953     32955     32957     32956     32958
     32960     32959     32961     32963     32962     32964     32966     32965     32967
     32969     32968     32970     32972     32971     32973     32975     32974     32976
     32978     32977     32979     32981     32980     32982     32984     32983     32985
     32987     32986     32988     32990     32989     32991     32993     32992     32994
     32996     32995     32997     32999     32998     33000     33002     33001     33003
     33005     33004     33006     33008     33007     33009     33011     33010     33012
     33014     33013     33015     33017     33016     33018     33020     33019     33021
     33023     33022     33024     33026     33025     33027     33029     33028     33030
     33032     33031     33033     33035     33034     33036     33038     33037     33039
     33041     33040     33042     33044     33043     33045     33047     33046     33048
     33050     33049     33051     33053     33052     33054     33056     33055     33057
     33059     33058     33060     33062     33061     33063     33065     33064     33066
     33068     33067     33069     33071     33070     33072     33074     33073     33075
     33077     33076     33078     33080     33079     33081     33083     33082     33084
     33086     33085     33087     33089     33088     33090     33092     33091     33093
     33095     33094     33096     33098     33097     33099     33101     33100     33102
     33104     33103     33105     33107     33106     33108     33110     33109     33111
     33113     33112     33114     33116     33115     33117     33119     33118     33120
     33122     33121     33123     33125     33124     33126     33128     33127     33129
     33131     33130     33132     33134     33133     33135     33137     33136     33138
     33140     33139     33141     33143     33142     33144     33146     33145     33147
     33149     33148     33150     33152     33151     33153     33155     33154     33156
     33158     33157     33159     33161     33160     33162     33164     33163     33165
     33167     33166     33168     33170     33169     33171     33173     33172     33174
     33176     33175     33177     33179     33178     33180     33182     33181     33183
     33185     33184     33186     33188     33187     33189     33191     33190     33192
     33194     33193     33195     33197     33196     33198     33200     33199     33201
     33203     33202     33204     33206     33205     33207     33209     33208     33210
     33212     33211     33213     33215     33214     33216     33218     33217     33219
     33221     33220     33222     33224     33223     33225     33227     33226     33228
     33230     33229     33231     33233     33232     33234     33236     33235     33237
     33239     33238     33240     33242     33241     33243     33245     33244     33246
     33248     33247     33249     33251     33250     33252     33254     33253     33255
     33257     33256     33258     33260     33259     33261     33263     33262     33264
     33266     33265     33267     33269     33268     33270     33272     33271     33273
     33275     33274     33276     33278     33277     33279     33281     33280     33282
     33284     33283     33285     33287     33286     33288     33290     33289     33291
     33293     33292     33294     33296     33295     33297     33299     33298     33300
     33302     33301     33303     33305     33304     33306     33308     33307     33309
     33311     33310     33312     33314     33313     33315     33317     33316     33318
     33320     33319     33321     33323     33322     33324     33326     33325     33327
     33329     33328     33330     33332     33331     33333     33335     33334     33336
     33338     33337     33339     33341     33340     33342     33344     33343     33345
     33347     33346     33348     33350     33349     33351     33353     33352     33354
     33356     33355     33357     33359     33358     33360     33362     33361     33363
     33365     33364     33366     33368     33367     33369     33371     33370     33372
     33374     33373     33375     33377     33376     33378     33380     33379     33381
     33383     33382     33384     33386     33385     33387     33389     33388     33390
     33392     33391     33393     33395     33394     33396     33398     33397     33399
     33401     33400     33402     33404     33403     33405     33407     33406     33408
     33410     33409     33411     33413     33412     33414     33416     33415     33417
     33419     33418     33420     33422     33421     33423     33425     33424     33426
     33428     33427     33429     33431     33430     33432     33434     33433     33435
     33437     33436     33438     33440     33439     33441     33443     33442     33444
     33446     33445     33447     33449     33448     33450     33452     33451     33453
     33455     33454     33456     33458     33457     33459     33461     33460     33462
     33464     33463     33465     33467     33466     33468     33470     33469     33471
     33473     33472     33474     33476     33475     33477     33479     33478     33480
     33482     33481     33483     33485     33484     33486     33488     33487     33489
     33491     33490     33492     33494     33493     33495     33497     33496     33498
     33500     33499     33501     33503     33502     33504     33506     33505     33507
     33509     33508     33510     33512     33511     33513     33515     33514     33516
     33518     33517     33519     33521     33520     33522     33524     33523     33525
     33527     33526     33528     33530     33529     33531     33533     33532     33534
     33536     33535     33537     33539     33538     33540     33542     33541     33543
     33545     33544     33546     33548     33547     33549     33551     33550     33552
     33554     33553     33555     33557     33556     33558     33560     33559     33561
     33563     33562     33564     33566     33565     33567     33569     33568     33570
     33572     33571     33573     33575     33574     33576     33578     33577     33579
     33581     33580     33582     33584     33583     33585     33587     33586     33588
     33590     33589     33591     33593     33592     33594     33596     33595     33597
     33599     33598     33600     33602     33601     33603     33605     33604     33606
     33608     33607     33609     33611     33610     33612     33614     33613     33615
     33617     33616     33618     33620     33619     33621     33623     33622     33624
     33626     33625     33627     33629     33628     33630     33632     33631     33633
     33635     33634     33636     33638     33637     33639     33641     33640     33642
     33644     33643     33645     33647     33646     33648     33650     33649     33651
     33653     33652     33654     33656     33655     33657     33659     33658     33660
     33662     33661     33663     33665     33664     33666     33668     33667     33669
     33671     33670     33672     33674     33673     33675     33677     33676     33678
     33680     33679     33681     33683     33682     33684     33686     33685     33687
     33689     33688     33690     33692     33691     33693     33695     33694     33696
     33698     33697     33699     33701     33700     33702     33704     33703     33705
     33707     33706     33708     33710     33709     33711     33713     33712     33714
     33716     33715     33717     33719     33718     33720     33722     33721     33723
     33725     33724     33726     33728     33727     33729     33731     33730     33732
     33734     33733     33735     33737     33736     33738     33740     33739     33741
     33743     33742     33744     33746     33745     33747     33749     33748     33750
     33752     33751     33753     33755     33754     33756     33758     33757     33759
     33761     33760     33762     33764     33763     33765     33767     33766     33768
     33770     33769     33771     33773     33772     33774     33776     33775     33777
     33779     33778     33780     33782     33781     33783     33785     33784     33786
     33788     33787     33789     33791     33790     33792     33794     33793     33795
     33797     33796     33798     33800     33799     33801     33803     33802     33804
     33806     33805     33807     33809     33808     33810     33812     33811     33813
     33815     33814     33816     33818     33817     33819     33821     33820     33822
     33824     33823     33825     33827     33826     33828     33830     33829     33831
     33833     33832     33834     33836     33835     33837     33839     33838     33840
     33842     33841     33843     33845     33844     33846     33848     33847     33849
     33851     33850     33852     33854     33853     33855     33857     33856     33858
     33860     33859     33861     33863     33862     33864     33866     33865     33867
     33869     33868     33870     33872     33871     33873     33875     33874     33876
     33878     33877     33879     33881     33880     33882     33884     33883     33885
     33887     33886     33888     33890     33889     33891     33893     33892     33894
     33896     33895     33897     33899     33898     33900     33902     33901     33903
     33905     33904     33906     33908     33907     33909     33911     33910     33912
     33914     33913     33915     33917     33916     33918     33920     33919     33921
     33923     33922     33924     33926     33925     33927     33929     33928     33930
     33932     33931     33933     33935     33934     33936     33938     33937     33939
     33941     33940     33942     33944     33943     33945     33947     33946     33948
     33950     33949     33951     33953     33952     33954     33956     33955     33957
     33959     33958     33960     33962     33961     33963     33965     33964     33966
     33968     33967     33969     33971     33970     33972     33974     33973     33975
     33977     33976     33978     33980     33979     33981     33983     33982     33984
     33986     33985     33987     33989     33988     33990     33992     33991     33993
     33995     33994     33996     33998     33997     33999     34001     34000     34002
     34004     34003     34005     34007     34006     34008     34010     34009     34011
     34013     34012     34014     34016     34015     34017     34019     34018     34020
     34022     34021     34023     34025     34024     34026     34028     34027     34029
     34031     34030     34032     34034     34033     34035     34037     34036     34038
     34040     34039     34041     34043     34042     34044     34046     34045     34047
     34049     34048     34050     34052     34051     34053     34055     34054     34056
     34058     34057     34059     34061     34060     34062     34064     34063     34065
     34067     34066     34068     34070     34069     34071     34073     34072     34074
     34076     34075     34077     34079     34078     34080     34082     34081     34083
     34085     34084     34086     34088     34087     34089     34091     34090     34092
     34094     34093     34095     34097     34096     34098     34100     34099     34101
     34103     34102     34104     34106     34105     34107     34109     34108     34110
     34112     34111     34113     34115     34114     34116     34118     34117     34119
     34121     34120     34122     34124     34123     34125     34127     34126     34128
     34130     34129     34131     34133     34132     34134     34136     34135     34137
     34139     34138     34140     34142     34141     34143     34145     34144     34146
     34148     34147     34149     34151     34150     34152     34154     34153     34155
     34157     34156     34158     34160     34159     34161     34163     34162     34164
     34166     34165     34167     34169     34168     34170     34172     34171     34173
     34175     34174     34176     34178     34177     34179     34181     34180     34182
     34184     34183     34185     34187     34186     34188     34190     34189     34191
     34193     34192     34194     34196     34195     34197     34199     34198     34200
     34202     34201     34203     34205     34204     34206     34208     34207     34209
     34211     34210     34212     34214     34213     34215     34217     34216     34218
     34220     34219     34221     34223     34222     34224     34226     34225     34227
     34229     34228     34230     34232     34231     34233     34235     34234     34236
     34238     34237     34239     34241     34240     34242     34244     34243     34245
     34247     34246     34248     34250     34249     34251     34253     34252     34254
     34256     34255     34257     34259     34258     34260     34262     34261     34263
     34265     34264     34266     34268     34267     34269     34271     34270     34272
     34274     34273     34275     34277     34276     34278     34280     34279     34281
     34283     34282     34284     34286     34285     34287     34289     34288     34290
     34292     34291     34293     34295     34294     34296     34298     34297     34299
     34301     34300     34302     34304     34303     34305     34307     34306     34308
     34310     34309     34311     34313     34312     34314     34316     34315     34317
     34319     34318     34320     34322     34321     34323     34325     34324     34326
     34328     34327     34329     34331     34330     34332     34334     34333     34335
     34337     34336     34338     34340     34339     34341     34343     34342     34344
     34346     34345     34347     34349     34348     34350     34352     34351     34353
     34355     34354     34356     34358     34357     34359     34361     34360     34362
     34364     34363     34365     34367     34366     34368     34370     34369     34371
     34373     34372     34374     34376     34375     34377     34379     34378     34380
     34382     34381     34383     34385     34384     34386     34388     34387     34389
     34391     34390     34392     34394     34393     34395     34397     34396     34398
     34400     34399     34401     34403     34402     34404     34406     34405     34407
     34409     34408     34410     34412     34411     34413     34415     34414     34416
     34418     34417     34419     34421     34420     34422     34424     34423     34425
     34427     34426     34428     34430     34429     34431     34433     34432     34434
     34436     34435     34437     34439     34438     34440     34442     34441     34443
     34445     34444     34446     34448     34447     34449     34451     34450     34452
     34454     34453     34455     34457     34456     34458     34460     34459     34461
     34463     34462     34464     34466     34465     34467     34469     34468     34470
     34472     34471     34473     34475     34474     34476     34478     34477     34479
     34481     34480     34482     34484     34483     34485     34487     34486     34488
     34490     34489     34491     34493     34492     34494     34496     34495     34497
     34499     34498     34500     34502     34501     34503     34505     34504     34506
     34508     34507     34509     34511     34510     34512     34514     34513     34515
     34517     34516     34518     34520     34519     34521     34523     34522     34524
     34526     34525     34527     34529     34528     34530     34532     34531     34533
     34535     34534     34536     34538     34537     34539     34541     34540     34542
     34544     34543     34545     34547     34546     34548     34550     34549     34551
     34553     34552     34554     34556     34555     34557     34559     34558     34560
     34562     34561     34563     34565     34564     34566     34568     34567     34569
     34571     34570     34572     34574     34573     34575     34577     34576     34578
     34580     34579     34581     34583     34582     34584     34586     34585     34587
     34589     34588     34590     34592     34591     34593     34595     34594     34596
     34598     34597     34599     34601     34600     34602     34604     34603     34605
     34607     34606     34608     34610     34609     34611     34613     34612     34614
     34616     34615     34617     34619     34618     34620     34622     34621     34623
     34625     34624     34626     34628     34627     34629     34631     34630     34632
     34634     34633     34635     34637     34636     34638     34640     34639     34641
     34643     34642     34644     34646     34645     34647     34649     34648     34650
     34652     34651     34653     34655     34654     34656     34658     34657     34659
     34661     34660     34662     34664     34663     34665     34667     34666     34668
     34670     34669     34671     34673     34672     34674     34676     34675     34677
     34679     34678     34680     34682     34681     34683     34685     34684     34686
     34688     34687     34689     34691     34690     34692     34694     34693     34695
     34697     34696     34698     34700     34699     34701     34703     34702     34704
     34706     34705     34707     34709     34708     34710     34712     34711     34713
     34715     34714     34716     34718     34717     34719     34721     34720     34722
     34724     34723     34725     34727     34726     34728     34730     34729     34731
     34733     34732     34734     34736     34735     34737     34739     34738     34740
     34742     34741     34743     34745     34744     34746     34748     34747     34749
     34751     34750     34752     34754     34753     34755     34757     34756     34758
     34760     34759     34761     34763     34762     34764     34766     34765     34767
     34769     34768     34770     34772     34771     34773     34775     34774     34776
     34778     34777     34779     34781     34780     34782     34784     34783     34785
     34787     34786     34788     34790     34789     34791     34793     34792     34794
     34796     34795     34797     34799     34798     34800     34802     34801     34803
     34805     34804     34806     34808     34807     34809     34811     34810     34812
     34814     34813     34815     34817     34816     34818     34820     34819     34821
     34823     34822     34824     34826     34825     34827     34829     34828     34830
     34832     34831     34833     34835     34834     34836     34838     34837     34839
     34841     34840     34842     34844     34843     34845     34847     34846     34848
     34850     34849     34851     34853     34852     34854     34856     34855     34857
     34859     34858     34860     34862     34861     34863     34865     34864     34866
     34868     34867     34869     34871     34870     34872     34874     34873     34875
     34877     34876     34878     34880     34879     34881     34883     34882     34884
     34886     34885     34887     34889     34888     34890     34892     34891     34893
     34895     34894     34896     34898     34897     34899     34901     34900     34902
     34904     34903     34905     34907     34906     34908     34910     34909     34911
     34913     34912     34914     34916     34915     34917     34919     34918     34920
     34922     34921     34923     34925     34924     34926     34928     34927     34929
     34931     34930     34932     34934     34933     34935     34937     34936     34938
     34940     34939     34941     34943     34942     34944     34946     34945     34947
     34949     34948     34950     34952     34951     34953     34955     34954     34956
     34958     34957     34959     34961     34960     34962     34964     34963     34965
     34967     34966     34968     34970     34969     34971     34973     34972     34974
     34976     34975     34977     34979     34978     34980     34982     34981     34983
     34985     34984     34986     34988     34987     34989     34991     34990     34992
     34994     34993     34995     34997     34996     34998     35000     34999     35001
     35003     35002     35004     35006     35005     35007     35009     35008     35010
     35012     35011     35013     35015     35014     35016     35018     35017     35019
     35021     35020     35022     35024     35023     35025     35027     35026     35028
     35030     35029     35031     35033     35032     35034     35036     35035     35037
     35039     35038     35040     35042     35041     35043     35045     35044     35046
     35048     35047     35049     35051     35050     35052     35054     35053     35055
     35057     35056     35058     35060     35059     35061     35063     35062     35064
     35066     35065     35067     35069     35068     35070     35072     35071     35073
     35075     35074     35076     35078     35077     35079     35081     35080     35082
     35084     35083     35085     35087     35086     35088     35090     35089     35091
     35093     35092     35094     35096     35095     35097     35099     35098     35100
     35102     35101     35103     35105     35104     35106     35108     35107     35109
     35111     35110     35112     35114     35113     35115     35117     35116     35118
     35120     35119     35121     35123     35122     35124     35126     35125     35127
     35129     35128     35130     35132     35131     35133     35135     35134     35136
     35138     35137     35139     35141     35140     35142     35144     35143     35145
     35147     35146     35148     35150     35149     35151     35153     35152     35154
     35156     35155     35157     35159     35158     35160     35162     35161     35163
     35165     35164     35166     35168     35167     35169     35171     35170     35172
     35174     35173     35175     35177     35176     35178     35180     35179     35181
     35183     35182     35184     35186     35185     35187     35189     35188     35190
     35192     35191     35193     35195     35194     35196     35198     35197     35199
     35201     35200     35202     35204     35203     35205     35207     35206     35208
     35210     35209     35211     35213     35212     35214     35216     35215     35217
     35219     35218     35220     35222     35221     35223     35225     35224     35226
     35228     35227     35229     35231     35230     35232     35234     35233     35235
     35237     35236     35238     35240     35239     35241     35243     35242     35244
     35246     35245     35247     35249     35248     35250     35252     35251     35253
     35255     35254     35256     35258     35257     35259     35261     35260     35262
     35264     35263     35265     35267     35266     35268     35270     35269     35271
     35273     35272     35274     35276     35275     35277     35279     35278     35280
     35282     35281     35283     35285     35284     35286     35288     35287     35289
     35291     35290     35292     35294     35293     35295     35297     35296     35298
     35300     35299     35301     35303     35302     35304     35306     35305     35307
     35309     35308     35310     35312     35311     35313     35315     35314     35316
     35318     35317     35319     35321     35320     35322     35324     35323     35325
     35327     35326     35328     35330     35329     35331     35333     35332     35334
     35336     35335     35337     35339     35338     35340     35342     35341     35343
     35345     35344     35346     35348     35347     35349     35351     35350     35352
     35354     35353     35355     35357     35356     35358     35360     35359     35361
     35363     35362     35364     35366     35365     35367     35369     35368     35370
     35372     35371     35373     35375     35374     35376     35378     35377     35379
     35381     35380     35382     35384     35383     35385     35387     35386     35388
     35390     35389     35391     35393     35392     35394     35396     35395     35397
     35399     35398     35400     35402     35401     35403     35405     35404     35406
     35408     35407     35409     35411     35410     35412     35414     35413     35415
     35417     35416     35418     35420     35419     35421     35423     35422     35424
     35426     35425     35427     35429     35428     35430     35432     35431     35433
     35435     35434     35436     35438     35437     35439     35441     35440     35442
     35444     35443     35445     35447     35446     35448     35450     35449     35451
     35453     35452     35454     35456     35455     35457     35459     35458     35460
     35462     35461     35463     35465     35464     35466     35468     35467     35469
     35471     35470     35472     35474     35473     35475     35477     35476     35478
     35480     35479     35481     35483     35482     35484     35486     35485     35487
     35489     35488     35490     35492     35491     35493     35495     35494     35496
     35498     35497     35499     35501     35500     35502     35504     35503     35505
     35507     35506     35508     35510     35509     35511     35513     35512     35514
     35516     35515     35517     35519     35518     35520     35522     35521     35523
     35525     35524     35526     35528     35527     35529     35531     35530     35532
     35534     35533     35535     35537     35536     35538     35540     35539     35541
     35543     35542     35544     35546     35545     35547     35549     35548     35550
     35552     35551     35553     35555     35554     35556     35558     35557     35559
     35561     35560     35562     35564     35563     35565     35567     35566     35568
     35570     35569     35571     35573     35572     35574     35576     35575     35577
     35579     35578     35580     35582     35581     35583     35585     35584     35586
     35588     35587     35589     35591     35590     35592     35594     35593     35595
     35597     35596     35598     35600     35599     35601     35603     35602     35604
     35606     35605     35607     35609     35608     35610     35612     35611     35613
     35615     35614     35616     35618     35617     35619     35621     35620     35622
     35624     35623     35625     35627     35626     35628     35630     35629     35631
     35633     35632     35634     35636     35635     35637     35639     35638     35640
     35642     35641     35643     35645     35644     35646     35648     35647     35649
     35651     35650     35652     35654     35653     35655     35657     35656     35658
     35660     35659     35661     35663     35662     35664     35666     35665     35667
     35669     35668     35670     35672     35671     35673     35675     35674     35676
     35678     35677     35679     35681     35680     35682     35684     35683     35685
     35687     35686     35688     35690     35689     35691     35693     35692     35694
     35696     35695     35697     35699     35698     35700     35702     35701     35703
     35705     35704     35706     35708     35707     35709     35711     35710     35712
     35714     35713     35715     35717     35716     35718     35720     35719     35721
     35723     35722     35724     35726     35725     35727     35729     35728     35730
     35732     35731     35733     35735     35734     35736     35738     35737     35739
     35741     35740     35742     35744     35743     35745     35747     35746     35748
     35750     35749     35751     35753     35752     35754     35756     35755     35757
     35759     35758     35760     35762     35761     35763     35765     35764     35766
     35768     35767     35769     35771     35770     35772     35774     35773     35775
     35777     35776     35778     35780     35779     35781     35783     35782     35784
     35786     35785     35787     35789     35788     35790     35792     35791     35793
     35795     35794     35796     35798     35797     35799     35801     35800     35802
     35804     35803     35805     35807     35806     35808     35810     35809     35811
     35813     35812     35814     35816     35815     35817     35819     35818     35820
     35822     35821     35823     35825     35824     35826     35828     35827     35829
     35831     35830     35832     35834     35833     35835     35837     35836     35838
     35840     35839     35841     35843     35842     35844     35846     35845     35847
     35849     35848     35850     35852     35851     35853     35855     35854     35856
     35858     35857     35859     35861     35860     35862     35864     35863     35865
     35867     35866     35868     35870     35869     35871     35873     35872     35874
     35876     35875     35877     35879     35878     35880     35882     35881     35883
     35885     35884     35886     35888     35887     35889     35891     35890     35892
     35894     35893     35895     35897     35896     35898     35900     35899     35901
     35903     35902     35904     35906     35905     35907     35909     35908     35910
     35912     35911     35913     35915     35914     35916     35918     35917     35919
     35921     35920     35922     35924     35923     35925     35927     35926     35928
     35930     35929     35931     35933     35932     35934     35936     35935     35937
     35939     35938     35940     35942     35941     35943     35945     35944     35946
     35948     35947     35949     35951     35950     35952     35954     35953     35955
     35957     35956     35958     35960     35959     35961     35963     35962     35964
     35966     35965     35967     35969     35968     35970     35972     35971     35973
     35975     35974     35976     35978     35977     35979     35981     35980     35982
     35984     35983     35985     35987     35986     35988     35990     35989     35991
     35993     35992     35994     35996     35995     35997     35999     35998     36000
     36002     36001     36003     36005     36004     36006     36008     36007     36009
     36011     36010     36012     36014     36013     36015     36017     36016     36018
     36020     36019     36021     36023     36022     36024     36026     36025     36027
     36029     36028     36030     36032     36031     36033     36035     36034     36036
     36038     36037     36039     36041     36040     36042     36044     36043     36045
     36047     36046     36048     36050     36049     36051     36053     36052     36054
     36056     36055     36057     36059     36058     36060     36062     36061     36063
     36065     36064     36066     36068     36067     36069     36071     36070     36072
     36074     36073     36075     36077     36076     36078     36080     36079     36081
     36083     36082     36084     36086     36085     36087     36089     36088     36090
     36092     36091     36093     36095     36094     36096     36098     36097     36099
     36101     36100     36102     36104     36103     36105     36107     36106     36108
     36110     36109     36111     36113     36112     36114     36116     36115     36117
     36119     36118     36120     36122     36121     36123     36125     36124     36126
     36128     36127     36129     36131     36130     36132     36134     36133     36135
     36137     36136     36138     36140     36139     36141     36143     36142     36144
     36146     36145     36147     36149     36148     36150     36152     36151     36153
     36155     36154     36156     36158     36157     36159     36161     36160     36162
     36164     36163     36165     36167     36166     36168     36170     36169     36171
     36173     36172     36174     36176     36175     36177     36179     36178     36180
     36182     36181     36183     36185     36184     36186     36188     36187     36189
     36191     36190     36192     36194     36193     36195     36197     36196     36198
     36200     36199     36201     36203     36202     36204     36206     36205     36207
     36209     36208     36210     36212     36211     36213     36215     36214     36216
     36218     36217     36219     36221     36220     36222     36224     36223     36225
     36227     36226     36228     36230     36229     36231     36233     36232     36234
     36236     36235     36237     36239     36238     36240     36242     36241     36243
     36245     36244     36246     36248     36247     36249     36251     36250     36252
     36254     36253     36255     36257     36256     36258     36260     36259     36261
     36263     36262     36264     36266     36265     36267     36269     36268     36270
     36272     36271     36273     36275     36274     36276     36278     36277     36279
     36281     36280     36282     36284     36283     36285     36287     36286     36288
     36290     36289     36291     36293     36292     36294     36296     36295     36297
     36299     36298     36300     36302     36301     36303     36305     36304     36306
     36308     36307     36309     36311     36310     36312     36314     36313     36315
     36317     36316     36318     36320     36319     36321     36323     36322     36324
     36326     36325     36327     36329     36328     36330     36332     36331     36333
     36335     36334     36336     36338     36337     36339     36341     36340     36342
     36344     36343     36345     36347     36346     36348     36350     36349     36351
     36353     36352     36354     36356     36355     36357     36359     36358     36360
     36362     36361     36363     36365     36364     36366     36368     36367     36369
     36371     36370     36372     36374     36373     36375     36377     36376     36378
     36380     36379     36381     36383     36382     36384     36386     36385     36387
     36389     36388     36390     36392     36391     36393     36395     36394     36396
     36398     36397     36399     36401     36400     36402     36404     36403     36405
     36407     36406     36408     36410     36409     36411     36413     36412     36414
     36416     36415     36417     36419     36418     36420     36422     36421     36423
     36425     36424     36426     36428     36427     36429     36431     36430     36432
     36434     36433     36435     36437     36436     36438     36440     36439     36441
     36443     36442     36444     36446     36445     36447     36449     36448     36450
     36452     36451     36453     36455     36454     36456     36458     36457     36459
     36461     36460     36462     36464     36463     36465     36467     36466     36468
     36470     36469     36471     36473     36472     36474     36476     36475     36477
     36479     36478     36480     36482     36481     36483     36485     36484     36486
     36488     36487     36489     36491     36490     36492     36494     36493     36495
     36497     36496     36498     36500     36499     36501     36503     36502     36504
     36506     36505     36507     36509     36508     36510     36512     36511     36513
     36515     36514     36516     36518     36517     36519     36521     36520     36522
     36524     36523     36525     36527     36526     36528     36530     36529     36531
     36533     36532     36534     36536     36535     36537     36539     36538     36540
     36542     36541     36543     36545     36544     36546     36548     36547     36549
     36551     36550     36552     36554     36553     36555     36557     36556     36558
     36560     36559     36561     36563     36562     36564     36566     36565     36567
     36569     36568     36570     36572     36571     36573     36575     36574     36576
     36578     36577     36579     36581     36580     36582     36584     36583     36585
     36587     36586     36588     36590     36589     36591     36593     36592     36594
     36596     36595     36597     36599     36598     36600     36602     36601     36603
     36605     36604     36606     36608     36607     36609     36611     36610     36612
     36614     36613     36615     36617     36616     36618     36620     36619     36621
     36623     36622     36624     36626     36625     36627     36629     36628     36630
     36632     36631     36633     36635     36634     36636     36638     36637     36639
     36641     36640     36642     36644     36643     36645     36647     36646     36648
     36650     36649     36651     36653     36652     36654     36656     36655     36657
     36659     36658     36660     36662     36661     36663     36665     36664     36666
     36668     36667     36669     36671     36670     36672     36674     36673     36675
     36677     36676     36678     36680     36679     36681     36683     36682     36684
     36686     36685     36687     36689     36688     36690     36692     36691     36693
     36695     36694     36696     36698     36697     36699     36701     36700     36702
     36704     36703     36705     36707     36706     36708     36710     36709     36711
     36713     36712     36714     36716     36715     36717     36719     36718     36720
     36722     36721     36723     36725     36724     36726     36728     36727     36729
     36731     36730     36732     36734     36733     36735     36737     36736     36738
     36740     36739     36741     36743     36742     36744     36746     36745     36747
     36749     36748     36750     36752     36751     36753     36755     36754     36756
     36758     36757     36759     36761     36760     36762     36764     36763     36765
     36767     36766     36768     36770     36769     36771     36773     36772     36774
     36776     36775     36777     36779     36778     36780     36782     36781     36783
     36785     36784     36786     36788     36787     36789     36791     36790     36792
     36794     36793     36795     36797     36796     36798     36800     36799     36801
     36803     36802     36804     36806     36805     36807     36809     36808     36810
     36812     36811     36813     36815     36814     36816     36818     36817     36819
     36821     36820     36822     36824     36823     36825     36827     36826     36828
     36830     36829     36831     36833     36832     36834     36836     36835     36837
     36839     36838     36840     36842     36841     36843     36845     36844     36846
     36848     36847     36849     36851     36850     36852     36854     36853     36855
     36857     36856     36858     36860     36859     36861     36863     36862     36864
     36866     36865     36867     36869     36868     36870     36872     36871     36873
     36875     36874     36876     36878     36877     36879     36881     36880     36882
     36884     36883     36885     36887     36886     36888     36890     36889     36891
     36893     36892     36894     36896     36895     36897     36899     36898     36900
     36902     36901     36903     36905     36904     36906     36908     36907     36909
     36911     36910     36912     36914     36913     36915     36917     36916     36918
     36920     36919     36921     36923     36922     36924     36926     36925     36927
     36929     36928     36930     36932     36931     36933     36935     36934     36936
     36938     36937     36939     36941     36940     36942     36944     36943     36945
     36947     36946     36948     36950     36949     36951     36953     36952     36954
     36956     36955     36957     36959     36958     36960     36962     36961     36963
     36965     36964     36966     36968     36967     36969     36971     36970     36972
     36974     36973     36975     36977     36976     36978     36980     36979     36981
     36983     36982     36984     36986     36985     36987     36989     36988     36990
     36992     36991     36993     36995     36994     36996     36998     36997     36999
     37001     37000     37002     37004     37003     37005     37007     37006     37008
     37010     37009     37011     37013     37012     37014     37016     37015     37017
     37019     37018     37020     37022     37021     37023     37025     37024     37026
     37028     37027     37029     37031     37030     37032     37034     37033     37035
     37037     37036     37038     37040     37039     37041     37043     37042     37044
     37046     37045     37047     37049     37048     37050     37052     37051     37053
     37055     37054     37056     37058     37057     37059     37061     37060     37062
     37064     37063     37065     37067     37066     37068     37070     37069     37071
     37073     37072     37074     37076     37075     37077     37079     37078     37080
     37082     37081     37083     37085     37084     37086     37088     37087     37089
     37091     37090     37092     37094     37093     37095     37097     37096     37098
     37100     37099     37101     37103     37102     37104     37106     37105     37107
     37109     37108     37110     37112     37111     37113     37115     37114     37116
     37118     37117     37119     37121     37120     37122     37124     37123     37125
     37127     37126     37128     37130     37129     37131     37133     37132     37134
     37136     37135     37137     37139     37138     37140     37142     37141     37143
     37145     37144     37146     37148     37147     37149     37151     37150     37152
     37154     37153     37155     37157     37156     37158     37160     37159     37161
     37163     37162     37164     37166     37165     37167     37169     37168     37170
     37172     37171     37173     37175     37174     37176     37178     37177     37179
     37181     37180     37182     37184     37183     37185     37187     37186     37188
     37190     37189     37191     37193     37192     37194     37196     37195     37197
     37199     37198     37200     37202     37201     37203     37205     37204     37206
     37208     37207     37209     37211     37210     37212     37214     37213     37215
     37217     37216     37218     37220     37219     37221     37223     37222     37224
     37226     37225     37227     37229     37228     37230     37232     37231     37233
     37235     37234     37236     37238     37237     37239     37241     37240     37242
     37244     37243     37245     37247     37246     37248     37250     37249     37251
     37253     37252     37254     37256     37255     37257     37259     37258     37260
     37262     37261     37263     37265     37264     37266     37268     37267     37269
     37271     37270     37272     37274     37273     37275     37277     37276     37278
     37280     37279     37281     37283     37282     37284     37286     37285     37287
     37289     37288     37290     37292     37291     37293     37295     37294     37296
     37298     37297     37299     37301     37300     37302     37304     37303     37305
     37307     37306     37308     37310     37309     37311     37313     37312     37314
     37316     37315     37317     37319     37318     37320     37322     37321     37323
     37325     37324     37326     37328     37327     37329     37331     37330     37332
     37334     37333     37335     37337     37336     37338     37340     37339     37341
     37343     37342     37344     37346     37345     37347     37349     37348     37350
     37352     37351     37353     37355     37354     37356     37358     37357     37359
     37361     37360     37362     37364     37363     37365     37367     37366     37368
     37370     37369     37371     37373     37372     37374     37376     37375     37377
     37379     37378     37380     37382     37381     37383     37385     37384     37386
     37388     37387     37389     37391     37390     37392     37394     37393     37395
     37397     37396     37398     37400     37399     37401     37403     37402     37404
     37406     37405     37407     37409     37408     37410     37412     37411     37413
     37415     37414     37416     37418     37417     37419     37421     37420     37422
     37424     37423     37425     37427     37426     37428     37430     37429     37431
     37433     37432     37434     37436     37435     37437     37439     37438     37440
     37442     37441     37443     37445     37444     37446     37448     37447     37449
     37451     37450     37452     37454     37453     37455     37457     37456     37458
     37460     37459     37461     37463     37462     37464     37466     37465     37467
     37469     37468     37470     37472     37471     37473     37475     37474     37476
     37478     37477     37479     37481     37480     37482     37484     37483     37485
     37487     37486     37488     37490     37489     37491     37493     37492     37494
     37496     37495     37497     37499     37498     37500     37502     37501     37503
     37505     37504     37506     37508     37507     37509     37511     37510     37512
     37514     37513     37515     37517     37516     37518     37520     37519     37521
     37523     37522     37524     37526     37525     37527     37529     37528     37530
     37532     37531     37533     37535     37534     37536     37538     37537     37539
     37541     37540     37542     37544     37543     37545     37547     37546     37548
     37550     37549     37551     37553     37552     37554     37556     37555     37557
     37559     37558     37560     37562     37561     37563     37565     37564     37566
     37568     37567     37569     37571     37570     37572     37574     37573     37575
     37577     37576     37578     37580     37579     37581     37583     37582     37584
     37586     37585     37587     37589     37588     37590     37592     37591     37593
     37595     37594     37596     37598     37597     37599     37601     37600     37602
     37604     37603     37605     37607     37606     37608     37610     37609     37611
     37613     37612     37614     37616     37615     37617     37619     37618     37620
     37622     37621     37623     37625     37624     37626     37628     37627     37629
     37631     37630     37632     37634     37633     37635     37637     37636     37638
     37640     37639     37641     37643     37642     37644     37646     37645     37647
     37649     37648     37650     37652     37651     37653     37655     37654     37656
     37658     37657     37659     37661     37660     37662     37664     37663     37665
     37667     37666     37668     37670     37669     37671     37673     37672     37674
     37676     37675     37677     37679     37678     37680     37682     37681     37683
     37685     37684     37686     37688     37687     37689     37691     37690     37692
     37694     37693     37695     37697     37696     37698     37700     37699     37701
     37703     37702     37704     37706     37705     37707     37709     37708     37710
     37712     37711     37713     37715     37714     37716     37718     37717     37719
     37721     37720     37722     37724     37723     37725     37727     37726     37728
     37730     37729     37731     37733     37732     37734     37736     37735     37737
     37739     37738     37740     37742     37741     37743     37745     37744     37746
     37748     37747     37749     37751     37750     37752     37754     37753     37755
     37757     37756     37758     37760     37759     37761     37763     37762     37764
     37766     37765     37767     37769     37768     37770     37772     37771     37773
     37775     37774     37776     37778     37777     37779     37781     37780     37782
     37784     37783     37785     37787     37786     37788     37790     37789     37791
     37793     37792     37794     37796     37795     37797     37799     37798     37800
     37802     37801     37803     37805     37804     37806     37808     37807     37809
     37811     37810     37812     37814     37813     37815     37817     37816     37818
     37820     37819     37821     37823     37822     37824     37826     37825     37827
     37829     37828     37830     37832     37831     37833     37835     37834     37836
     37838     37837     37839     37841     37840     37842     37844     37843     37845
     37847     37846     37848     37850     37849     37851     37853     37852     37854
     37856     37855     37857     37859     37858     37860     37862     37861     37863
     37865     37864     37866     37868     37867     37869     37871     37870     37872
     37874     37873     37875     37877     37876     37878     37880     37879     37881
     37883     37882     37884     37886     37885     37887     37889     37888     37890
     37892     37891     37893     37895     37894     37896     37898     37897     37899
     37901     37900     37902     37904     37903     37905     37907     37906     37908
     37910     37909     37911     37913     37912     37914     37916     37915     37917
     37919     37918     37920     37922     37921     37923     37925     37924     37926
     37928     37927     37929     37931     37930     37932     37934     37933     37935
     37937     37936     37938     37940     37939     37941     37943     37942     37944
     37946     37945     37947     37949     37948     37950     37952     37951     37953
     37955     37954     37956     37958     37957     37959     37961     37960     37962
     37964     37963     37965     37967     37966     37968     37970     37969     37971
     37973     37972     37974     37976     37975     37977     37979     37978     37980
     37982     37981     37983     37985     37984     37986     37988     37987     37989
     37991     37990     37992     37994     37993     37995     37997     37996     37998
     38000     37999     38001     38003     38002     38004     38006     38005     38007
     38009     38008     38010     38012     38011     38013     38015     38014     38016
     38018     38017     38019     38021     38020     38022     38024     38023     38025
     38027     38026     38028     38030     38029     38031     38033     38032     38034
     38036     38035     38037     38039     38038     38040     38042     38041     38043
     38045     38044     38046     38048     38047     38049     38051     38050     38052
     38054     38053     38055     38057     38056     38058     38060     38059     38061
     38063     38062     38064     38066     38065     38067     38069     38068     38070
     38072     38071     38073     38075     38074     38076     38078     38077     38079
     38081     38080     38082     38084     38083     38085     38087     38086     38088
     38090     38089     38091     38093     38092     38094     38096     38095     38097
     38099     38098     38100     38102     38101     38103     38105     38104     38106
     38108     38107     38109     38111     38110     38112     38114     38113     38115
     38117     38116     38118     38120     38119     38121     38123     38122     38124
     38126     38125     38127     38129     38128     38130     38132     38131     38133
     38135     38134     38136     38138     38137     38139     38141     38140     38142
     38144     38143     38145     38147     38146     38148     38150     38149     38151
     38153     38152     38154     38156     38155     38157     38159     38158     38160
     38162     38161     38163     38165     38164     38166     38168     38167     38169
     38171     38170     38172     38174     38173     38175     38177     38176     38178
     38180     38179     38181     38183     38182     38184     38186     38185     38187
     38189     38188     38190     38192     38191     38193     38195     38194     38196
     38198     38197     38199     38201     38200     38202     38204     38203     38205
     38207     38206     38208     38210     38209     38211     38213     38212     38214
     38216     38215     38217     38219     38218     38220     38222     38221     38223
     38225     38224     38226     38228     38227     38229     38231     38230     38232
     38234     38233     38235     38237     38236     38238     38240     38239     38241
     38243     38242     38244     38246     38245     38247     38249     38248     38250
     38252     38251     38253     38255     38254     38256     38258     38257     38259
     38261     38260     38262     38264     38263     38265     38267     38266     38268
     38270     38269     38271     38273     38272     38274     38276     38275     38277
     38279     38278     38280     38282     38281     38283     38285     38284     38286
     38288     38287     38289     38291     38290     38292     38294     38293     38295
     38297     38296     38298     38300     38299     38301     38303     38302     38304
     38306     38305     38307     38309     38308     38310     38312     38311     38313
     38315     38314     38316     38318     38317     38319     38321     38320     38322
     38324     38323     38325     38327     38326     38328     38330     38329     38331
     38333     38332     38334     38336     38335     38337     38339     38338     38340
     38342     38341     38343     38345     38344     38346     38348     38347     38349
     38351     38350     38352     38354     38353     38355     38357     38356     38358
     38360     38359     38361     38363     38362     38364     38366     38365     38367
     38369     38368     38370     38372     38371     38373     38375     38374     38376
     38378     38377     38379     38381     38380     38382     38384     38383     38385
     38387     38386     38388     38390     38389     38391     38393     38392     38394
     38396     38395     38397     38399     38398     38400     38402     38401     38403
     38405     38404     38406     38408     38407     38409     38411     38410     38412
     38414     38413     38415     38417     38416     38418     38420     38419     38421
     38423     38422     38424     38426     38425     38427     38429     38428     38430
     38432     38431     38433     38435     38434     38436     38438     38437     38439
     38441     38440     38442     38444     38443     38445     38447     38446     38448
     38450     38449     38451     38453     38452     38454     38456     38455     38457
     38459     38458     38460     38462     38461     38463     38465     38464     38466
     38468     38467     38469     38471     38470     38472     38474     38473     38475
     38477     38476     38478     38480     38479     38481     38483     38482     38484
     38486     38485     38487     38489     38488     38490     38492     38491     38493
     38495     38494     38496     38498     38497     38499     38501     38500     38502
     38504     38503     38505     38507     38506     38508     38510     38509     38511
     38513     38512     38514     38516     38515     38517     38519     38518     38520
     38522     38521     38523     38525     38524     38526     38528     38527     38529
     38531     38530     38532     38534     38533     38535     38537     38536     38538
     38540     38539     38541     38543     38542     38544     38546     38545     38547
     38549     38548     38550     38552     38551     38553     38555     38554     38556
     38558     38557     38559     38561     38560     38562     38564     38563     38565
     38567     38566     38568     38570     38569     38571     38573     38572     38574
     38576     38575     38577     38579     38578     38580     38582     38581     38583
     38585     38584     38586     38588     38587     38589     38591     38590     38592
     38594     38593     38595     38597     38596     38598     38600     38599     38601
     38603     38602     38604     38606     38605     38607     38609     38608     38610
     38612     38611     38613     38615     38614     38616     38618     38617     38619
     38621     38620     38622     38624     38623     38625     38627     38626     38628
     38630     38629     38631     38633     38632     38634     38636     38635     38637
     38639     38638     38640     38642     38641     38643     38645     38644     38646
     38648     38647     38649     38651     38650     38652     38654     38653     38655
     38657     38656     38658     38660     38659     38661     38663     38662     38664
     38666     38665     38667     38669     38668     38670     38672     38671     38673
     38675     38674     38676     38678     38677     38679     38681     38680     38682
     38684     38683     38685     38687     38686     38688     38690     38689     38691
     38693     38692     38694     38696     38695     38697     38699     38698     38700
     38702     38701     38703     38705     38704     38706     38708     38707     38709
     38711     38710     38712     38714     38713     38715     38717     38716     38718
     38720     38719     38721     38723     38722     38724     38726     38725     38727
     38729     38728     38730     38732     38731     38733     38735     38734     38736
     38738     38737     38739     38741     38740     38742     38744     38743     38745
     38747     38746     38748     38750     38749     38751     38753     38752     38754
     38756     38755     38757     38759     38758     38760     38762     38761     38763
     38765     38764     38766     38768     38767     38769     38771     38770     38772
     38774     38773     38775     38777     38776     38778     38780     38779     38781
     38783     38782     38784     38786     38785     38787     38789     38788     38790
     38792     38791     38793     38795     38794     38796     38798     38797     38799
     38801     38800     38802     38804     38803     38805     38807     38806     38808
     38810     38809     38811     38813     38812     38814     38816     38815     38817
     38819     38818     38820     38822     38821     38823     38825     38824     38826
     38828     38827     38829     38831     38830     38832     38834     38833     38835
     38837     38836     38838     38840     38839     38841     38843     38842     38844
     38846     38845     38847     38849     38848     38850     38852     38851     38853
     38855     38854     38856     38858     38857     38859     38861     38860     38862
     38864     38863     38865     38867     38866     38868     38870     38869     38871
     38873     38872     38874     38876     38875     38877     38879     38878     38880
     38882     38881     38883     38885     38884     38886     38888     38887     38889
     38891     38890     38892     38894     38893     38895     38897     38896     38898
     38900     38899     38901     38903     38902     38904     38906     38905     38907
     38909     38908     38910     38912     38911     38913     38915     38914     38916
     38918     38917     38919     38921     38920     38922     38924     38923     38925
     38927     38926     38928     38930     38929     38931     38933     38932     38934
     38936     38935     38937     38939     38938     38940     38942     38941     38943
     38945     38944     38946     38948     38947     38949     38951     38950     38952
     38954     38953     38955     38957     38956     38958     38960     38959     38961
     38963     38962     38964     38966     38965     38967     38969     38968     38970
     38972     38971     38973     38975     38974     38976     38978     38977     38979
     38981     38980     38982     38984     38983     38985     38987     38986     38988
     38990     38989     38991     38993     38992     38994     38996     38995     38997
     38999     38998     39000     39002     39001     39003     39005     39004     39006
     39008     39007     39009     39011     39010     39012     39014     39013     39015
     39017     39016     39018     39020     39019     39021     39023     39022     39024
     39026     39025     39027     39029     39028     39030     39032     39031     39033
     39035     39034     39036     39038     39037     39039     39041     39040     39042
     39044     39043     39045     39047     39046     39048     39050     39049     39051
     39053     39052     39054     39056     39055     39057     39059     39058     39060
     39062     39061     39063     39065     39064     39066     39068     39067     39069
     39071     39070     39072     39074     39073     39075     39077     39076     39078
     39080     39079     39081     39083     39082     39084     39086     39085     39087
     39089     39088     39090     39092     39091     39093     39095     39094     39096
     39098     39097     39099     39101     39100     39102     39104     39103     39105
     39107     39106     39108     39110     39109     39111     39113     39112     39114
     39116     39115     39117     39119     39118     39120     39122     39121     39123
     39125     39124     39126     39128     39127     39129     39131     39130     39132
     39134     39133     39135     39137     39136     39138     39140     39139     39141
     39143     39142     39144     39146     39145     39147     39149     39148     39150
     39152     39151     39153     39155     39154     39156     39158     39157     39159
     39161     39160     39162     39164     39163     39165     39167     39166     39168
     39170     39169     39171     39173     39172     39174     39176     39175     39177
     39179     39178     39180     39182     39181     39183     39185     39184     39186
     39188     39187     39189     39191     39190     39192     39194     39193     39195
     39197     39196     39198     39200     39199     39201     39203     39202     39204
     39206     39205     39207     39209     39208     39210     39212     39211     39213
     39215     39214     39216     39218     39217     39219     39221     39220     39222
     39224     39223     39225     39227     39226     39228     39230     39229     39231
     39233     39232     39234     39236     39235     39237     39239     39238     39240
     39242     39241     39243     39245     39244     39246     39248     39247     39249
     39251     39250     39252     39254     39253     39255     39257     39256     39258
     39260     39259     39261     39263     39262     39264     39266     39265     39267
     39269     39268     39270     39272     39271     39273     39275     39274     39276
     39278     39277     39279     39281     39280     39282     39284     39283     39285
     39287     39286     39288     39290     39289     39291     39293     39292     39294
     39296     39295     39297     39299     39298     39300     39302     39301     39303
     39305     39304     39306     39308     39307     39309     39311     39310     39312
     39314     39313     39315     39317     39316     39318     39320     39319     39321
     39323     39322     39324     39326     39325     39327     39329     39328     39330
     39332     39331     39333     39335     39334     39336     39338     39337     39339
     39341     39340     39342     39344     39343     39345     39347     39346     39348
     39350     39349     39351     39353     39352     39354     39356     39355     39357
     39359     39358     39360     39362     39361     39363     39365     39364     39366
     39368     39367     39369     39371     39370     39372     39374     39373     39375
     39377     39376     39378     39380     39379     39381     39383     39382     39384
     39386     39385     39387     39389     39388     39390     39392     39391     39393
     39395     39394     39396     39398     39397     39399     39401     39400     39402
     39404     39403     39405     39407     39406     39408     39410     39409     39411
     39413     39412     39414     39416     39415     39417     39419     39418     39420
     39422     39421     39423     39425     39424     39426     39428     39427     39429
     39431     39430     39432     39434     39433     39435     39437     39436     39438
     39440     39439     39441     39443     39442     39444     39446     39445     39447
     39449     39448     39450     39452     39451     39453     39455     39454     39456
     39458     39457     39459     39461     39460     39462     39464     39463     39465
     39467     39466     39468     39470     39469     39471     39473     39472     39474
     39476     39475     39477     39479     39478     39480     39482     39481     39483
     39485     39484     39486     39488     39487     39489     39491     39490     39492
     39494     39493     39495     39497     39496     39498     39500     39499     39501
     39503     39502     39504     39506     39505     39507     39509     39508     39510
     39512     39511     39513     39515     39514     39516     39518     39517     39519
     39521     39520     39522     39524     39523     39525     39527     39526     39528
     39530     39529     39531     39533     39532     39534     39536     39535     39537
     39539     39538     39540     39542     39541     39543     39545     39544     39546
     39548     39547     39549     39551     39550     39552     39554     39553     39555
     39557     39556     39558     39560     39559     39561     39563     39562     39564
     39566     39565     39567     39569     39568     39570     39572     39571     39573
     39575     39574     39576     39578     39577     39579     39581     39580     39582
     39584     39583     39585     39587     39586     39588     39590     39589     39591
     39593     39592     39594     39596     39595     39597     39599     39598     39600
     39602     39601     39603     39605     39604     39606     39608     39607     39609
     39611     39610     39612     39614     39613     39615     39617     39616     39618
     39620     39619     39621     39623     39622     39624     39626     39625     39627
     39629     39628     39630     39632     39631     39633     39635     39634     39636
     39638     39637     39639     39641     39640     39642     39644     39643     39645
     39647     39646     39648     39650     39649     39651     39653     39652     39654
     39656     39655     39657     39659     39658     39660     39662     39661     39663
     39665     39664     39666     39668     39667     39669     39671     39670     39672
     39674     39673     39675     39677     39676     39678     39680     39679     39681
     39683     39682     39684     39686     39685     39687     39689     39688     39690
     39692     39691     39693     39695     39694     39696     39698     39697     39699
     39701     39700     39702     39704     39703     39705     39707     39706     39708
     39710     39709     39711     39713     39712     39714     39716     39715     39717
     39719     39718     39720     39722     39721     39723     39725     39724     39726
     39728     39727     39729     39731     39730     39732     39734     39733     39735
     39737     39736     39738     39740     39739     39741     39743     39742     39744
     39746     39745     39747     39749     39748     39750     39752     39751     39753
     39755     39754     39756     39758     39757     39759     39761     39760     39762
     39764     39763     39765     39767     39766     39768     39770     39769     39771
     39773     39772     39774     39776     39775     39777     39779     39778     39780
     39782     39781     39783     39785     39784     39786     39788     39787     39789
     39791     39790     39792     39794     39793     39795     39797     39796     39798
     39800     39799     39801     39803     39802     39804     39806     39805     39807
     39809     39808     39810     39812     39811     39813     39815     39814     39816
     39818     39817     39819     39821     39820     39822     39824     39823     39825
     39827     39826     39828     39830     39829     39831     39833     39832     39834
     39836     39835     39837     39839     39838     39840     39842     39841     39843
     39845     39844     39846     39848     39847     39849     39851     39850     39852
     39854     39853     39855     39857     39856     39858     39860     39859     39861
     39863     39862     39864     39866     39865     39867     39869     39868     39870
     39872     39871     39873     39875     39874     39876     39878     39877     39879
     39881     39880     39882     39884     39883     39885     39887     39886     39888
     39890     39889     39891     39893     39892     39894     39896     39895     39897
     39899     39898     39900     39902     39901     39903     39905     39904     39906
     39908     39907     39909     39911     39910     39912     39914     39913     39915
     39917     39916     39918     39920     39919     39921     39923     39922     39924
     39926     39925     39927     39929     39928     39930     39932     39931     39933
     39935     39934     39936     39938     39937     39939     39941     39940     39942
     39944     39943     39945     39947     39946     39948     39950     39949     39951
     39953     39952     39954     39956     39955     39957     39959     39958     39960
     39962     39961     39963     39965     39964     39966     39968     39967     39969
     39971     39970     39972     39974     39973     39975     39977     39976     39978
     39980     39979     39981     39983     39982     39984     39986     39985     39987
     39989     39988     39990     39992     39991     39993     39995     39994     39996
     39998     39997     39999     40001     40000     40002     40004     40003     40005
     40007     40006     40008     40010     40009     40011     40013     40012     40014
     40016     40015     40017     40019     40018     40020     40022     40021     40023
     40025     40024     40026     40028     40027     40029     40031     40030     40032
     40034     40033     40035     40037     40036     40038     40040     40039     40041
     40043     40042     40044     40046     40045     40047     40049     40048     40050
     40052     40051     40053     40055     40054     40056     40058     40057     40059
     40061     40060     40062     40064     40063     40065     40067     40066     40068
     40070     40069     40071     40073     40072     40074     40076     40075     40077
     40079     40078     40080     40082     40081     40083     40085     40084     40086
     40088     40087     40089     40091     40090     40092     40094     40093     40095
     40097     40096     40098     40100     40099     40101     40103     40102     40104
     40106     40105     40107     40109     40108     40110     40112     40111     40113
     40115     40114     40116     40118     40117     40119     40121     40120     40122
     40124     40123     40125     40127     40126     40128     40130     40129     40131
     40133     40132     40134     40136     40135     40137     40139     40138     40140
     40142     40141     40143     40145     40144     40146     40148     40147     40149
     40151     40150     40152     40154     40153     40155     40157     40156     40158
     40160     40159     40161     40163     40162     40164     40166     40165     40167
     40169     40168     40170     40172     40171     40173     40175     40174     40176
     40178     40177     40179     40181     40180     40182     40184     40183     40185
     40187     40186     40188     40190     40189     40191     40193     40192     40194
     40196     40195     40197     40199     40198     40200     40202     40201     40203
     40205     40204     40206     40208     40207     40209     40211     40210     40212
     40214     40213     40215     40217     40216     40218     40220     40219     40221
     40223     40222     40224     40226     40225     40227     40229     40228     40230
     40232     40231     40233     40235     40234     40236     40238     40237     40239
     40241     40240     40242     40244     40243     40245     40247     40246     40248
     40250     40249     40251     40253     40252     40254     40256     40255     40257
     40259     40258     40260     40262     40261     40263     40265     40264     40266
     40268     40267     40269     40271     40270     40272     40274     40273     40275
     40277     40276     40278     40280     40279     40281     40283     40282     40284
     40286     40285     40287     40289     40288     40290     40292     40291     40293
     40295     40294     40296     40298     40297     40299     40301     40300     40302
     40304     40303     40305     40307     40306     40308     40310     40309     40311
     40313     40312     40314     40316     40315     40317     40319     40318     40320
     40322     40321     40323     40325     40324     40326     40328     40327     40329
     40331     40330     40332     40334     40333     40335     40337     40336     40338
     40340     40339     40341     40343     40342     40344     40346     40345     40347
     40349     40348     40350     40352     40351     40353     40355     40354     40356
     40358     40357     40359     40361     40360     40362     40364     40363     40365
     40367     40366     40368     40370     40369     40371     40373     40372     40374
     40376     40375     40377     40379     40378     40380     40382     40381     40383
     40385     40384     40386     40388     40387     40389     40391     40390     40392
     40394     40393     40395     40397     40396     40398     40400     40399     40401
     40403     40402     40404     40406     40405     40407     40409     40408     40410
     40412     40411     40413     40415     40414     40416     40418     40417     40419
     40421     40420     40422     40424     40423     40425     40427     40426     40428
     40430     40429     40431     40433     40432     40434     40436     40435     40437
     40439     40438     40440     40442     40441     40443     40445     40444     40446
     40448     40447     40449     40451     40450     40452     40454     40453     40455
     40457     40456     40458     40460     40459     40461     40463     40462     40464
     40466     40465     40467     40469     40468     40470     40472     40471     40473
     40475     40474     40476     40478     40477     40479     40481     40480     40482
     40484     40483     40485     40487     40486     40488     40490     40489     40491
     40493     40492     40494     40496     40495     40497     40499     40498     40500
     40502     40501     40503     40505     40504     40506     40508     40507     40509
     40511     40510     40512     40514     40513     40515     40517     40516     40518
     40520     40519     40521     40523     40522     40524     40526     40525     40527
     40529     40528     40530     40532     40531     40533     40535     40534     40536
     40538     40537     40539     40541     40540     40542     40544     40543     40545
     40547     40546     40548     40550     40549     40551     40553     40552     40554
     40556     40555     40557     40559     40558     40560     40562     40561     40563
     40565     40564     40566     40568     40567     40569     40571     40570     40572
     40574     40573     40575     40577     40576     40578     40580     40579     40581
     40583     40582     40584     40586     40585     40587     40589     40588     40590
     40592     40591     40593     40595     40594     40596     40598     40597     40599
     40601     40600     40602     40604     40603     40605     40607     40606     40608
     40610     40609     40611     40613     40612     40614     40616     40615     40617
     40619     40618     40620     40622     40621     40623     40625     40624     40626
     40628     40627     40629     40631     40630     40632     40634     40633     40635
     40637     40636     40638     40640     40639     40641     40643     40642     40644
     40646     40645     40647     40649     40648     40650     40652     40651     40653
     40655     40654     40656     40658     40657     40659     40661     40660     40662
     40664     40663     40665     40667     40666     40668     40670     40669     40671
     40673     40672     40674     40676     40675     40677     40679     40678     40680
     40682     40681     40683     40685     40684     40686     40688     40687     40689
     40691     40690     40692     40694     40693     40695     40697     40696     40698
     40700     40699     40701     40703     40702     40704     40706     40705     40707
     40709     40708     40710     40712     40711     40713     40715     40714     40716
     40718     40717     40719     40721     40720     40722     40724     40723     40725
     40727     40726     40728     40730     40729     40731     40733     40732     40734
     40736     40735     40737     40739     40738     40740     40742     40741     40743
     40745     40744     40746     40748     40747     40749     40751     40750     40752
     40754     40753     40755     40757     40756     40758     40760     40759     40761
     40763     40762     40764     40766     40765     40767     40769     40768     40770
     40772     40771     40773     40775     40774     40776     40778     40777     40779
     40781     40780     40782     40784     40783     40785     40787     40786     40788
     40790     40789     40791     40793     40792     40794     40796     40795     40797
     40799     40798     40800     40802     40801     40803     40805     40804     40806
     40808     40807     40809     40811     40810     40812     40814     40813     40815
     40817     40816     40818     40820     40819     40821     40823     40822     40824
     40826     40825     40827     40829     40828     40830     40832     40831     40833
     40835     40834     40836     40838     40837     40839     40841     40840     40842
     40844     40843     40845     40847     40846     40848     40850     40849     40851
     40853     40852     40854     40856     40855     40857     40859     40858     40860
     40862     40861     40863     40865     40864     40866     40868     40867     40869
     40871     40870     40872     40874     40873     40875     40877     40876     40878
     40880     40879     40881     40883     40882     40884     40886     40885     40887
     40889     40888     40890     40892     40891     40893     40895     40894     40896
     40898     40897     40899     40901     40900     40902     40904     40903     40905
     40907     40906     40908     40910     40909     40911     40913     40912     40914
     40916     40915     40917     40919     40918     40920     40922     40921     40923
     40925     40924     40926     40928     40927     40929     40931     40930     40932
     40934     40933     40935     40937     40936     40938     40940     40939     40941
     40943     40942     40944     40946     40945     40947     40949     40948     40950
     40952     40951     40953     40955     40954     40956     40958     40957     40959
     40961     40960     40962     40964     40963     40965     40967     40966     40968
     40970     40969     40971     40973     40972     40974     40976     40975     40977
     40979     40978     40980     40982     40981     40983     40985     40984     40986
     40988     40987     40989     40991     40990     40992     40994     40993     40995
     40997     40996     40998     41000     40999     41001     41003     41002     41004
     41006     41005     41007     41009     41008     41010     41012     41011     41013
     41015     41014     41016     41018     41017     41019     41021     41020     41022
     41024     41023     41025     41027     41026     41028     41030     41029     41031
     41033     41032     41034     41036     41035     41037     41039     41038     41040
     41042     41041     41043     41045     41044     41046     41048     41047     41049
     41051     41050     41052     41054     41053     41055     41057     41056     41058
     41060     41059     41061     41063     41062     41064     41066     41065     41067
     41069     41068     41070     41072     41071     41073     41075     41074     41076
     41078     41077     41079     41081     41080     41082     41084     41083     41085
     41087     41086     41088     41090     41089     41091     41093     41092     41094
     41096     41095     41097     41099     41098     41100     41102     41101     41103
     41105     41104     41106     41108     41107     41109     41111     41110     41112
     41114     41113     41115     41117     41116     41118     41120     41119     41121
     41123     41122     41124     41126     41125     41127     41129     41128     41130
     41132     41131     41133     41135     41134     41136     41138     41137     41139
     41141     41140     41142     41144     41143     41145     41147     41146     41148
     41150     41149     41151     41153     41152     41154     41156     41155     41157
     41159     41158     41160     41162     41161     41163     41165     41164     41166
     41168     41167     41169     41171     41170     41172     41174     41173     41175
     41177     41176     41178     41180     41179     41181     41183     41182     41184
     41186     41185     41187     41189     41188     41190     41192     41191     41193
     41195     41194     41196     41198     41197     41199     41201     41200     41202
     41204     41203     41205     41207     41206     41208     41210     41209     41211
     41213     41212     41214     41216     41215     41217     41219     41218     41220
     41222     41221     41223     41225     41224     41226     41228     41227     41229
     41231     41230     41232     41234     41233     41235     41237     41236     41238
     41240     41239     41241     41243     41242     41244     41246     41245     41247
     41249     41248     41250     41252     41251     41253     41255     41254     41256
     41258     41257     41259     41261     41260     41262     41264     41263     41265
     41267     41266     41268     41270     41269     41271     41273     41272     41274
     41276     41275     41277     41279     41278     41280     41282     41281     41283
     41285     41284     41286     41288     41287     41289     41291     41290     41292
     41294     41293     41295     41297     41296     41298     41300     41299     41301
     41303     41302     41304     41306     41305     41307     41309     41308     41310
     41312     41311     41313     41315     41314     41316     41318     41317     41319
     41321     41320     41322     41324     41323     41325     41327     41326     41328
     41330     41329     41331     41333     41332     41334     41336     41335     41337
     41339     41338     41340     41342     41341     41343     41345     41344     41346
     41348     41347     41349     41351     41350     41352     41354     41353     41355
     41357     41356     41358     41360     41359     41361     41363     41362     41364
     41366     41365     41367     41369     41368     41370     41372     41371     41373
     41375     41374     41376     41378     41377     41379     41381     41380     41382
     41384     41383     41385     41387     41386     41388     41390     41389     41391
     41393     41392     41394     41396     41395     41397     41399     41398     41400
     41402     41401     41403     41405     41404     41406     41408     41407     41409
     41411     41410     41412     41414     41413     41415     41417     41416     41418
     41420     41419     41421     41423     41422     41424     41426     41425     41427
     41429     41428     41430     41432     41431     41433     41435     41434     41436
     41438     41437     41439     41441     41440     41442     41444     41443     41445
     41447     41446     41448     41450     41449     41451     41453     41452     41454
     41456     41455     41457     41459     41458     41460     41462     41461     41463
     41465     41464     41466     41468     41467     41469     41471     41470     41472
     41474     41473     41475     41477     41476     41478     41480     41479     41481
     41483     41482     41484     41486     41485     41487     41489     41488     41490
     41492     41491     41493     41495     41494     41496     41498     41497     41499
     41501     41500     41502     41504     41503     41505     41507     41506     41508
     41510     41509     41511     41513     41512     41514     41516     41515     41517
     41519     41518     41520     41522     41521     41523     41525     41524     41526
     41528     41527     41529     41531     41530     41532     41534     41533     41535
     41537     41536     41538     41540     41539     41541     41543     41542     41544
     41546     41545     41547     41549     41548     41550     41552     41551     41553
     41555     41554     41556     41558     41557     41559     41561     41560     41562
     41564     41563     41565     41567     41566     41568     41570     41569     41571
     41573     41572     41574     41576     41575     41577     41579     41578     41580
     41582     41581     41583     41585     41584     41586     41588     41587     41589
     41591     41590     41592     41594     41593     41595     41597     41596     41598
     41600     41599     41601     41603     41602     41604     41606     41605     41607
     41609     41608     41610     41612     41611     41613     41615     41614     41616
     41618     41617     41619     41621     41620     41622     41624     41623     41625
     41627     41626     41628     41630     41629     41631     41633     41632     41634
     41636     41635     41637     41639     41638     41640     41642     41641     41643
     41645     41644     41646     41648     41647     41649     41651     41650     41652
     41654     41653     41655     41657     41656     41658     41660     41659     41661
     41663     41662     41664     41666     41665     41667     41669     41668     41670
     41672     41671     41673     41675     41674     41676     41678     41677     41679
     41681     41680     41682     41684     41683     41685     41687     41686     41688
     41690     41689     41691     41693     41692     41694     41696     41695     41697
     41699     41698     41700     41702     41701     41703     41705     41704     41706
     41708     41707     41709     41711     41710     41712     41714     41713     41715
     41717     41716     41718     41720     41719     41721     41723     41722     41724
     41726     41725     41727     41729     41728     41730     41732     41731     41733
     41735     41734     41736     41738     41737     41739     41741     41740     41742
     41744     41743     41745     41747     41746     41748     41750     41749     41751
     41753     41752     41754     41756     41755     41757     41759     41758     41760
     41762     41761     41763     41765     41764     41766     41768     41767     41769
     41771     41770     41772     41774     41773     41775     41777     41776     41778
     41780     41779     41781     41783     41782     41784     41786     41785     41787
     41789     41788     41790     41792     41791     41793     41795     41794     41796
     41798     41797     41799     41801     41800     41802     41804     41803     41805
     41807     41806     41808     41810     41809     41811     41813     41812     41814
     41816     41815     41817     41819     41818     41820     41822     41821     41823
     41825     41824     41826     41828     41827     41829     41831     41830     41832
     41834     41833     41835     41837     41836     41838     41840     41839     41841
     41843     41842     41844     41846     41845     41847     41849     41848     41850
     41852     41851     41853     41855     41854     41856     41858     41857     41859
     41861     41860     41862     41864     41863     41865     41867     41866     41868
     41870     41869     41871     41873     41872     41874     41876     41875     41877
     41879     41878     41880     41882     41881     41883     41885     41884     41886
     41888     41887     41889     41891     41890     41892     41894     41893     41895
     41897     41896     41898     41900     41899     41901     41903     41902     41904
     41906     41905     41907     41909     41908     41910     41912     41911     41913
     41915     41914     41916     41918     41917     41919     41921     41920     41922
     41924     41923     41925     41927     41926     41928     41930     41929     41931
     41933     41932     41934     41936     41935     41937     41939     41938     41940
     41942     41941     41943     41945     41944     41946     41948     41947     41949
     41951     41950     41952     41954     41953     41955     41957     41956     41958
     41960     41959     41961     41963     41962     41964     41966     41965     41967
     41969     41968     41970     41972     41971     41973     41975     41974     41976
     41978     41977     41979     41981     41980     41982     41984     41983     41985
     41987     41986     41988     41990     41989     41991     41993     41992     41994
     41996     41995     41997     41999     41998     42000     42002     42001     42003
     42005     42004     42006     42008     42007     42009     42011     42010     42012
     42014     42013     42015     42017     42016     42018     42020     42019     42021
     42023     42022     42024     42026     42025     42027     42029     42028     42030
     42032     42031     42033     42035     42034     42036     42038     42037     42039
     42041     42040     42042     42044     42043     42045     42047     42046     42048
     42050     42049     42051     42053     42052     42054     42056     42055     42057
     42059     42058     42060     42062     42061     42063     42065     42064     42066
     42068     42067     42069     42071     42070     42072     42074     42073     42075
     42077     42076     42078     42080     42079     42081     42083     42082     42084
     42086     42085     42087     42089     42088     42090     42092     42091     42093
     42095     42094     42096     42098     42097     42099     42101     42100     42102
     42104     42103     42105     42107     42106     42108     42110     42109     42111
     42113     42112     42114     42116     42115     42117     42119     42118     42120
     42122     42121     42123     42125     42124     42126     42128     42127     42129
     42131     42130     42132     42134     42133     42135     42137     42136     42138
     42140     42139     42141     42143     42142     42144     42146     42145     42147
     42149     42148     42150     42152     42151     42153     42155     42154     42156
     42158     42157     42159     42161     42160     42162     42164     42163     42165
     42167     42166     42168     42170     42169     42171     42173     42172     42174
     42176     42175     42177     42179     42178     42180     42182     42181     42183
     42185     42184     42186     42188     42187     42189     42191     42190     42192
     42194     42193     42195     42197     42196     42198     42200     42199     42201
     42203     42202     42204     42206     42205     42207     42209     42208     42210
     42212     42211     42213     42215     42214     42216     42218     42217     42219
     42221     42220     42222     42224     42223     42225     42227     42226     42228
     42230     42229     42231     42233     42232     42234     42236     42235     42237
     42239     42238     42240     42242     42241     42243     42245     42244     42246
     42248     42247     42249     42251     42250     42252     42254     42253     42255
     42257     42256     42258     42260     42259     42261     42263     42262     42264
     42266     42265     42267     42269     42268     42270     42272     42271     42273
     42275     42274     42276     42278     42277     42279     42281     42280     42282
     42284     42283     42285     42287     42286     42288     42290     42289     42291
     42293     42292     42294     42296     42295     42297     42299     42298     42300
     42302     42301     42303     42305     42304     42306     42308     42307     42309
     42311     42310     42312     42314     42313     42315     42317     42316     42318
     42320     42319     42321     42323     42322     42324     42326     42325     42327
     42329     42328     42330     42332     42331     42333     42335     42334     42336
     42338     42337     42339     42341     42340     42342     42344     42343     42345
     42347     42346     42348     42350     42349     42351     42353     42352     42354
     42356     42355     42357     42359     42358     42360     42362     42361     42363
     42365     42364     42366     42368     42367     42369     42371     42370     42372
     42374     42373     42375     42377     42376     42378     42380     42379     42381
     42383     42382     42384     42386     42385     42387     42389     42388     42390
     42392     42391     42393     42395     42394     42396     42398     42397     42399
     42401     42400     42402     42404     42403     42405     42407     42406     42408
     42410     42409     42411     42413     42412     42414     42416     42415     42417
     42419     42418     42420     42422     42421     42423     42425     42424     42426
     42428     42427     42429     42431     42430     42432     42434     42433     42435
     42437     42436     42438     42440     42439     42441     42443     42442     42444
     42446     42445     42447     42449     42448     42450     42452     42451     42453
     42455     42454     42456     42458     42457     42459     42461     42460     42462
     42464     42463     42465     42467     42466     42468     42470     42469     42471
     42473     42472     42474     42476     42475     42477     42479     42478     42480
     42482     42481     42483     42485     42484     42486     42488     42487     42489
     42491     42490     42492     42494     42493     42495     42497     42496     42498
     42500     42499     42501     42503     42502     42504     42506     42505     42507
     42509     42508     42510     42512     42511     42513     42515     42514     42516
     42518     42517     42519     42521     42520     42522     42524     42523     42525
     42527     42526     42528     42530     42529     42531     42533     42532     42534
     42536     42535     42537     42539     42538     42540     42542     42541     42543
     42545     42544     42546     42548     42547     42549     42551     42550     42552
     42554     42553     42555     42557     42556     42558     42560     42559     42561
     42563     42562     42564     42566     42565     42567     42569     42568     42570
     42572     42571     42573     42575     42574     42576     42578     42577     42579
     42581     42580     42582     42584     42583     42585     42587     42586     42588
     42590     42589     42591     42593     42592     42594     42596     42595     42597
     42599     42598     42600     42602     42601     42603     42605     42604     42606
     42608     42607     42609     42611     42610     42612     42614     42613     42615
     42617     42616     42618     42620     42619     42621     42623     42622     42624
     42626     42625     42627     42629     42628     42630     42632     42631     42633
     42635     42634     42636     42638     42637     42639     42641     42640     42642
     42644     42643     42645     42647     42646     42648     42650     42649     42651
     42653     42652     42654     42656     42655     42657     42659     42658     42660
     42662     42661     42663     42665     42664     42666     42668     42667     42669
     42671     42670     42672     42674     42673     42675     42677     42676     42678
     42680     42679     42681     42683     42682     42684     42686     42685     42687
     42689     42688     42690     42692     42691     42693     42695     42694     42696
     42698     42697     42699     42701     42700     42702     42704     42703     42705
     42707     42706     42708     42710     42709     42711     42713     42712     42714
     42716     42715     42717     42719     42718     42720     42722     42721     42723
     42725     42724     42726     42728     42727     42729     42731     42730     42732
     42734     42733     42735     42737     42736     42738     42740     42739     42741
     42743     42742     42744     42746     42745     42747     42749     42748     42750
     42752     42751     42753     42755     42754     42756     42758     42757     42759
     42761     42760     42762     42764     42763     42765     42767     42766     42768
     42770     42769     42771     42773     42772     42774     42776     42775     42777
     42779     42778     42780     42782     42781     42783     42785     42784     42786
     42788     42787     42789     42791     42790     42792     42794     42793     42795
     42797     42796     42798     42800     42799     42801     42803     42802     42804
     42806     42805     42807     42809     42808     42810     42812     42811     42813
     42815     42814     42816     42818     42817     42819     42821     42820     42822
     42824     42823     42825     42827     42826     42828     42830     42829     42831
     42833     42832     42834     42836     42835     42837     42839     42838     42840
     42842     42841     42843     42845     42844     42846     42848     42847     42849
     42851     42850     42852     42854     42853     42855     42857     42856     42858
     42860     42859     42861     42863     42862     42864     42866     42865     42867
     42869     42868     42870     42872     42871     42873     42875     42874     42876
     42878     42877     42879     42881     42880     42882     42884     42883     42885
     42887     42886     42888     42890     42889     42891     42893     42892     42894
     42896     42895     42897     42899     42898     42900     42902     42901     42903
     42905     42904     42906     42908     42907     42909     42911     42910     42912
     42914     42913     42915     42917     42916     42918     42920     42919     42921
     42923     42922     42924     42926     42925     42927     42929     42928     42930
     42932     42931     42933     42935     42934     42936     42938     42937     42939
     42941     42940     42942     42944     42943     42945     42947     42946     42948
     42950     42949     42951     42953     42952     42954     42956     42955     42957
     42959     42958     42960     42962     42961     42963     42965     42964     42966
     42968     42967     42969     42971     42970     42972     42974     42973     42975
     42977     42976     42978     42980     42979     42981     42983     42982     42984
     42986     42985     42987     42989     42988     42990     42992     42991     42993
     42995     42994     42996     42998     42997     42999     43001     43000     43002
     43004     43003     43005     43007     43006     43008     43010     43009     43011
     43013     43012     43014     43016     43015     43017     43019     43018     43020
     43022     43021     43023     43025     43024     43026     43028     43027     43029
     43031     43030     43032     43034     43033     43035     43037     43036     43038
     43040     43039     43041     43043     43042     43044     43046     43045     43047
     43049     43048     43050     43052     43051     43053     43055     43054     43056
     43058     43057     43059     43061     43060     43062     43064     43063     43065
     43067     43066     43068     43070     43069     43071     43073     43072     43074
     43076     43075     43077     43079     43078     43080     43082     43081     43083
     43085     43084     43086     43088     43087     43089     43091     43090     43092
     43094     43093     43095     43097     43096     43098     43100     43099     43101
     43103     43102     43104     43106     43105     43107     43109     43108     43110
     43112     43111     43113     43115     43114     43116     43118     43117     43119
     43121     43120     43122     43124     43123     43125     43127     43126     43128
     43130     43129     43131     43133     43132     43134     43136     43135     43137
     43139     43138     43140     43142     43141     43143     43145     43144     43146
     43148     43147     43149     43151     43150     43152     43154     43153     43155
     43157     43156     43158     43160     43159     43161     43163     43162     43164
     43166     43165     43167     43169     43168     43170     43172     43171     43173
     43175     43174     43176     43178     43177     43179     43181     43180     43182
     43184     43183     43185     43187     43186     43188     43190     43189     43191
     43193     43192     43194     43196     43195     43197     43199     43198     43200
     43202     43201     43203     43205     43204     43206     43208     43207     43209
     43211     43210     43212     43214     43213     43215     43217     43216     43218
     43220     43219     43221     43223     43222     43224     43226     43225     43227
     43229     43228     43230     43232     43231     43233     43235     43234     43236
     43238     43237     43239     43241     43240     43242     43244     43243     43245
     43247     43246     43248     43250     43249     43251     43253     43252     43254
     43256     43255     43257     43259     43258     43260     43262     43261     43263
     43265     43264     43266     43268     43267     43269     43271     43270     43272
     43274     43273     43275     43277     43276     43278     43280     43279     43281
     43283     43282     43284     43286     43285     43287     43289     43288     43290
     43292     43291     43293     43295     43294     43296     43298     43297     43299
     43301     43300     43302     43304     43303     43305     43307     43306     43308
     43310     43309     43311     43313     43312     43314     43316     43315     43317
     43319     43318     43320     43322     43321     43323     43325     43324     43326
     43328     43327     43329     43331     43330     43332     43334     43333     43335
     43337     43336     43338     43340     43339     43341     43343     43342     43344
     43346     43345     43347     43349     43348     43350     43352     43351     43353
     43355     43354     43356     43358     43357     43359     43361     43360     43362
     43364     43363     43365     43367     43366     43368     43370     43369     43371
     43373     43372     43374     43376     43375     43377     43379     43378     43380
     43382     43381     43383     43385     43384     43386     43388     43387     43389
     43391     43390     43392     43394     43393     43395     43397     43396     43398
     43400     43399     43401     43403     43402     43404     43406     43405     43407
     43409     43408     43410     43412     43411     43413     43415     43414     43416
     43418     43417     43419     43421     43420     43422     43424     43423     43425
     43427     43426     43428     43430     43429     43431     43433     43432     43434
     43436     43435     43437     43439     43438     43440     43442     43441     43443
     43445     43444     43446     43448     43447     43449     43451     43450     43452
     43454     43453     43455     43457     43456     43458     43460     43459     43461
     43463     43462     43464     43466     43465     43467     43469     43468     43470
     43472     43471     43473     43475     43474     43476     43478     43477     43479
     43481     43480     43482     43484     43483     43485     43487     43486     43488
     43490     43489     43491     43493     43492     43494     43496     43495     43497
     43499     43498     43500     43502     43501     43503     43505     43504     43506
     43508     43507     43509     43511     43510     43512     43514     43513     43515
     43517     43516     43518     43520     43519     43521     43523     43522     43524
     43526     43525     43527     43529     43528     43530     43532     43531     43533
     43535     43534     43536     43538     43537     43539     43541     43540     43542
     43544     43543     43545     43547     43546     43548     43550     43549     43551
     43553     43552     43554     43556     43555     43557     43559     43558     43560
     43562     43561     43563     43565     43564     43566     43568     43567     43569
     43571     43570     43572     43574     43573     43575     43577     43576     43578
     43580     43579     43581     43583     43582     43584     43586     43585     43587
     43589     43588     43590     43592     43591     43593     43595     43594     43596
     43598     43597     43599     43601     43600     43602     43604     43603     43605
     43607     43606     43608     43610     43609     43611     43613     43612     43614
     43616     43615     43617     43619     43618     43620     43622     43621     43623
     43625     43624     43626     43628     43627     43629     43631     43630     43632
     43634     43633     43635     43637     43636     43638     43640     43639     43641
     43643     43642     43644     43646     43645     43647     43649     43648     43650
     43652     43651     43653     43655     43654     43656     43658     43657     43659
     43661     43660     43662     43664     43663     43665     43667     43666     43668
     43670     43669     43671     43673     43672     43674     43676     43675     43677
     43679     43678     43680     43682     43681     43683     43685     43684     43686
     43688     43687     43689     43691     43690     43692     43694     43693     43695
     43697     43696     43698     43700     43699     43701     43703     43702     43704
     43706     43705     43707     43709     43708     43710     43712     43711     43713
     43715     43714     43716     43718     43717     43719     43721     43720     43722
     43724     43723     43725     43727     43726     43728     43730     43729     43731
     43733     43732     43734     43736     43735     43737     43739     43738     43740
     43742     43741     43743     43745     43744     43746     43748     43747     43749
     43751     43750     43752     43754     43753     43755     43757     43756     43758
     43760     43759     43761     43763     43762     43764     43766     43765     43767
     43769     43768     43770     43772     43771     43773     43775     43774     43776
     43778     43777     43779     43781     43780     43782     43784     43783     43785
     43787     43786     43788     43790     43789     43791     43793     43792     43794
     43796     43795     43797     43799     43798     43800     43802     43801     43803
     43805     43804     43806     43808     43807     43809     43811     43810     43812
     43814     43813     43815     43817     43816     43818     43820     43819     43821
     43823     43822     43824     43826     43825     43827     43829     43828     43830
     43832     43831     43833     43835     43834     43836     43838     43837     43839
     43841     43840     43842     43844     43843     43845     43847     43846     43848
     43850     43849     43851     43853     43852     43854     43856     43855     43857
     43859     43858     43860     43862     43861     43863     43865     43864     43866
     43868     43867     43869     43871     43870     43872     43874     43873     43875
     43877     43876     43878     43880     43879     43881     43883     43882     43884
     43886     43885     43887     43889     43888     43890     43892     43891     43893
     43895     43894     43896     43898     43897     43899     43901     43900     43902
     43904     43903     43905     43907     43906     43908     43910     43909     43911
     43913     43912     43914     43916     43915     43917     43919     43918     43920
     43922     43921     43923     43925     43924     43926     43928     43927     43929
     43931     43930     43932     43934     43933     43935     43937     43936     43938
     43940     43939     43941     43943     43942     43944     43946     43945     43947
     43949     43948     43950     43952     43951     43953     43955     43954     43956
     43958     43957     43959     43961     43960     43962     43964     43963     43965
     43967     43966     43968     43970     43969     43971     43973     43972     43974
     43976     43975     43977     43979     43978     43980     43982     43981     43983
     43985     43984     43986     43988     43987     43989     43991     43990     43992
     43994     43993     43995     43997     43996     43998     44000     43999     44001
     44003     44002     44004     44006     44005     44007     44009     44008     44010
     44012     44011     44013     44015     44014     44016     44018     44017     44019
     44021     44020     44022     44024     44023     44025     44027     44026     44028
     44030     44029     44031     44033     44032     44034     44036     44035     44037
     44039     44038     44040     44042     44041     44043     44045     44044     44046
     44048     44047     44049     44051     44050     44052     44054     44053     44055
     44057     44056     44058     44060     44059     44061     44063     44062     44064
     44066     44065     44067     44069     44068     44070     44072     44071     44073
     44075     44074     44076     44078     44077     44079     44081     44080     44082
     44084     44083     44085     44087     44086     44088     44090     44089     44091
     44093     44092     44094     44096     44095     44097     44099     44098     44100
     44102     44101     44103     44105     44104     44106     44108     44107     44109
     44111     44110     44112     44114     44113     44115     44117     44116     44118
     44120     44119     44121     44123     44122     44124     44126     44125     44127
     44129     44128     44130     44132     44131     44133     44135     44134     44136
     44138     44137     44139     44141     44140     44142     44144     44143     44145
     44147     44146     44148     44150     44149     44151     44153     44152     44154
     44156     44155     44157     44159     44158     44160     44162     44161     44163
     44165     44164     44166     44168     44167     44169     44171     44170     44172
     44174     44173     44175     44177     44176     44178     44180     44179     44181
     44183     44182     44184     44186     44185     44187     44189     44188     44190
     44192     44191     44193     44195     44194     44196     44198     44197     44199
     44201     44200     44202     44204     44203     44205     44207     44206     44208
     44210     44209     44211     44213     44212     44214     44216     44215     44217
     44219     44218     44220     44222     44221     44223     44225     44224     44226
     44228     44227     44229     44231     44230     44232     44234     44233     44235
     44237     44236     44238     44240     44239     44241     44243     44242     44244
     44246     44245     44247     44249     44248     44250     44252     44251     44253
     44255     44254     44256     44258     44257     44259     44261     44260     44262
     44264     44263     44265     44267     44266     44268     44270     44269     44271
     44273     44272     44274     44276     44275     44277     44279     44278     44280
     44282     44281     44283     44285     44284     44286     44288     44287     44289
     44291     44290     44292     44294     44293     44295     44297     44296     44298
     44300     44299     44301     44303     44302     44304     44306     44305     44307
     44309     44308     44310     44312     44311     44313     44315     44314     44316
     44318     44317     44319     44321     44320     44322     44324     44323     44325
     44327     44326     44328     44330     44329     44331     44333     44332     44334
     44336     44335     44337     44339     44338     44340     44342     44341     44343
     44345     44344     44346     44348     44347     44349     44351     44350     44352
     44354     44353     44355     44357     44356     44358     44360     44359     44361
     44363     44362     44364     44366     44365     44367     44369     44368     44370
     44372     44371     44373     44375     44374     44376     44378     44377     44379
     44381     44380     44382     44384     44383     44385     44387     44386     44388
     44390     44389     44391     44393     44392     44394     44396     44395     44397
     44399     44398     44400     44402     44401     44403     44405     44404     44406
     44408     44407     44409     44411     44410     44412     44414     44413     44415
     44417     44416     44418     44420     44419     44421     44423     44422     44424
     44426     44425     44427     44429     44428     44430     44432     44431     44433
     44435     44434     44436     44438     44437     44439     44441     44440     44442
     44444     44443     44445     44447     44446     44448     44450     44449     44451
     44453     44452     44454     44456     44455     44457     44459     44458     44460
     44462     44461     44463     44465     44464     44466     44468     44467     44469
     44471     44470     44472     44474     44473     44475     44477     44476     44478
     44480     44479     44481     44483     44482     44484     44486     44485     44487
     44489     44488     44490     44492     44491     44493     44495     44494     44496
     44498     44497     44499     44501     44500     44502     44504     44503     44505
     44507     44506     44508     44510     44509     44511     44513     44512     44514
     44516     44515     44517     44519     44518     44520     44522     44521     44523
     44525     44524     44526     44528     44527     44529     44531     44530     44532
     44534     44533     44535     44537     44536     44538     44540     44539     44541
     44543     44542     44544     44546     44545     44547     44549     44548     44550
     44552     44551     44553     44555     44554     44556     44558     44557     44559
     44561     44560     44562     44564     44563     44565     44567     44566     44568
     44570     44569     44571     44573     44572     44574     44576     44575     44577
     44579     44578     44580     44582     44581     44583     44585     44584     44586
     44588     44587     44589     44591     44590     44592     44594     44593     44595
     44597     44596     44598     44600     44599     44601     44603     44602     44604
     44606     44605     44607     44609     44608     44610     44612     44611     44613
     44615     44614     44616     44618     44617     44619     44621     44620     44622
     44624     44623     44625     44627     44626     44628     44630     44629     44631
     44633     44632     44634     44636     44635     44637     44639     44638     44640
     44642     44641     44643     44645     44644     44646     44648     44647     44649
     44651     44650     44652     44654     44653     44655     44657     44656     44658
     44660     44659     44661     44663     44662     44664     44666     44665     44667
     44669     44668     44670     44672     44671     44673     44675     44674     44676
     44678     44677     44679     44681     44680     44682     44684     44683     44685
     44687     44686     44688     44690     44689     44691     44693     44692     44694
     44696     44695     44697     44699     44698     44700     44702     44701     44703
     44705     44704     44706     44708     44707     44709     44711     44710     44712
     44714     44713     44715     44717     44716     44718     44720     44719     44721
     44723     44722     44724     44726     44725     44727     44729     44728     44730
     44732     44731     44733     44735     44734     44736     44738     44737     44739
     44741     44740     44742     44744     44743     44745     44747     44746     44748
     44750     44749     44751     44753     44752     44754     44756     44755     44757
     44759     44758     44760     44762     44761     44763     44765     44764     44766
     44768     44767     44769     44771     44770     44772     44774     44773     44775
     44777     44776     44778     44780     44779     44781     44783     44782     44784
     44786     44785     44787     44789     44788     44790     44792     44791     44793
     44795     44794     44796     44798     44797     44799     44801     44800     44802
     44804     44803     44805     44807     44806     44808     44810     44809     44811
     44813     44812     44814     44816     44815     44817     44819     44818     44820
     44822     44821     44823     44825     44824     44826     44828     44827     44829
     44831     44830     44832     44834     44833     44835     44837     44836     44838
     44840     44839     44841     44843     44842     44844     44846     44845     44847
     44849     44848     44850     44852     44851     44853     44855     44854     44856
     44858     44857     44859     44861     44860     44862     44864     44863     44865
     44867     44866     44868     44870     44869     44871     44873     44872     44874
     44876     44875     44877     44879     44878     44880     44882     44881     44883
     44885     44884     44886     44888     44887     44889     44891     44890     44892
     44894     44893     44895     44897     44896     44898     44900     44899     44901
     44903     44902     44904     44906     44905     44907     44909     44908     44910
     44912     44911     44913     44915     44914     44916     44918     44917     44919
     44921     44920     44922     44924     44923     44925     44927     44926     44928
     44930     44929     44931     44933     44932     44934     44936     44935     44937
     44939     44938     44940     44942     44941     44943     44945     44944     44946
     44948     44947     44949     44951     44950     44952     44954     44953     44955
     44957     44956     44958     44960     44959     44961     44963     44962     44964
     44966     44965     44967     44969     44968     44970     44972     44971     44973
     44975     44974     44976     44978     44977     44979     44981     44980     44982
     44984     44983     44985     44987     44986     44988     44990     44989     44991
     44993     44992     44994     44996     44995     44997     44999     44998     45000
     45002     45001     45003     45005     45004     45006     45008     45007     45009
     45011     45010     45012     45014     45013     45015     45017     45016     45018
     45020     45019     45021     45023     45022     45024     45026     45025     45027
     45029     45028     45030     45032     45031     45033     45035     45034     45036
     45038     45037     45039     45041     45040     45042     45044     45043     45045
     45047     45046     45048     45050     45049     45051     45053     45052     45054
     45056     45055     45057     45059     45058     45060     45062     45061     45063
     45065     45064     45066     45068     45067     45069     45071     45070     45072
     45074     45073     45075     45077     45076     45078     45080     45079     45081
     45083     45082     45084     45086     45085     45087     45089     45088     45090
     45092     45091     45093     45095     45094     45096     45098     45097     45099
     45101     45100     45102     45104     45103     45105     45107     45106     45108
     45110     45109     45111     45113     45112     45114     45116     45115     45117
     45119     45118     45120     45122     45121     45123     45125     45124     45126
     45128     45127     45129     45131     45130     45132     45134     45133     45135
     45137     45136     45138     45140     45139     45141     45143     45142     45144
     45146     45145     45147     45149     45148     45150     45152     45151     45153
     45155     45154     45156     45158     45157     45159     45161     45160     45162
     45164     45163     45165     45167     45166     45168     45170     45169     45171
     45173     45172     45174     45176     45175     45177     45179     45178     45180
     45182     45181     45183     45185     45184     45186     45188     45187     45189
     45191     45190     45192     45194     45193     45195     45197     45196     45198
     45200     45199     45201     45203     45202     45204     45206     45205     45207
     45209     45208     45210     45212     45211     45213     45215     45214     45216
     45218     45217     45219     45221     45220     45222     45224     45223     45225
     45227     45226     45228     45230     45229     45231     45233     45232     45234
     45236     45235     45237     45239     45238     45240     45242     45241     45243
     45245     45244     45246     45248     45247     45249     45251     45250     45252
     45254     45253     45255     45257     45256     45258     45260     45259     45261
     45263     45262     45264     45266     45265     45267     45269     45268     45270
     45272     45271     45273     45275     45274     45276     45278     45277     45279
     45281     45280     45282     45284     45283     45285     45287     45286     45288
     45290     45289     45291     45293     45292     45294     45296     45295     45297
     45299     45298     45300     45302     45301     45303     45305     45304     45306
     45308     45307     45309     45311     45310     45312     45314     45313     45315
     45317     45316     45318     45320     45319     45321     45323     45322     45324
     45326     45325     45327     45329     45328     45330     45332     45331     45333
     45335     45334     45336     45338     45337     45339     45341     45340     45342
     45344     45343     45345     45347     45346     45348     45350     45349     45351
     45353     45352     45354     45356     45355     45357     45359     45358     45360
     45362     45361     45363     45365     45364     45366     45368     45367     45369
     45371     45370     45372     45374     45373     45375     45377     45376     45378
     45380     45379     45381     45383     45382     45384     45386     45385     45387
     45389     45388     45390     45392     45391     45393     45395     45394     45396
     45398     45397     45399     45401     45400     45402     45404     45403     45405
     45407     45406     45408     45410     45409     45411     45413     45412     45414
     45416     45415     45417     45419     45418     45420     45422     45421     45423
     45425     45424     45426     45428     45427     45429     45431     45430     45432
     45434     45433     45435     45437     45436     45438     45440     45439     45441
     45443     45442     45444     45446     45445     45447     45449     45448     45450
     45452     45451     45453     45455     45454     45456     45458     45457     45459
     45461     45460     45462     45464     45463     45465     45467     45466     45468
     45470     45469     45471     45473     45472     45474     45476     45475     45477
     45479     45478     45480     45482     45481     45483     45485     45484     45486
     45488     45487     45489     45491     45490     45492     45494     45493     45495
     45497     45496     45498     45500     45499     45501     45503     45502     45504
     45506     45505     45507     45509     45508     45510     45512     45511     45513
     45515     45514     45516     45518     45517     45519     45521     45520     45522
     45524     45523     45525     45527     45526     45528     45530     45529     45531
     45533     45532     45534     45536     45535     45537     45539     45538     45540
     45542     45541     45543     45545     45544     45546     45548     45547     45549
     45551     45550     45552     45554     45553     45555     45557     45556     45558
     45560     45559     45561     45563     45562     45564     45566     45565     45567
     45569     45568     45570     45572     45571     45573     45575     45574     45576
     45578     45577     45579     45581     45580     45582     45584     45583     45585
     45587     45586     45588     45590     45589     45591     45593     45592     45594
     45596     45595     45597     45599     45598     45600     45602     45601     45603
     45605     45604     45606     45608     45607     45609     45611     45610     45612
     45614     45613     45615     45617     45616     45618     45620     45619     45621
     45623     45622     45624     45626     45625     45627     45629     45628     45630
     45632     45631     45633     45635     45634     45636     45638     45637     45639
     45641     45640     45642     45644     45643     45645     45647     45646     45648
     45650     45649     45651     45653     45652     45654     45656     45655     45657
     45659     45658     45660     45662     45661     45663     45665     45664     45666
     45668     45667     45669     45671     45670     45672     45674     45673     45675
     45677     45676     45678     45680     45679     45681     45683     45682     45684
     45686     45685     45687     45689     45688     45690     45692     45691     45693
     45695     45694     45696     45698     45697     45699     45701     45700     45702
     45704     45703     45705     45707     45706     45708     45710     45709     45711
     45713     45712     45714     45716     45715     45717     45719     45718     45720
     45722     45721     45723     45725     45724     45726     45728     45727     45729
     45731     45730     45732     45734     45733     45735     45737     45736     45738
     45740     45739     45741     45743     45742     45744     45746     45745     45747
     45749     45748     45750     45752     45751     45753     45755     45754     45756
     45758     45757     45759     45761     45760     45762     45764     45763     45765
     45767     45766     45768     45770     45769     45771     45773     45772     45774
     45776     45775     45777     45779     45778     45780     45782     45781     45783
     45785     45784     45786     45788     45787     45789     45791     45790     45792
     45794     45793     45795     45797     45796     45798     45800     45799     45801
     45803     45802     45804     45806     45805     45807     45809     45808     45810
     45812     45811     45813     45815     45814     45816     45818     45817     45819
     45821     45820     45822     45824     45823     45825     45827     45826     45828
     45830     45829     45831     45833     45832     45834     45836     45835     45837
     45839     45838     45840     45842     45841     45843     45845     45844     45846
     45848     45847     45849     45851     45850     45852     45854     45853     45855
     45857     45856     45858     45860     45859     45861     45863     45862     45864
     45866     45865     45867     45869     45868     45870     45872     45871     45873
     45875     45874     45876     45878     45877     45879     45881     45880     45882
     45884     45883     45885     45887     45886     45888     45890     45889     45891
     45893     45892     45894     45896     45895     45897     45899     45898     45900
     45902     45901     45903     45905     45904     45906     45908     45907     45909
     45911     45910     45912     45914     45913     45915     45917     45916     45918
     45920     45919     45921     45923     45922     45924     45926     45925     45927
     45929     45928     45930     45932     45931     45933     45935     45934     45936
     45938     45937     45939     45941     45940     45942     45944     45943     45945
     45947     45946     45948     45950     45949     45951     45953     45952     45954
     45956     45955     45957     45959     45958     45960     45962     45961     45963
     45965     45964     45966     45968     45967     45969     45971     45970     45972
     45974     45973     45975     45977     45976     45978     45980     45979     45981
     45983     45982     45984     45986     45985     45987     45989     45988     45990
     45992     45991     45993     45995     45994     45996     45998     45997     45999
     46001     46000     46002     46004     46003     46005     46007     46006     46008
     46010     46009     46011     46013     46012     46014     46016     46015     46017
     46019     46018     46020     46022     46021     46023     46025     46024     46026
     46028     46027     46029     46031     46030     46032     46034     46033     46035
     46037     46036     46038     46040     46039     46041     46043     46042     46044
     46046     46045     46047     46049     46048     46050     46052     46051     46053
     46055     46054     46056     46058     46057     46059     46061     46060     46062
     46064     46063     46065     46067     46066     46068     46070     46069     46071
     46073     46072     46074     46076     46075     46077     46079     46078     46080
     46082     46081     46083     46085     46084     46086     46088     46087     46089
     46091     46090     46092     46094     46093     46095     46097     46096     46098
     46100     46099     46101     46103     46102     46104     46106     46105     46107
     46109     46108     46110     46112     46111     46113     46115     46114     46116
     46118     46117     46119     46121     46120     46122     46124     46123     46125
     46127     46126     46128     46130     46129     46131     46133     46132     46134
     46136     46135     46137     46139     46138     46140     46142     46141     46143
     46145     46144     46146     46148     46147     46149     46151     46150     46152
     46154     46153     46155     46157     46156     46158     46160     46159     46161
     46163     46162     46164     46166     46165     46167     46169     46168     46170
     46172     46171     46173     46175     46174     46176     46178     46177     46179
     46181     46180     46182     46184     46183     46185     46187     46186     46188
     46190     46189     46191     46193     46192     46194     46196     46195     46197
     46199     46198     46200     46202     46201     46203     46205     46204     46206
     46208     46207     46209     46211     46210     46212     46214     46213     46215
     46217     46216     46218     46220     46219     46221     46223     46222     46224
     46226     46225     46227     46229     46228     46230     46232     46231     46233
     46235     46234     46236     46238     46237     46239     46241     46240     46242
     46244     46243     46245     46247     46246     46248     46250     46249     46251
     46253     46252     46254     46256     46255     46257     46259     46258     46260
     46262     46261     46263     46265     46264     46266     46268     46267     46269
     46271     46270     46272     46274     46273     46275     46277     46276     46278
     46280     46279     46281     46283     46282     46284     46286     46285     46287
     46289     46288     46290     46292     46291     46293     46295     46294     46296
     46298     46297     46299     46301     46300     46302     46304     46303     46305
     46307     46306     46308     46310     46309     46311     46313     46312     46314
     46316     46315     46317     46319     46318     46320     46322     46321     46323
     46325     46324     46326     46328     46327     46329     46331     46330     46332
     46334     46333     46335     46337     46336     46338     46340     46339     46341
     46343     46342     46344     46346     46345     46347     46349     46348     46350
     46352     46351     46353     46355     46354     46356     46358     46357     46359
     46361     46360     46362     46364     46363     46365     46367     46366     46368
     46370     46369     46371     46373     46372     46374     46376     46375     46377
     46379     46378     46380     46382     46381     46383     46385     46384     46386
     46388     46387     46389     46391     46390     46392     46394     46393     46395
     46397     46396     46398     46400     46399     46401     46403     46402     46404
     46406     46405     46407     46409     46408     46410     46412     46411     46413
     46415     46414     46416     46418     46417     46419     46421     46420     46422
     46424     46423     46425     46427     46426     46428     46430     46429     46431
     46433     46432     46434     46436     46435     46437     46439     46438     46440
     46442     46441     46443     46445     46444     46446     46448     46447     46449
     46451     46450     46452     46454     46453     46455     46457     46456     46458
     46460     46459     46461     46463     46462     46464     46466     46465     46467
     46469     46468     46470     46472     46471     46473     46475     46474     46476
     46478     46477     46479     46481     46480     46482     46484     46483     46485
     46487     46486     46488     46490     46489     46491     46493     46492     46494
     46496     46495     46497     46499     46498     46500     46502     46501     46503
     46505     46504     46506     46508     46507     46509     46511     46510     46512
     46514     46513     46515     46517     46516     46518     46520     46519     46521
     46523     46522     46524     46526     46525     46527     46529     46528     46530
     46532     46531     46533     46535     46534     46536     46538     46537     46539
     46541     46540     46542     46544     46543     46545     46547     46546     46548
     46550     46549     46551     46553     46552     46554     46556     46555     46557
     46559     46558     46560     46562     46561     46563     46565     46564     46566
     46568     46567     46569     46571     46570     46572     46574     46573     46575
     46577     46576     46578     46580     46579     46581     46583     46582     46584
     46586     46585     46587     46589     46588     46590     46592     46591     46593
     46595     46594     46596     46598     46597     46599     46601     46600     46602
     46604     46603     46605     46607     46606     46608     46610     46609     46611
     46613     46612     46614     46616     46615     46617     46619     46618     46620
     46622     46621     46623     46625     46624     46626     46628     46627     46629
     46631     46630     46632     46634     46633     46635     46637     46636     46638
     46640     46639     46641     46643     46642     46644     46646     46645     46647
     46649     46648     46650     46652     46651     46653     46655     46654     46656
     46658     46657     46659     46661     46660     46662     46664     46663     46665
     46667     46666     46668     46670     46669     46671     46673     46672     46674
     46676     46675     46677     46679     46678     46680     46682     46681     46683
     46685     46684     46686     46688     46687     46689     46691     46690     46692
     46694     46693     46695     46697     46696     46698     46700     46699     46701
     46703     46702     46704     46706     46705     46707     46709     46708     46710
     46712     46711     46713     46715     46714     46716     46718     46717     46719
     46721     46720     46722     46724     46723     46725     46727     46726     46728
     46730     46729     46731     46733     46732     46734     46736     46735     46737
     46739     46738     46740     46742     46741     46743     46745     46744     46746
     46748     46747     46749     46751     46750     46752     46754     46753     46755
     46757     46756     46758     46760     46759     46761     46763     46762     46764
     46766     46765     46767     46769     46768     46770     46772     46771     46773
     46775     46774     46776     46778     46777     46779     46781     46780     46782
     46784     46783     46785     46787     46786     46788     46790     46789     46791
     46793     46792     46794     46796     46795     46797     46799     46798     46800
     46802     46801     46803     46805     46804     46806     46808     46807     46809
     46811     46810     46812     46814     46813     46815     46817     46816     46818
     46820     46819     46821     46823     46822     46824     46826     46825     46827
     46829     46828     46830     46832     46831     46833     46835     46834     46836
     46838     46837     46839     46841     46840     46842     46844     46843     46845
     46847     46846     46848     46850     46849     46851     46853     46852     46854
     46856     46855     46857     46859     46858     46860     46862     46861     46863
     46865     46864     46866     46868     46867     46869     46871     46870     46872
     46874     46873     46875     46877     46876     46878     46880     46879     46881
     46883     46882     46884     46886     46885     46887     46889     46888     46890
     46892     46891     46893     46895     46894     46896     46898     46897     46899
     46901     46900     46902     46904     46903     46905     46907     46906     46908
     46910     46909     46911     46913     46912     46914     46916     46915     46917
     46919     46918     46920     46922     46921     46923     46925     46924     46926
     46928     46927     46929     46931     46930     46932     46934     46933     46935
     46937     46936     46938     46940     46939     46941     46943     46942     46944
     46946     46945     46947     46949     46948     46950     46952     46951     46953
     46955     46954     46956     46958     46957     46959     46961     46960     46962
     46964     46963     46965     46967     46966     46968     46970     46969     46971
     46973     46972     46974     46976     46975     46977     46979     46978     46980
     46982     46981     46983     46985     46984     46986     46988     46987     46989
     46991     46990     46992     46994     46993     46995     46997     46996     46998
     47000     46999     47001     47003     47002     47004     47006     47005     47007
     47009     47008     47010     47012     47011     47013     47015     47014     47016
     47018     47017     47019     47021     47020     47022     47024     47023     47025
     47027     47026     47028     47030     47029     47031     47033     47032     47034
     47036     47035     47037     47039     47038     47040     47042     47041     47043
     47045     47044     47046     47048     47047     47049     47051     47050     47052
     47054     47053     47055     47057     47056     47058     47060     47059     47061
     47063     47062     47064     47066     47065     47067     47069     47068     47070
     47072     47071     47073     47075     47074     47076     47078     47077     47079
     47081     47080     47082     47084     47083     47085     47087     47086     47088
     47090     47089     47091     47093     47092     47094     47096     47095     47097
     47099     47098     47100     47102     47101     47103     47105     47104     47106
     47108     47107     47109     47111     47110     47112     47114     47113     47115
     47117     47116     47118     47120     47119     47121     47123     47122     47124
     47126     47125     47127     47129     47128     47130     47132     47131     47133
     47135     47134     47136     47138     47137     47139     47141     47140     47142
     47144     47143     47145     47147     47146     47148     47150     47149     47151
     47153     47152     47154     47156     47155     47157     47159     47158     47160
     47162     47161     47163     47165     47164     47166     47168     47167     47169
     47171     47170     47172     47174     47173     47175     47177     47176     47178
     47180     47179     47181     47183     47182     47184     47186     47185     47187
     47189     47188     47190     47192     47191     47193     47195     47194     47196
     47198     47197     47199     47201     47200     47202     47204     47203     47205
     47207     47206     47208     47210     47209     47211     47213     47212     47214
     47216     47215     47217     47219     47218     47220     47222     47221     47223
     47225     47224     47226     47228     47227     47229     47231     47230     47232
     47234     47233     47235     47237     47236     47238     47240     47239     47241
     47243     47242     47244     47246     47245     47247     47249     47248     47250
     47252     47251     47253     47255     47254     47256     47258     47257     47259
     47261     47260     47262     47264     47263     47265     47267     47266     47268
     47270     47269     47271     47273     47272     47274     47276     47275     47277
     47279     47278     47280     47282     47281     47283     47285     47284     47286
     47288     47287     47289     47291     47290     47292     47294     47293     47295
     47297     47296     47298     47300     47299     47301     47303     47302     47304
     47306     47305     47307     47309     47308     47310     47312     47311     47313
     47315     47314     47316     47318     47317     47319     47321     47320     47322
     47324     47323     47325     47327     47326     47328     47330     47329     47331
     47333     47332     47334     47336     47335     47337     47339     47338     47340
     47342     47341     47343     47345     47344     47346     47348     47347     47349
     47351     47350     47352     47354     47353     47355     47357     47356     47358
     47360     47359     47361     47363     47362     47364     47366     47365     47367
     47369     47368     47370     47372     47371     47373     47375     47374     47376
     47378     47377     47379     47381     47380     47382     47384     47383     47385
     47387     47386     47388     47390     47389     47391     47393     47392     47394
     47396     47395     47397     47399     47398     47400     47402     47401     47403
     47405     47404     47406     47408     47407     47409     47411     47410     47412
     47414     47413     47415     47417     47416     47418     47420     47419     47421
     47423     47422     47424     47426     47425     47427     47429     47428     47430
     47432     47431     47433     47435     47434     47436     47438     47437     47439
     47441     47440     47442     47444     47443     47445     47447     47446     47448
     47450     47449     47451     47453     47452     47454     47456     47455     47457
     47459     47458     47460     47462     47461     47463     47465     47464     47466
     47468     47467     47469     47471     47470     47472     47474     47473     47475
     47477     47476     47478     47480     47479     47481     47483     47482     47484
     47486     47485     47487     47489     47488     47490     47492     47491     47493
     47495     47494     47496     47498     47497     47499     47501     47500     47502
     47504     47503     47505     47507     47506     47508     47510     47509     47511
     47513     47512     47514     47516     47515     47517     47519     47518     47520
     47522     47521     47523     47525     47524     47526     47528     47527     47529
     47531     47530     47532     47534     47533     47535     47537     47536     47538
     47540     47539     47541     47543     47542     47544     47546     47545     47547
     47549     47548     47550     47552     47551     47553     47555     47554     47556
     47558     47557     47559     47561     47560     47562     47564     47563     47565
     47567     47566     47568     47570     47569     47571     47573     47572     47574
     47576     47575     47577     47579     47578     47580     47582     47581     47583
     47585     47584     47586     47588     47587     47589     47591     47590     47592
     47594     47593     47595     47597     47596     47598     47600     47599     47601
     47603     47602     47604     47606     47605     47607     47609     47608     47610
     47612     47611     47613     47615     47614     47616     47618     47617     47619
     47621     47620     47622     47624     47623     47625     47627     47626     47628
     47630     47629     47631     47633     47632     47634     47636     47635     47637
     47639     47638     47640     47642     47641     47643     47645     47644     47646
     47648     47647     47649     47651     47650     47652     47654     47653     47655
     47657     47656     47658     47660     47659     47661     47663     47662     47664
     47666     47665     47667     47669     47668     47670     47672     47671     47673
     47675     47674     47676     47678     47677     47679     47681     47680     47682
     47684     47683     47685     47687     47686     47688     47690     47689     47691
     47693     47692     47694     47696     47695     47697     47699     47698     47700
     47702     47701     47703     47705     47704     47706     47708     47707     47709
     47711     47710     47712     47714     47713     47715     47717     47716     47718
     47720     47719     47721     47723     47722     47724     47726     47725     47727
     47729     47728     47730     47732     47731     47733     47735     47734     47736
     47738     47737     47739     47741     47740     47742

     66220 !NPHI: dihedrals
         1         5         8         9         1         5         8        39
         1        47        44        39         1        47        44        45
         1        47        44        46         2         1         3         4
         2         1         5         6         2         1         5         7
         2         1         5         8         2         1        47        44
         2         1        47        48         2         1        47        49
         3         1         5         6         3         1         5         7
         3         1         5         8         3         1        47        44
         3         1        47        48         3         1        47        49
         4         3         1         5         4         3         1        47
         5         1        47        44         5         1        47        48
         5         1        47        49         5         8         9        10
         5         8         9        11         5         8        39        37
         5         8        39        40         5         8        39        44
         6         5         1        47         6         5         8         9
         6         5         8        39         7         5         1        47
         7         5         8         9         7         5         8        39
         8         5         1        47         8         9        11        12
         8         9        11        13         8         9        11        14
         8        39        37        14         8        39        37        34
         8        39        37        38         8        39        40        41
         8        39        40        42         8        39        40        43
         8        39        44        45         8        39        44        46
         8        39        44        47         9         8        39        37
         9         8        39        40         9         8        39        44
         9        11        14        15         9        11        14        16
         9        11        14        37        10         9         8        39
        10         9        11        12        10         9        11        13
        10         9        11        14        11         9         8        39
        11        14        16        17        11        14        16        18
        11        14        16        26        11        14        37        34
        11        14        37        38        11        14        37        39
        12        11        14        15        12        11        14        16
        12        11        14        37        13        11        14        15
        13        11        14        16        13        11        14        37
        14        16        18        19        14        16        18        20
        14        16        18        21        14        16        26        24
        14        16        26        27        14        16        26        31
        14        37        34        31        14        37        34        35
        14        37        34        36        14        37        39        40
        14        37        39        44        15        14        16        17
        15        14        16        18        15        14        16        26
        15        14        37        34        15        14        37        38
        15        14        37        39        16        14        37        34
        16        14        37        38        16        14        37        39
        16        18        21        22        16        18        21        23
        16        18        21        24        16        26        24        21
        16        26        24        25        16        26        24        50
        16        26        27        28        16        26        27        29
        16        26        27        30        16        26        31        32
        16        26        31        33        16        26        31        34
        17        16        14        37        17        16        18        19
        17        16        18        20        17        16        18        21
        17        16        26        24        17        16        26        27
        17        16        26        31        18        16        14        37
        18        16        26        24        18        16        26        27
        18        16        26        31        18        21        24        25
        18        21        24        26        18        21        24        50
        19        18        16        26        19        18        21        22
        19        18        21        23        19        18        21        24
        20        18        16        26        20        18        21        22
        20        18        21        23        20        18        21        24
        21        18        16        26        21        24        26        27
        21        24        26        31        21        24        50        51
        21        24        50        52        21        24        50        56
        22        21        24        25        22        21        24        26
        22        21        24        50        23        21        24        25
        23        21        24        26        23        21        24        50
        24        26        27        28        24        26        27        29
        24        26        27        30        24        26        31        32
        24        26        31        33        24        26        31        34
        24        50        52        53        24        50        52        54
        24        50        52        55        24        50        56        57
        24        50        56        58        24        50        56        59
        25        24        26        27        25        24        26        31
        25        24        50        51        25        24        50        52
        25        24        50        56        26        16        14        37
        26        24        50        51        26        24        50        52
        26        24        50        56        26        31        34        35
        26        31        34        36        26        31        34        37
        27        26        24        50        27        26        31        32
        27        26        31        33        27        26        31        34
        28        27        26        31        29        27        26        31
        30        27        26        31        31        26        24        50
        31        34        37        38        31        34        37        39
        32        31        34        35        32        31        34        36
        32        31        34        37        33        31        34        35
        33        31        34        36        33        31        34        37
        34        37        39        40        34        37        39        44
        35        34        37        38        35        34        37        39
        36        34        37        38        36        34        37        39
        37        39        40        41        37        39        40        42
        37        39        40        43        37        39        44        45
        37        39        44        46        37        39        44        47
        38        37        39        40        38        37        39        44
        39        44        47        48        39        44        47        49
        40        39        44        45        40        39        44        46
        40        39        44        47        41        40        39        44
        42        40        39        44        43        40        39        44
        45        44        47        48        45        44        47        49
        46        44        47        48        46        44        47        49
        50        56        59        60        50        56        59        61
        50        56        59        62        51        50        52        53
        51        50        52        54        51        50        52        55
        51        50        56        57        51        50        56        58
        51        50        56        59        52        50        56        57
        52        50        56        58        52        50        56        59
        53        52        50        56        54        52        50        56
        55        52        50        56        56        59        62        63
        56        59        62        64        56        59        62        65
        57        56        59        60        57        56        59        61
        57        56        59        62        58        56        59        60
        58        56        59        61        58        56        59        62
        59        62        65        66        59        62        65        67
        59        62        65        71        60        59        62        63
        60        59        62        64        60        59        62        65
        61        59        62        63        61        59        62        64
        61        59        62        65        62        65        67        68
        62        65        67        69        62        65        67        70
        62        65        71        72        62        65        71        73
        62        65        71        74        63        62        65        66
        63        62        65        67        63        62        65        71
        64        62        65        66        64        62        65        67
        64        62        65        71        66        65        67        68
        66        65        67        69        66        65        67        70
        66        65        71        72        66        65        71        73
        66        65        71        74        67        65        71        72
        67        65        71        73        67        65        71        74
        68        67        65        71        69        67        65        71
        70        67        65        71      2221      2225      2228      2229
      2221      2225      2228      2230      2221      2225      2228      2235
      2222      2221      2225      2226      2222      2221      2225      2227
      2222      2221      2225      2228      2223      2221      2225      2226
      2223      2221      2225      2227      2223      2221      2225      2228
      2224      2221      2225      2226      2224      2221      2225      2227
      2224      2221      2225      2228      2225      2228      2235      2231
      2226      2225      2228      2229      2226      2225      2228      2230
      2226      2225      2228      2235      2227      2225      2228      2229
      2227      2225      2228      2230      2227      2225      2228      2235
      2228      2235      2231      2232      2228      2235      2231      2233
      2228      2235      2231      2234      2229      2228      2235      2231
      2230      2228      2235      2231      2231      2234      2236      2237
      2231      2234      2236      2238      2231      2234      2236      2239
      2232      2231      2234      2236      2233      2231      2234      2236
      2234      2236      2239      2240      2234      2236      2239      2241
      2234      2236      2239      2247      2235      2231      2234      2236
      2236      2239      2241      2242      2236      2239      2247      2248
      2236      2239      2247      2249      2236      2239      2247      2250
      2237      2236      2239      2240      2237      2236      2239      2241
      2237      2236      2239      2247      2238      2236      2239      2240
      2238      2236      2239      2241      2238      2236      2239      2247
      2239      2241      2242      2243      2239      2241      2242      2244
      2239      2247      2250      2251      2240      2239      2241      2242
      2240      2239      2247      2248      2240      2239      2247      2249
      2240      2239      2247      2250      2241      2239      2247      2248
      2241      2239      2247      2249      2241      2239      2247      2250
      2241      2242      2244      2245      2241      2242      2244      2246
      2241      2242      2244      2256      2242      2241      2239      2247
      2242      2244      2256      2257      2242      2244      2256      2258
      2242      2244      2256      2259      2243      2242      2244      2245
      2243      2242      2244      2246      2243      2242      2244      2256
      2244      2256      2259      2260      2244      2256      2259      2261
      2244      2256      2259      2262      2245      2244      2256      2257
      2245      2244      2256      2258      2245      2244      2256      2259
      2246      2244      2256      2257      2246      2244      2256      2258
      2246      2244      2256      2259      2247      2250      2251      2252
      2247      2250      2251      2253      2248      2247      2250      2251
      2249      2247      2250      2251      2250      2251      2253      2254
      2250      2251      2253      2255      2250      2251      2253      2303
      2251      2253      2303      2304      2251      2253      2303      2305
      2251      2253      2303      2306      2252      2251      2253      2254
      2252      2251      2253      2255      2252      2251      2253      2303
      2253      2303      2306      2307      2253      2303      2306      2308
      2253      2303      2306      2309      2254      2253      2303      2304
      2254      2253      2303      2305      2254      2253      2303      2306
      2255      2253      2303      2304      2255      2253      2303      2305
      2255      2253      2303      2306      2256      2259      2262      2263
      2256      2259      2262      2264      2256      2259      2262      2265
      2257      2256      2259      2260      2257      2256      2259      2261
      2257      2256      2259      2262      2258      2256      2259      2260
      2258      2256      2259      2261      2258      2256      2259      2262
      2259      2262      2265      2266      2259      2262      2265      2267
      2259      2262      2265      2268      2260      2259      2262      2263
      2260      2259      2262      2264      2260      2259      2262      2265
      2261      2259      2262      2263      2261      2259      2262      2264
      2261      2259      2262      2265      2262      2265      2268      2269
      2262      2265      2268      2270      2262      2265      2268      2271
      2263      2262      2265      2266      2263      2262      2265      2267
      2263      2262      2265      2268      2264      2262      2265      2266
      2264      2262      2265      2267      2264      2262      2265      2268
      2265      2268      2271      2272      2265      2268      2271      2273
      2265      2268      2271      2274      2266      2265      2268      2269
      2266      2265      2268      2270      2266      2265      2268      2271
      2267      2265      2268      2269      2267      2265      2268      2270
      2267      2265      2268      2271      2268      2271      2274      2275
      2268      2271      2274      2276      2269      2268      2271      2272
      2269      2268      2271      2273      2269      2268      2271      2274
      2270      2268      2271      2272      2270      2268      2271      2273
      2270      2268      2271      2274      2271      2274      2276      2277
      2271      2274      2276      2278      2272      2271      2274      2275
      2272      2271      2274      2276      2273      2271      2274      2275
      2273      2271      2274      2276      2274      2276      2278      2279
      2274      2276      2278      2280      2274      2276      2278      2281
      2275      2274      2276      2277      2275      2274      2276      2278
      2276      2278      2281      2282      2276      2278      2281      2283
      2276      2278      2281      2284      2277      2276      2278      2279
      2277      2276      2278      2280      2277      2276      2278      2281
      2278      2281      2284      2285      2278      2281      2284      2286
      2278      2281      2284      2287      2279      2278      2281      2282
      2279      2278      2281      2283      2279      2278      2281      2284
      2280      2278      2281      2282      2280      2278      2281      2283
      2280      2278      2281      2284      2281      2284      2287      2288
      2281      2284      2287      2289      2281      2284      2287      2290
      2282      2281      2284      2285      2282      2281      2284      2286
      2282      2281      2284      2287      2283      2281      2284      2285
      2283      2281      2284      2286      2283      2281      2284      2287
      2284      2287      2290      2291      2284      2287      2290      2292
      2284      2287      2290      2293      2285      2284      2287      2288
      2285      2284      2287      2289      2285      2284      2287      2290
      2286      2284      2287      2288      2286      2284      2287      2289
      2286      2284      2287      2290      2287      2290      2293      2294
      2287      2290      2293      2295      2287      2290      2293      2296
      2288      2287      2290      2291      2288      2287      2290      2292
      2288      2287      2290      2293      2289      2287      2290      2291
      2289      2287      2290      2292      2289      2287      2290      2293
      2290      2293      2296      2297      2290      2293      2296      2298
      2290      2293      2296      2299      2291      2290      2293      2294
      2291      2290      2293      2295      2291      2290      2293      2296
      2292      2290      2293      2294      2292      2290      2293      2295
      2292      2290      2293      2296      2293      2296      2299      2300
      2293      2296      2299      2301      2293      2296      2299      2302
      2294      2293      2296      2297      2294      2293      2296      2298
      2294      2293      2296      2299      2295      2293      2296      2297
      2295      2293      2296      2298      2295      2293      2296      2299
      2297      2296      2299      2300      2297      2296      2299      2301
      2297      2296      2299      2302      2298      2296      2299      2300
      2298      2296      2299      2301      2298      2296      2299      2302
      2303      2306      2309      2310      2303      2306      2309      2311
      2303      2306      2309      2312      2304      2303      2306      2307
      2304      2303      2306      2308      2304      2303      2306      2309
      2305      2303      2306      2307      2305      2303      2306      2308
      2305      2303      2306      2309      2306      2309      2312      2313
      2306      2309      2312      2314      2306      2309      2312      2315
      2307      2306      2309      2310      2307      2306      2309      2311
      2307      2306      2309      2312      2308      2306      2309      2310
      2308      2306      2309      2311      2308      2306      2309      2312
      2309      2312      2315      2316      2309      2312      2315      2317
      2309      2312      2315      2318      2310      2309      2312      2313
      2310      2309      2312      2314      2310      2309      2312      2315
      2311      2309      2312      2313      2311      2309      2312      2314
      2311      2309      2312      2315      2312      2315      2318      2319
      2312      2315      2318      2320      2312      2315      2318      2321
      2313      2312      2315      2316      2313      2312      2315      2317
      2313      2312      2315      2318      2314      2312      2315      2316
      2314      2312      2315      2317      2314      2312      2315      2318
      2315      2318      2321      2322      2315      2318      2321      2323
      2315      2318      2321      2324      2316      2315      2318      2319
      2316      2315      2318      2320      2316      2315      2318      2321
      2317      2315      2318      2319      2317      2315      2318      2320
      2317      2315      2318      2321      2318      2321      2324      2325
      2318      2321      2324      2326      2318      2321      2324      2327
      2319      2318      2321      2322      2319      2318      2321      2323
      2319      2318      2321      2324      2320      2318      2321      2322
      2320      2318      2321      2323      2320      2318      2321      2324
      2321      2324      2327      2328      2321      2324      2327      2329
      2321      2324      2327      2330      2322      2321      2324      2325
      2322      2321      2324      2326      2322      2321      2324      2327
      2323      2321      2324      2325      2323      2321      2324      2326
      2323      2321      2324      2327      2324      2327      2330      2331
      2324      2327      2330      2332      2324      2327      2330      2333
      2325      2324      2327      2328      2325      2324      2327      2329
      2325      2324      2327      2330      2326      2324      2327      2328
      2326      2324      2327      2329      2326      2324      2327      2330
      2327      2330      2333      2334      2327      2330      2333      2335
      2327      2330      2333      2336      2328      2327      2330      2331
      2328      2327      2330      2332      2328      2327      2330      2333
      2329      2327      2330      2331      2329      2327      2330      2332
      2329      2327      2330      2333      2330      2333      2336      2337
      2330      2333      2336      2338      2330      2333      2336      2339
      2331      2330      2333      2334      2331      2330      2333      2335
      2331      2330      2333      2336      2332      2330      2333      2334
      2332      2330      2333      2335      2332      2330      2333      2336
      2333      2336      2339      2340      2333      2336      2339      2341
      2333      2336      2339      2342      2334      2333      2336      2337
      2334      2333      2336      2338      2334      2333      2336      2339
      2335      2333      2336      2337      2335      2333      2336      2338
      2335      2333      2336      2339      2336      2339      2342      2343
      2336      2339      2342      2344      2336      2339      2342      2345
      2337      2336      2339      2340      2337      2336      2339      2341
      2337      2336      2339      2342      2338      2336      2339      2340
      2338      2336      2339      2341      2338      2336      2339      2342
      2340      2339      2342      2343      2340      2339      2342      2344
      2340      2339      2342      2345      2341      2339      2342      2343
      2341      2339      2342      2344      2341      2339      2342      2345
      8471      8475      8477      8478      8471      8475      8477      8479
      8471      8475      8480      8481      8471      8475      8480      8482
      8471      8475      8480      8486      8472      8471      8475      8476
      8472      8471      8475      8477      8472      8471      8475      8480
      8473      8471      8475      8476      8473      8471      8475      8477
      8473      8471      8475      8480      8474      8471      8475      8476
      8474      8471      8475      8477      8474      8471      8475      8480
      8475      8480      8486      8483      8476      8475      8477      8478
      8476      8475      8477      8479      8476      8475      8480      8481
      8476      8475      8480      8482      8476      8475      8480      8486
      8477      8475      8480      8481      8477      8475      8480      8482
      8477      8475      8480      8486      8478      8477      8475      8480
      8479      8477      8475      8480      8480      8486      8483      8484
      8480      8486      8483      8485      8480      8486      8483      8487
      8481      8480      8486      8483      8482      8480      8486      8483
      8483      8487      8488      8489      8483      8487      8488      8490
      8483      8487      8488      8491      8484      8483      8487      8488
      8485      8483      8487      8488      8486      8483      8487      8488
      8487      8488      8491      8492      8487      8488      8491      8493
      8487      8488      8491      8499      8488      8491      8493      8494
      8488      8491      8499      8500      8488      8491      8499      8501
      8488      8491      8499      8502      8489      8488      8491      8492
      8489      8488      8491      8493      8489      8488      8491      8499
      8490      8488      8491      8492      8490      8488      8491      8493
      8490      8488      8491      8499      8491      8493      8494      8495
      8491      8493      8494      8496      8491      8499      8502      8503
      8492      8491      8493      8494      8492      8491      8499      8500
      8492      8491      8499      8501      8492      8491      8499      8502
      8493      8491      8499      8500      8493      8491      8499      8501
      8493      8491      8499      8502      8493      8494      8496      8497
      8493      8494      8496      8498      8493      8494      8496      8508
      8494      8493      8491      8499      8494      8496      8508      8509
      8494      8496      8508      8510      8494      8496      8508      8511
      8495      8494      8496      8497      8495      8494      8496      8498
      8495      8494      8496      8508      8496      8508      8511      8512
      8496      8508      8511      8513      8496      8508      8511      8514
      8497      8496      8508      8509      8497      8496      8508      8510
      8497      8496      8508      8511      8498      8496      8508      8509
      8498      8496      8508      8510      8498      8496      8508      8511
      8499      8502      8503      8504      8499      8502      8503      8505
      8500      8499      8502      8503      8501      8499      8502      8503
      8502      8503      8505      8506      8502      8503      8505      8507
      8502      8503      8505      8555      8503      8505      8555      8556
      8503      8505      8555      8557      8503      8505      8555      8558
      8504      8503      8505      8506      8504      8503      8505      8507
      8504      8503      8505      8555      8505      8555      8558      8559
      8505      8555      8558      8560      8505      8555      8558      8561
      8506      8505      8555      8556      8506      8505      8555      8557
      8506      8505      8555      8558      8507      8505      8555      8556
      8507      8505      8555      8557      8507      8505      8555      8558
      8508      8511      8514      8515      8508      8511      8514      8516
      8508      8511      8514      8517      8509      8508      8511      8512
      8509      8508      8511      8513      8509      8508      8511      8514
      8510      8508      8511      8512      8510      8508      8511      8513
      8510      8508      8511      8514      8511      8514      8517      8518
      8511      8514      8517      8519      8511      8514      8517      8520
      8512      8511      8514      8515      8512      8511      8514      8516
      8512      8511      8514      8517      8513      8511      8514      8515
      8513      8511      8514      8516      8513      8511      8514      8517
      8514      8517      8520      8521      8514      8517      8520      8522
      8514      8517      8520      8523      8515      8514      8517      8518
      8515      8514      8517      8519      8515      8514      8517      8520
      8516      8514      8517      8518      8516      8514      8517      8519
      8516      8514      8517      8520      8517      8520      8523      8524
      8517      8520      8523      8525      8517      8520      8523      8526
      8518      8517      8520      8521      8518      8517      8520      8522
      8518      8517      8520      8523      8519      8517      8520      8521
      8519      8517      8520      8522      8519      8517      8520      8523
      8520      8523      8526      8527      8520      8523      8526      8528
      8521      8520      8523      8524      8521      8520      8523      8525
      8521      8520      8523      8526      8522      8520      8523      8524
      8522      8520      8523      8525      8522      8520      8523      8526
      8523      8526      8528      8529      8523      8526      8528      8530
      8524      8523      8526      8527      8524      8523      8526      8528
      8525      8523      8526      8527      8525      8523      8526      8528
      8526      8528      8530      8531      8526      8528      8530      8532
      8526      8528      8530      8533      8527      8526      8528      8529
      8527      8526      8528      8530      8528      8530      8533      8534
      8528      8530      8533      8535      8528      8530      8533      8536
      8529      8528      8530      8531      8529      8528      8530      8532
      8529      8528      8530      8533      8530      8533      8536      8537
      8530      8533      8536      8538      8530      8533      8536      8539
      8531      8530      8533      8534      8531      8530      8533      8535
      8531      8530      8533      8536      8532      8530      8533      8534
      8532      8530      8533      8535      8532      8530      8533      8536
      8533      8536      8539      8540      8533      8536      8539      8541
      8533      8536      8539      8542      8534      8533      8536      8537
      8534      8533      8536      8538      8534      8533      8536      8539
      8535      8533      8536      8537      8535      8533      8536      8538
      8535      8533      8536      8539      8536      8539      8542      8543
      8536      8539      8542      8544      8536      8539      8542      8545
      8537      8536      8539      8540      8537      8536      8539      8541
      8537      8536      8539      8542      8538      8536      8539      8540
      8538      8536      8539      8541      8538      8536      8539      8542
      8539      8542      8545      8546      8539      8542      8545      8547
      8539      8542      8545      8548      8540      8539      8542      8543
      8540      8539      8542      8544      8540      8539      8542      8545
      8541      8539      8542      8543      8541      8539      8542      8544
      8541      8539      8542      8545      8542      8545      8548      8549
      8542      8545      8548      8550      8542      8545      8548      8551
      8543      8542      8545      8546      8543      8542      8545      8547
      8543      8542      8545      8548      8544      8542      8545      8546
      8544      8542      8545      8547      8544      8542      8545      8548
      8545      8548      8551      8552      8545      8548      8551      8553
      8545      8548      8551      8554      8546      8545      8548      8549
      8546      8545      8548      8550      8546      8545      8548      8551
      8547      8545      8548      8549      8547      8545      8548      8550
      8547      8545      8548      8551      8549      8548      8551      8552
      8549      8548      8551      8553      8549      8548      8551      8554
      8550      8548      8551      8552      8550      8548      8551      8553
      8550      8548      8551      8554      8555      8558      8561      8562
      8555      8558      8561      8563      8555      8558      8561      8564
      8556      8555      8558      8559      8556      8555      8558      8560
      8556      8555      8558      8561      8557      8555      8558      8559
      8557      8555      8558      8560      8557      8555      8558      8561
      8558      8561      8564      8565      8558      8561      8564      8566
      8558      8561      8564      8567      8559      8558      8561      8562
      8559      8558      8561      8563      8559      8558      8561      8564
      8560      8558      8561      8562      8560      8558      8561      8563
      8560      8558      8561      8564      8561      8564      8567      8568
      8561      8564      8567      8569      8561      8564      8567      8570
      8562      8561      8564      8565      8562      8561      8564      8566
      8562      8561      8564      8567      8563      8561      8564      8565
      8563      8561      8564      8566      8563      8561      8564      8567
      8564      8567      8570      8571      8564      8567      8570      8572
      8564      8567      8570      8573      8565      8564      8567      8568
      8565      8564      8567      8569      8565      8564      8567      8570
      8566      8564      8567      8568      8566      8564      8567      8569
      8566      8564      8567      8570      8567      8570      8573      8574
      8567      8570      8573      8575      8567      8570      8573      8576
      8568      8567      8570      8571      8568      8567      8570      8572
      8568      8567      8570      8573      8569      8567      8570      8571
      8569      8567      8570      8572      8569      8567      8570      8573
      8570      8573      8576      8577      8570      8573      8576      8578
      8570      8573      8576      8579      8571      8570      8573      8574
      8571      8570      8573      8575      8571      8570      8573      8576
      8572      8570      8573      8574      8572      8570      8573      8575
      8572      8570      8573      8576      8573      8576      8579      8580
      8573      8576      8579      8581      8573      8576      8579      8582
      8574      8573      8576      8577      8574      8573      8576      8578
      8574      8573      8576      8579      8575      8573      8576      8577
      8575      8573      8576      8578      8575      8573      8576      8579
      8576      8579      8582      8583      8576      8579      8582      8584
      8576      8579      8582      8585      8577      8576      8579      8580
      8577      8576      8579      8581      8577      8576      8579      8582
      8578      8576      8579      8580      8578      8576      8579      8581
      8578      8576      8579      8582      8579      8582      8585      8586
      8579      8582      8585      8587      8579      8582      8585      8588
      8580      8579      8582      8583      8580      8579      8582      8584
      8580      8579      8582      8585      8581      8579      8582      8583
      8581      8579      8582      8584      8581      8579      8582      8585
      8582      8585      8588      8589      8582      8585      8588      8590
      8582      8585      8588      8591      8583      8582      8585      8586
      8583      8582      8585      8587      8583      8582      8585      8588
      8584      8582      8585      8586      8584      8582      8585      8587
      8584      8582      8585      8588      8585      8588      8591      8592
      8585      8588      8591      8593      8585      8588      8591      8594
      8586      8585      8588      8589      8586      8585      8588      8590
      8586      8585      8588      8591      8587      8585      8588      8589
      8587      8585      8588      8590      8587      8585      8588      8591
      8588      8591      8594      8595      8588      8591      8594      8596
      8588      8591      8594      8597      8589      8588      8591      8592
      8589      8588      8591      8593      8589      8588      8591      8594
      8590      8588      8591      8592      8590      8588      8591      8593
      8590      8588      8591      8594      8592      8591      8594      8595
      8592      8591      8594      8596      8592      8591      8594      8597
      8593      8591      8594      8595      8593      8591      8594      8596
      8593      8591      8594      8597        75        79        82        83
        75        79        82       113        75       121       118       113
        75       121       118       119        75       121       118       120
        76        75        77        78        76        75        79        80
        76        75        79        81        76        75        79        82
        76        75       121       118        76        75       121       122
        76        75       121       123        77        75        79        80
        77        75        79        81        77        75        79        82
        77        75       121       118        77        75       121       122
        77        75       121       123        78        77        75        79
        78        77        75       121        79        75       121       118
        79        75       121       122        79        75       121       123
        79        82        83        84        79        82        83        85
        79        82       113       111        79        82       113       114
        79        82       113       118        80        79        75       121
        80        79        82        83        80        79        82       113
        81        79        75       121        81        79        82        83
        81        79        82       113        82        79        75       121
        82        83        85        86        82        83        85        87
        82        83        85        88        82       113       111        88
        82       113       111       108        82       113       111       112
        82       113       114       115        82       113       114       116
        82       113       114       117        82       113       118       119
        82       113       118       120        82       113       118       121
        83        82       113       111        83        82       113       114
        83        82       113       118        83        85        88        89
        83        85        88        90        83        85        88       111
        84        83        82       113        84        83        85        86
        84        83        85        87        84        83        85        88
        85        83        82       113        85        88        90        91
        85        88        90        92        85        88        90       100
        85        88       111       108        85        88       111       112
        85        88       111       113        86        85        88        89
        86        85        88        90        86        85        88       111
        87        85        88        89        87        85        88        90
        87        85        88       111        88        90        92        93
        88        90        92        94        88        90        92        95
        88        90       100        98        88        90       100       101
        88        90       100       105        88       111       108       105
        88       111       108       109        88       111       108       110
        88       111       113       114        88       111       113       118
        89        88        90        91        89        88        90        92
        89        88        90       100        89        88       111       108
        89        88       111       112        89        88       111       113
        90        88       111       108        90        88       111       112
        90        88       111       113        90        92        95        96
        90        92        95        97        90        92        95        98
        90       100        98        95        90       100        98        99
        90       100        98       124        90       100       101       102
        90       100       101       103        90       100       101       104
        90       100       105       106        90       100       105       107
        90       100       105       108        91        90        88       111
        91        90        92        93        91        90        92        94
        91        90        92        95        91        90       100        98
        91        90       100       101        91        90       100       105
        92        90        88       111        92        90       100        98
        92        90       100       101        92        90       100       105
        92        95        98        99        92        95        98       100
        92        95        98       124        93        92        90       100
        93        92        95        96        93        92        95        97
        93        92        95        98        94        92        90       100
        94        92        95        96        94        92        95        97
        94        92        95        98        95        92        90       100
        95        98       100       101        95        98       100       105
        95        98       124       125        95        98       124       126
        95        98       124       130        96        95        98        99
        96        95        98       100        96        95        98       124
        97        95        98        99        97        95        98       100
        97        95        98       124        98       100       101       102
        98       100       101       103        98       100       101       104
        98       100       105       106        98       100       105       107
        98       100       105       108        98       124       126       127
        98       124       126       128        98       124       126       129
        98       124       130       131        98       124       130       132
        98       124       130       133        99        98       100       101
        99        98       100       105        99        98       124       125
        99        98       124       126        99        98       124       130
       100        90        88       111       100        98       124       125
       100        98       124       126       100        98       124       130
       100       105       108       109       100       105       108       110
       100       105       108       111       101       100        98       124
       101       100       105       106       101       100       105       107
       101       100       105       108       102       101       100       105
       103       101       100       105       104       101       100       105
       105       100        98       124       105       108       111       112
       105       108       111       113       106       105       108       109
       106       105       108       110       106       105       108       111
       107       105       108       109       107       105       108       110
       107       105       108       111       108       111       113       114
       108       111       113       118       109       108       111       112
       109       108       111       113       110       108       111       112
       110       108       111       113       111       113       114       115
       111       113       114       116       111       113       114       117
       111       113       118       119       111       113       118       120
       111       113       118       121       112       111       113       114
       112       111       113       118       113       118       121       122
       113       118       121       123       114       113       118       119
       114       113       118       120       114       113       118       121
       115       114       113       118       116       114       113       118
       117       114       113       118       119       118       121       122
       119       118       121       123       120       118       121       122
       120       118       121       123       124       130       133       134
       124       130       133       135       124       130       133       136
       125       124       126       127       125       124       126       128
       125       124       126       129       125       124       130       131
       125       124       130       132       125       124       130       133
       126       124       130       131       126       124       130       132
       126       124       130       133       127       126       124       130
       128       126       124       130       129       126       124       130
       130       133       136       137       130       133       136       138
       130       133       136       139       131       130       133       134
       131       130       133       135       131       130       133       136
       132       130       133       134       132       130       133       135
       132       130       133       136       133       136       139       140
       133       136       139       141       133       136       139       145
       134       133       136       137       134       133       136       138
       134       133       136       139       135       133       136       137
       135       133       136       138       135       133       136       139
       136       139       141       142       136       139       141       143
       136       139       141       144       136       139       145       146
       136       139       145       147       136       139       145       148
       137       136       139       140       137       136       139       141
       137       136       139       145       138       136       139       140
       138       136       139       141       138       136       139       145
       140       139       141       142       140       139       141       143
       140       139       141       144       140       139       145       146
       140       139       145       147       140       139       145       148
       141       139       145       146       141       139       145       147
       141       139       145       148       142       141       139       145
       143       141       139       145       144       141       139       145
     13551     13552     13567     13568     13551     13552     13567     13569
     13551     13552     13567     13573     13552     13551     13555     13556
     13552     13551     13555     13557     13552     13551     13555     13558
     13552     13551     13559     13560     13552     13551     13559     13561
     13552     13551     13559     13562     13552     13551     13563     13564
     13552     13551     13563     13565     13552     13551     13563     13566
     13552     13567     13573     13570     13553     13552     13551     13555
     13553     13552     13551     13559     13553     13552     13551     13563
     13553     13552     13567     13568     13553     13552     13567     13569
     13553     13552     13567     13573     13554     13552     13551     13555
     13554     13552     13551     13559     13554     13552     13551     13563
     13554     13552     13567     13568     13554     13552     13567     13569
     13554     13552     13567     13573     13555     13551     13552     13567
     13555     13551     13559     13560     13555     13551     13559     13561
     13555     13551     13559     13562     13555     13551     13563     13564
     13555     13551     13563     13565     13555     13551     13563     13566
     13556     13555     13551     13559     13556     13555     13551     13563
     13557     13555     13551     13559     13557     13555     13551     13563
     13558     13555     13551     13559     13558     13555     13551     13563
     13559     13551     13552     13567     13559     13551     13563     13564
     13559     13551     13563     13565     13559     13551     13563     13566
     13560     13559     13551     13563     13561     13559     13551     13563
     13562     13559     13551     13563     13563     13551     13552     13567
     13567     13573     13570     13571     13567     13573     13570     13572
     13567     13573     13570     13574     13568     13567     13573     13570
     13569     13567     13573     13570     13570     13574     13575     13576
     13570     13574     13575     13577     13570     13574     13575     13578
     13571     13570     13574     13575     13572     13570     13574     13575
     13573     13570     13574     13575     13574     13575     13578     13579
     13574     13575     13578     13580     13574     13575     13578     13586
     13575     13578     13580     13581     13575     13578     13586     13587
     13575     13578     13586     13588     13575     13578     13586     13589
     13576     13575     13578     13579     13576     13575     13578     13580
     13576     13575     13578     13586     13577     13575     13578     13579
     13577     13575     13578     13580     13577     13575     13578     13586
     13578     13580     13581     13582     13578     13580     13581     13583
     13578     13586     13589     13590     13579     13578     13580     13581
     13579     13578     13586     13587     13579     13578     13586     13588
     13579     13578     13586     13589     13580     13578     13586     13587
     13580     13578     13586     13588     13580     13578     13586     13589
     13580     13581     13583     13584     13580     13581     13583     13585
     13580     13581     13583     13595     13581     13580     13578     13586
     13581     13583     13595     13596     13581     13583     13595     13597
     13581     13583     13595     13598     13582     13581     13583     13584
     13582     13581     13583     13585     13582     13581     13583     13595
     13583     13595     13598     13599     13583     13595     13598     13600
     13583     13595     13598     13601     13584     13583     13595     13596
     13584     13583     13595     13597     13584     13583     13595     13598
     13585     13583     13595     13596     13585     13583     13595     13597
     13585     13583     13595     13598     13586     13589     13590     13591
     13586     13589     13590     13592     13587     13586     13589     13590
     13588     13586     13589     13590     13589     13590     13592     13593
     13589     13590     13592     13594     13589     13590     13592     13642
     13590     13592     13642     13643     13590     13592     13642     13644
     13590     13592     13642     13645     13591     13590     13592     13593
     13591     13590     13592     13594     13591     13590     13592     13642
     13592     13642     13645     13646     13592     13642     13645     13647
     13592     13642     13645     13648     13593     13592     13642     13643
     13593     13592     13642     13644     13593     13592     13642     13645
     13594     13592     13642     13643     13594     13592     13642     13644
     13594     13592     13642     13645     13595     13598     13601     13602
     13595     13598     13601     13603     13595     13598     13601     13604
     13596     13595     13598     13599     13596     13595     13598     13600
     13596     13595     13598     13601     13597     13595     13598     13599
     13597     13595     13598     13600     13597     13595     13598     13601
     13598     13601     13604     13605     13598     13601     13604     13606
     13598     13601     13604     13607     13599     13598     13601     13602
     13599     13598     13601     13603     13599     13598     13601     13604
     13600     13598     13601     13602     13600     13598     13601     13603
     13600     13598     13601     13604     13601     13604     13607     13608
     13601     13604     13607     13609     13601     13604     13607     13610
     13602     13601     13604     13605     13602     13601     13604     13606
     13602     13601     13604     13607     13603     13601     13604     13605
     13603     13601     13604     13606     13603     13601     13604     13607
     13604     13607     13610     13611     13604     13607     13610     13612
     13604     13607     13610     13613     13605     13604     13607     13608
     13605     13604     13607     13609     13605     13604     13607     13610
     13606     13604     13607     13608     13606     13604     13607     13609
     13606     13604     13607     13610     13607     13610     13613     13614
     13607     13610     13613     13615     13608     13607     13610     13611
     13608     13607     13610     13612     13608     13607     13610     13613
     13609     13607     13610     13611     13609     13607     13610     13612
     13609     13607     13610     13613     13610     13613     13615     13616
     13610     13613     13615     13617     13611     13610     13613     13614
     13611     13610     13613     13615     13612     13610     13613     13614
     13612     13610     13613     13615     13613     13615     13617     13618
     13613     13615     13617     13619     13613     13615     13617     13620
     13614     13613     13615     13616     13614     13613     13615     13617
     13615     13617     13620     13621     13615     13617     13620     13622
     13615     13617     13620     13623     13616     13615     13617     13618
     13616     13615     13617     13619     13616     13615     13617     13620
     13617     13620     13623     13624     13617     13620     13623     13625
     13617     13620     13623     13626     13618     13617     13620     13621
     13618     13617     13620     13622     13618     13617     13620     13623
     13619     13617     13620     13621     13619     13617     13620     13622
     13619     13617     13620     13623     13620     13623     13626     13627
     13620     13623     13626     13628     13620     13623     13626     13629
     13621     13620     13623     13624     13621     13620     13623     13625
     13621     13620     13623     13626     13622     13620     13623     13624
     13622     13620     13623     13625     13622     13620     13623     13626
     13623     13626     13629     13630     13623     13626     13629     13631
     13623     13626     13629     13632     13624     13623     13626     13627
     13624     13623     13626     13628     13624     13623     13626     13629
     13625     13623     13626     13627     13625     13623     13626     13628
     13625     13623     13626     13629     13626     13629     13632     13633
     13626     13629     13632     13634     13626     13629     13632     13635
     13627     13626     13629     13630     13627     13626     13629     13631
     13627     13626     13629     13632     13628     13626     13629     13630
     13628     13626     13629     13631     13628     13626     13629     13632
     13629     13632     13635     13636     13629     13632     13635     13637
     13629     13632     13635     13638     13630     13629     13632     13633
     13630     13629     13632     13634     13630     13629     13632     13635
     13631     13629     13632     13633     13631     13629     13632     13634
     13631     13629     13632     13635     13632     13635     13638     13639
     13632     13635     13638     13640     13632     13635     13638     13641
     13633     13632     13635     13636     13633     13632     13635     13637
     13633     13632     13635     13638     13634     13632     13635     13636
     13634     13632     13635     13637     13634     13632     13635     13638
     13636     13635     13638     13639     13636     13635     13638     13640
     13636     13635     13638     13641     13637     13635     13638     13639
     13637     13635     13638     13640     13637     13635     13638     13641
     13642     13645     13648     13649     13642     13645     13648     13650
     13642     13645     13648     13651     13643     13642     13645     13646
     13643     13642     13645     13647     13643     13642     13645     13648
     13644     13642     13645     13646     13644     13642     13645     13647
     13644     13642     13645     13648     13645     13648     13651     13652
     13645     13648     13651     13653     13645     13648     13651     13654
     13646     13645     13648     13649     13646     13645     13648     13650
     13646     13645     13648     13651     13647     13645     13648     13649
     13647     13645     13648     13650     13647     13645     13648     13651
     13648     13651     13654     13655     13648     13651     13654     13656
     13648     13651     13654     13657     13649     13648     13651     13652
     13649     13648     13651     13653     13649     13648     13651     13654
     13650     13648     13651     13652     13650     13648     13651     13653
     13650     13648     13651     13654     13651     13654     13657     13658
     13651     13654     13657     13659     13651     13654     13657     13660
     13652     13651     13654     13655     13652     13651     13654     13656
     13652     13651     13654     13657     13653     13651     13654     13655
     13653     13651     13654     13656     13653     13651     13654     13657
     13654     13657     13660     13661     13654     13657     13660     13662
     13654     13657     13660     13663     13655     13654     13657     13658
     13655     13654     13657     13659     13655     13654     13657     13660
     13656     13654     13657     13658     13656     13654     13657     13659
     13656     13654     13657     13660     13657     13660     13663     13664
     13657     13660     13663     13665     13657     13660     13663     13666
     13658     13657     13660     13661     13658     13657     13660     13662
     13658     13657     13660     13663     13659     13657     13660     13661
     13659     13657     13660     13662     13659     13657     13660     13663
     13660     13663     13666     13667     13660     13663     13666     13668
     13660     13663     13666     13669     13661     13660     13663     13664
     13661     13660     13663     13665     13661     13660     13663     13666
     13662     13660     13663     13664     13662     13660     13663     13665
     13662     13660     13663     13666     13663     13666     13669     13670
     13663     13666     13669     13671     13663     13666     13669     13672
     13664     13663     13666     13667     13664     13663     13666     13668
     13664     13663     13666     13669     13665     13663     13666     13667
     13665     13663     13666     13668     13665     13663     13666     13669
     13666     13669     13672     13673     13666     13669     13672     13674
     13666     13669     13672     13675     13667     13666     13669     13670
     13667     13666     13669     13671     13667     13666     13669     13672
     13668     13666     13669     13670     13668     13666     13669     13671
     13668     13666     13669     13672     13669     13672     13675     13676
     13669     13672     13675     13677     13669     13672     13675     13678
     13670     13669     13672     13673     13670     13669     13672     13674
     13670     13669     13672     13675     13671     13669     13672     13673
     13671     13669     13672     13674     13671     13669     13672     13675
     13672     13675     13678     13679     13672     13675     13678     13680
     13672     13675     13678     13681     13673     13672     13675     13676
     13673     13672     13675     13677     13673     13672     13675     13678
     13674     13672     13675     13676     13674     13672     13675     13677
     13674     13672     13675     13678     13675     13678     13681     13682
     13675     13678     13681     13683     13675     13678     13681     13684
     13676     13675     13678     13679     13676     13675     13678     13680
     13676     13675     13678     13681     13677     13675     13678     13679
     13677     13675     13678     13680     13677     13675     13678     13681
     13679     13678     13681     13682     13679     13678     13681     13683
     13679     13678     13681     13684     13680     13678     13681     13682
     13680     13678     13681     13683     13680     13678     13681     13684
       149       153       156       157       149       153       156       187
       149       195       192       187       149       195       192       193
       149       195       192       194       150       149       151       152
       150       149       153       154       150       149       153       155
       150       149       153       156       150       149       195       192
       150       149       195       196       150       149       195       197
       151       149       153       154       151       149       153       155
       151       149       153       156       151       149       195       192
       151       149       195       196       151       149       195       197
       152       151       149       153       152       151       149       195
       153       149       195       192       153       149       195       196
       153       149       195       197       153       156       157       158
       153       156       157       159       153       156       187       185
       153       156       187       188       153       156       187       192
       154       153       149       195       154       153       156       157
       154       153       156       187       155       153       149       195
       155       153       156       157       155       153       156       187
       156       153       149       195       156       157       159       160
       156       157       159       161       156       157       159       162
       156       187       185       162       156       187       185       182
       156       187       185       186       156       187       188       189
       156       187       188       190       156       187       188       191
       156       187       192       193       156       187       192       194
       156       187       192       195       157       156       187       185
       157       156       187       188       157       156       187       192
       157       159       162       163       157       159       162       164
       157       159       162       185       158       157       156       187
       158       157       159       160       158       157       159       161
       158       157       159       162       159       157       156       187
       159       162       164       165       159       162       164       166
       159       162       164       174       159       162       185       182
       159       162       185       186       159       162       185       187
       160       159       162       163       160       159       162       164
       160       159       162       185       161       159       162       163
       161       159       162       164       161       159       162       185
       162       164       166       167       162       164       166       168
       162       164       166       169       162       164       174       172
       162       164       174       175       162       164       174       179
       162       185       182       179       162       185       182       183
       162       185       182       184       162       185       187       188
       162       185       187       192       163       162       164       165
       163       162       164       166       163       162       164       174
       163       162       185       182       163       162       185       186
       163       162       185       187       164       162       185       182
       164       162       185       186       164       162       185       187
       164       166       169       170       164       166       169       171
       164       166       169       172       164       174       172       169
       164       174       172       173       164       174       172       198
       164       174       175       176       164       174       175       177
       164       174       175       178       164       174       179       180
       164       174       179       181       164       174       179       182
       165       164       162       185       165       164       166       167
       165       164       166       168       165       164       166       169
       165       164       174       172       165       164       174       175
       165       164       174       179       166       164       162       185
       166       164       174       172       166       164       174       175
       166       164       174       179       166       169       172       173
       166       169       172       174       166       169       172       198
       167       166       164       174       167       166       169       170
       167       166       169       171       167       166       169       172
       168       166       164       174       168       166       169       170
       168       166       169       171       168       166       169       172
       169       166       164       174       169       172       174       175
       169       172       174       179       169       172       198       199
       169       172       198       200       169       172       198       204
       170       169       172       173       170       169       172       174
       170       169       172       198       171       169       172       173
       171       169       172       174       171       169       172       198
       172       174       175       176       172       174       175       177
       172       174       175       178       172       174       179       180
       172       174       179       181       172       174       179       182
       172       198       200       201       172       198       200       202
       172       198       200       203       172       198       204       205
       172       198       204       206       172       198       204       207
       173       172       174       175       173       172       174       179
       173       172       198       199       173       172       198       200
       173       172       198       204       174       164       162       185
       174       172       198       199       174       172       198       200
       174       172       198       204       174       179       182       183
       174       179       182       184       174       179       182       185
       175       174       172       198       175       174       179       180
       175       174       179       181       175       174       179       182
       176       175       174       179       177       175       174       179
       178       175       174       179       179       174       172       198
       179       182       185       186       179       182       185       187
       180       179       182       183       180       179       182       184
       180       179       182       185       181       179       182       183
       181       179       182       184       181       179       182       185
       182       185       187       188       182       185       187       192
       183       182       185       186       183       182       185       187
       184       182       185       186       184       182       185       187
       185       187       188       189       185       187       188       190
       185       187       188       191       185       187       192       193
       185       187       192       194       185       187       192       195
       186       185       187       188       186       185       187       192
       187       192       195       196       187       192       195       197
       188       187       192       193       188       187       192       194
       188       187       192       195       189       188       187       192
       190       188       187       192       191       188       187       192
       193       192       195       196       193       192       195       197
       194       192       195       196       194       192       195       197
       198       204       207       208       198       204       207       209
       198       204       207       210       199       198       200       201
       199       198       200       202       199       198       200       203
       199       198       204       205       199       198       204       206
       199       198       204       207       200       198       204       205
       200       198       204       206       200       198       204       207
       201       200       198       204       202       200       198       204
       203       200       198       204       204       207       210       211
       204       207       210       212       204       207       210       213
       205       204       207       208       205       204       207       209
       205       204       207       210       206       204       207       208
       206       204       207       209       206       204       207       210
       207       210       213       214       207       210       213       215
       207       210       213       219       208       207       210       211
       208       207       210       212       208       207       210       213
       209       207       210       211       209       207       210       212
       209       207       210       213       210       213       215       216
       210       213       215       217       210       213       215       218
       210       213       219       220       210       213       219       221
       210       213       219       222       211       210       213       214
       211       210       213       215       211       210       213       219
       212       210       213       214       212       210       213       215
       212       210       213       219       214       213       215       216
       214       213       215       217       214       213       215       218
       214       213       219       220       214       213       219       221
       214       213       219       222       215       213       219       220
       215       213       219       221       215       213       219       222
       216       215       213       219       217       215       213       219
       218       215       213       219      2346      2350      2353      2354
      2346      2350      2353      2355      2346      2350      2353      2360
      2347      2346      2350      2351      2347      2346      2350      2352
      2347      2346      2350      2353      2348      2346      2350      2351
      2348      2346      2350      2352      2348      2346      2350      2353
      2349      2346      2350      2351      2349      2346      2350      2352
      2349      2346      2350      2353      2350      2353      2360      2356
      2351      2350      2353      2354      2351      2350      2353      2355
      2351      2350      2353      2360      2352      2350      2353      2354
      2352      2350      2353      2355      2352      2350      2353      2360
      2353      2360      2356      2357      2353      2360      2356      2358
      2353      2360      2356      2359      2354      2353      2360      2356
      2355      2353      2360      2356      2356      2359      2361      2362
      2356      2359      2361      2363      2356      2359      2361      2364
      2357      2356      2359      2361      2358      2356      2359      2361
      2359      2361      2364      2365      2359      2361      2364      2366
      2359      2361      2364      2372      2360      2356      2359      2361
      2361      2364      2366      2367      2361      2364      2372      2373
      2361      2364      2372      2374      2361      2364      2372      2375
      2362      2361      2364      2365      2362      2361      2364      2366
      2362      2361      2364      2372      2363      2361      2364      2365
      2363      2361      2364      2366      2363      2361      2364      2372
      2364      2366      2367      2368      2364      2366      2367      2369
      2364      2372      2375      2376      2365      2364      2366      2367
      2365      2364      2372      2373      2365      2364      2372      2374
      2365      2364      2372      2375      2366      2364      2372      2373
      2366      2364      2372      2374      2366      2364      2372      2375
      2366      2367      2369      2370      2366      2367      2369      2371
      2366      2367      2369      2381      2367      2366      2364      2372
      2367      2369      2381      2382      2367      2369      2381      2383
      2367      2369      2381      2384      2368      2367      2369      2370
      2368      2367      2369      2371      2368      2367      2369      2381
      2369      2381      2384      2385      2369      2381      2384      2386
      2369      2381      2384      2387      2370      2369      2381      2382
      2370      2369      2381      2383      2370      2369      2381      2384
      2371      2369      2381      2382      2371      2369      2381      2383
      2371      2369      2381      2384      2372      2375      2376      2377
      2372      2375      2376      2378      2373      2372      2375      2376
      2374      2372      2375      2376      2375      2376      2378      2379
      2375      2376      2378      2380      2375      2376      2378      2428
      2376      2378      2428      2429      2376      2378      2428      2430
      2376      2378      2428      2431      2377      2376      2378      2379
      2377      2376      2378      2380      2377      2376      2378      2428
      2378      2428      2431      2432      2378      2428      2431      2433
      2378      2428      2431      2434      2379      2378      2428      2429
      2379      2378      2428      2430      2379      2378      2428      2431
      2380      2378      2428      2429      2380      2378      2428      2430
      2380      2378      2428      2431      2381      2384      2387      2388
      2381      2384      2387      2389      2381      2384      2387      2390
      2382      2381      2384      2385      2382      2381      2384      2386
      2382      2381      2384      2387      2383      2381      2384      2385
      2383      2381      2384      2386      2383      2381      2384      2387
      2384      2387      2390      2391      2384      2387      2390      2392
      2384      2387      2390      2393      2385      2384      2387      2388
      2385      2384      2387      2389      2385      2384      2387      2390
      2386      2384      2387      2388      2386      2384      2387      2389
      2386      2384      2387      2390      2387      2390      2393      2394
      2387      2390      2393      2395      2387      2390      2393      2396
      2388      2387      2390      2391      2388      2387      2390      2392
      2388      2387      2390      2393      2389      2387      2390      2391
      2389      2387      2390      2392      2389      2387      2390      2393
      2390      2393      2396      2397      2390      2393      2396      2398
      2390      2393      2396      2399      2391      2390      2393      2394
      2391      2390      2393      2395      2391      2390      2393      2396
      2392      2390      2393      2394      2392      2390      2393      2395
      2392      2390      2393      2396      2393      2396      2399      2400
      2393      2396      2399      2401      2394      2393      2396      2397
      2394      2393      2396      2398      2394      2393      2396      2399
      2395      2393      2396      2397      2395      2393      2396      2398
      2395      2393      2396      2399      2396      2399      2401      2402
      2396      2399      2401      2403      2397      2396      2399      2400
      2397      2396      2399      2401      2398      2396      2399      2400
      2398      2396      2399      2401      2399      2401      2403      2404
      2399      2401      2403      2405      2399      2401      2403      2406
      2400      2399      2401      2402      2400      2399      2401      2403
      2401      2403      2406      2407      2401      2403      2406      2408
      2401      2403      2406      2409      2402      2401      2403      2404
      2402      2401      2403      2405      2402      2401      2403      2406
      2403      2406      2409      2410      2403      2406      2409      2411
      2403      2406      2409      2412      2404      2403      2406      2407
      2404      2403      2406      2408      2404      2403      2406      2409
      2405      2403      2406      2407      2405      2403      2406      2408
      2405      2403      2406      2409      2406      2409      2412      2413
      2406      2409      2412      2414      2406      2409      2412      2415
      2407      2406      2409      2410      2407      2406      2409      2411
      2407      2406      2409      2412      2408      2406      2409      2410
      2408      2406      2409      2411      2408      2406      2409      2412
      2409      2412      2415      2416      2409      2412      2415      2417
      2409      2412      2415      2418      2410      2409      2412      2413
      2410      2409      2412      2414      2410      2409      2412      2415
      2411      2409      2412      2413      2411      2409      2412      2414
      2411      2409      2412      2415      2412      2415      2418      2419
      2412      2415      2418      2420      2412      2415      2418      2421
      2413      2412      2415      2416      2413      2412      2415      2417
      2413      2412      2415      2418      2414      2412      2415      2416
      2414      2412      2415      2417      2414      2412      2415      2418
      2415      2418      2421      2422      2415      2418      2421      2423
      2415      2418      2421      2424      2416      2415      2418      2419
      2416      2415      2418      2420      2416      2415      2418      2421
      2417      2415      2418      2419      2417      2415      2418      2420
      2417      2415      2418      2421      2418      2421      2424      2425
      2418      2421      2424      2426      2418      2421      2424      2427
      2419      2418      2421      2422      2419      2418      2421      2423
      2419      2418      2421      2424      2420      2418      2421      2422
      2420      2418      2421      2423      2420      2418      2421      2424
      2422      2421      2424      2425      2422      2421      2424      2426
      2422      2421      2424      2427      2423      2421      2424      2425
      2423      2421      2424      2426      2423      2421      2424      2427
      2428      2431      2434      2435      2428      2431      2434      2436
      2428      2431      2434      2437      2429      2428      2431      2432
      2429      2428      2431      2433      2429      2428      2431      2434
      2430      2428      2431      2432      2430      2428      2431      2433
      2430      2428      2431      2434      2431      2434      2437      2438
      2431      2434      2437      2439      2431      2434      2437      2440
      2432      2431      2434      2435      2432      2431      2434      2436
      2432      2431      2434      2437      2433      2431      2434      2435
      2433      2431      2434      2436      2433      2431      2434      2437
      2434      2437      2440      2441      2434      2437      2440      2442
      2434      2437      2440      2443      2435      2434      2437      2438
      2435      2434      2437      2439      2435      2434      2437      2440
      2436      2434      2437      2438      2436      2434      2437      2439
      2436      2434      2437      2440      2437      2440      2443      2444
      2437      2440      2443      2445      2437      2440      2443      2446
      2438      2437      2440      2441      2438      2437      2440      2442
      2438      2437      2440      2443      2439      2437      2440      2441
      2439      2437      2440      2442      2439      2437      2440      2443
      2440      2443      2446      2447      2440      2443      2446      2448
      2440      2443      2446      2449      2441      2440      2443      2444
      2441      2440      2443      2445      2441      2440      2443      2446
      2442      2440      2443      2444      2442      2440      2443      2445
      2442      2440      2443      2446      2443      2446      2449      2450
      2443      2446      2449      2451      2443      2446      2449      2452
      2444      2443      2446      2447      2444      2443      2446      2448
      2444      2443      2446      2449      2445      2443      2446      2447
      2445      2443      2446      2448      2445      2443      2446      2449
      2446      2449      2452      2453      2446      2449      2452      2454
      2446      2449      2452      2455      2447      2446      2449      2450
      2447      2446      2449      2451      2447      2446      2449      2452
      2448      2446      2449      2450      2448      2446      2449      2451
      2448      2446      2449      2452      2449      2452      2455      2456
      2449      2452      2455      2457      2449      2452      2455      2458
      2450      2449      2452      2453      2450      2449      2452      2454
      2450      2449      2452      2455      2451      2449      2452      2453
      2451      2449      2452      2454      2451      2449      2452      2455
      2452      2455      2458      2459      2452      2455      2458      2460
      2452      2455      2458      2461      2453      2452      2455      2456
      2453      2452      2455      2457      2453      2452      2455      2458
      2454      2452      2455      2456      2454      2452      2455      2457
      2454      2452      2455      2458      2455      2458      2461      2462
      2455      2458      2461      2463      2455      2458      2461      2464
      2456      2455      2458      2459      2456      2455      2458      2460
      2456      2455      2458      2461      2457      2455      2458      2459
      2457      2455      2458      2460      2457      2455      2458      2461
      2458      2461      2464      2465      2458      2461      2464      2466
      2458      2461      2464      2467      2459      2458      2461      2462
      2459      2458      2461      2463      2459      2458      2461      2464
      2460      2458      2461      2462      2460      2458      2461      2463
      2460      2458      2461      2464      2461      2464      2467      2468
      2461      2464      2467      2469      2461      2464      2467      2470
      2462      2461      2464      2465      2462      2461      2464      2466
      2462      2461      2464      2467      2463      2461      2464      2465
      2463      2461      2464      2466      2463      2461      2464      2467
      2465      2464      2467      2468      2465      2464      2467      2469
      2465      2464      2467      2470      2466      2464      2467      2468
      2466      2464      2467      2469      2466      2464      2467      2470
     21591     21595     21597     21598     21591     21595     21599     21600
     21591     21595     21599     21601     21591     21595     21599     21603
     21591     21611     21607     21603     21591     21611     21607     21608
     21591     21611     21607     21609     21591     21611     21616     21613
     21592     21591     21593     21594     21592     21591     21595     21596
     21592     21591     21595     21597     21592     21591     21595     21599
     21592     21591     21611     21607     21592     21591     21611     21612
     21592     21591     21611     21616     21593     21591     21595     21596
     21593     21591     21595     21597     21593     21591     21595     21599
     21593     21591     21611     21607     21593     21591     21611     21612
     21593     21591     21611     21616     21594     21593     21591     21595
     21594     21593     21591     21611     21595     21591     21611     21607
     21595     21591     21611     21612     21595     21591     21611     21616
     21595     21599     21601     21602     21595     21599     21603     21604
     21595     21599     21603     21605     21595     21599     21603     21607
     21596     21595     21591     21611     21596     21595     21597     21598
     21596     21595     21599     21600     21596     21595     21599     21601
     21596     21595     21599     21603     21597     21595     21591     21611
     21597     21595     21599     21600     21597     21595     21599     21601
     21597     21595     21599     21603     21598     21597     21595     21599
     21599     21595     21591     21611     21599     21603     21605     21606
     21599     21603     21607     21608     21599     21603     21607     21609
     21599     21603     21607     21611     21600     21599     21601     21602
     21600     21599     21603     21604     21600     21599     21603     21605
     21600     21599     21603     21607     21601     21599     21603     21604
     21601     21599     21603     21605     21601     21599     21603     21607
     21602     21601     21599     21603     21603     21607     21609     21610
     21603     21607     21611     21612     21603     21607     21611     21616
     21604     21603     21605     21606     21604     21603     21607     21608
     21604     21603     21607     21609     21604     21603     21607     21611
     21605     21603     21607     21608     21605     21603     21607     21609
     21605     21603     21607     21611     21606     21605     21603     21607
     21607     21611     21616     21613     21608     21607     21609     21610
     21608     21607     21611     21612     21608     21607     21611     21616
     21609     21607     21611     21612     21609     21607     21611     21616
     21610     21609     21607     21611     21611     21616     21613     21614
     21611     21616     21613     21615     21611     21616     21613     21617
     21612     21611     21616     21613     21613     21617     21618     21619
     21613     21617     21618     21620     21613     21617     21618     21621
     21614     21613     21617     21618     21615     21613     21617     21618
     21616     21613     21617     21618     21617     21618     21621     21622
     21617     21618     21621     21623     21617     21618     21621     21629
     21618     21621     21623     21624     21618     21621     21629     21630
     21618     21621     21629     21631     21618     21621     21629     21632
     21619     21618     21621     21622     21619     21618     21621     21623
     21619     21618     21621     21629     21620     21618     21621     21622
     21620     21618     21621     21623     21620     21618     21621     21629
     21621     21623     21624     21625     21621     21623     21624     21626
     21621     21629     21632     21633     21622     21621     21623     21624
     21622     21621     21629     21630     21622     21621     21629     21631
     21622     21621     21629     21632     21623     21621     21629     21630
     21623     21621     21629     21631     21623     21621     21629     21632
     21623     21624     21626     21627     21623     21624     21626     21628
     21623     21624     21626     21638     21624     21623     21621     21629
     21624     21626     21638     21639     21624     21626     21638     21640
     21624     21626     21638     21641     21625     21624     21626     21627
     21625     21624     21626     21628     21625     21624     21626     21638
     21626     21638     21641     21642     21626     21638     21641     21643
     21626     21638     21641     21644     21627     21626     21638     21639
     21627     21626     21638     21640     21627     21626     21638     21641
     21628     21626     21638     21639     21628     21626     21638     21640
     21628     21626     21638     21641     21629     21632     21633     21634
     21629     21632     21633     21635     21630     21629     21632     21633
     21631     21629     21632     21633     21632     21633     21635     21636
     21632     21633     21635     21637     21632     21633     21635     21685
     21633     21635     21685     21686     21633     21635     21685     21687
     21633     21635     21685     21688     21634     21633     21635     21636
     21634     21633     21635     21637     21634     21633     21635     21685
     21635     21685     21688     21689     21635     21685     21688     21690
     21635     21685     21688     21691     21636     21635     21685     21686
     21636     21635     21685     21687     21636     21635     21685     21688
     21637     21635     21685     21686     21637     21635     21685     21687
     21637     21635     21685     21688     21638     21641     21644     21645
     21638     21641     21644     21646     21638     21641     21644     21647
     21639     21638     21641     21642     21639     21638     21641     21643
     21639     21638     21641     21644     21640     21638     21641     21642
     21640     21638     21641     21643     21640     21638     21641     21644
     21641     21644     21647     21648     21641     21644     21647     21649
     21641     21644     21647     21650     21642     21641     21644     21645
     21642     21641     21644     21646     21642     21641     21644     21647
     21643     21641     21644     21645     21643     21641     21644     21646
     21643     21641     21644     21647     21644     21647     21650     21651
     21644     21647     21650     21652     21644     21647     21650     21653
     21645     21644     21647     21648     21645     21644     21647     21649
     21645     21644     21647     21650     21646     21644     21647     21648
     21646     21644     21647     21649     21646     21644     21647     21650
     21647     21650     21653     21654     21647     21650     21653     21655
     21647     21650     21653     21656     21648     21647     21650     21651
     21648     21647     21650     21652     21648     21647     21650     21653
     21649     21647     21650     21651     21649     21647     21650     21652
     21649     21647     21650     21653     21650     21653     21656     21657
     21650     21653     21656     21658     21651     21650     21653     21654
     21651     21650     21653     21655     21651     21650     21653     21656
     21652     21650     21653     21654     21652     21650     21653     21655
     21652     21650     21653     21656     21653     21656     21658     21659
     21653     21656     21658     21660     21654     21653     21656     21657
     21654     21653     21656     21658     21655     21653     21656     21657
     21655     21653     21656     21658     21656     21658     21660     21661
     21656     21658     21660     21662     21656     21658     21660     21663
     21657     21656     21658     21659     21657     21656     21658     21660
     21658     21660     21663     21664     21658     21660     21663     21665
     21658     21660     21663     21666     21659     21658     21660     21661
     21659     21658     21660     21662     21659     21658     21660     21663
     21660     21663     21666     21667     21660     21663     21666     21668
     21660     21663     21666     21669     21661     21660     21663     21664
     21661     21660     21663     21665     21661     21660     21663     21666
     21662     21660     21663     21664     21662     21660     21663     21665
     21662     21660     21663     21666     21663     21666     21669     21670
     21663     21666     21669     21671     21663     21666     21669     21672
     21664     21663     21666     21667     21664     21663     21666     21668
     21664     21663     21666     21669     21665     21663     21666     21667
     21665     21663     21666     21668     21665     21663     21666     21669
     21666     21669     21672     21673     21666     21669     21672     21674
     21666     21669     21672     21675     21667     21666     21669     21670
     21667     21666     21669     21671     21667     21666     21669     21672
     21668     21666     21669     21670     21668     21666     21669     21671
     21668     21666     21669     21672     21669     21672     21675     21676
     21669     21672     21675     21677     21669     21672     21675     21678
     21670     21669     21672     21673     21670     21669     21672     21674
     21670     21669     21672     21675     21671     21669     21672     21673
     21671     21669     21672     21674     21671     21669     21672     21675
     21672     21675     21678     21679     21672     21675     21678     21680
     21672     21675     21678     21681     21673     21672     21675     21676
     21673     21672     21675     21677     21673     21672     21675     21678
     21674     21672     21675     21676     21674     21672     21675     21677
     21674     21672     21675     21678     21675     21678     21681     21682
     21675     21678     21681     21683     21675     21678     21681     21684
     21676     21675     21678     21679     21676     21675     21678     21680
     21676     21675     21678     21681     21677     21675     21678     21679
     21677     21675     21678     21680     21677     21675     21678     21681
     21679     21678     21681     21682     21679     21678     21681     21683
     21679     21678     21681     21684     21680     21678     21681     21682
     21680     21678     21681     21683     21680     21678     21681     21684
     21685     21688     21691     21692     21685     21688     21691     21693
     21685     21688     21691     21694     21686     21685     21688     21689
     21686     21685     21688     21690     21686     21685     21688     21691
     21687     21685     21688     21689     21687     21685     21688     21690
     21687     21685     21688     21691     21688     21691     21694     21695
     21688     21691     21694     21696     21688     21691     21694     21697
     21689     21688     21691     21692     21689     21688     21691     21693
     21689     21688     21691     21694     21690     21688     21691     21692
     21690     21688     21691     21693     21690     21688     21691     21694
     21691     21694     21697     21698     21691     21694     21697     21699
     21691     21694     21697     21700     21692     21691     21694     21695
     21692     21691     21694     21696     21692     21691     21694     21697
     21693     21691     21694     21695     21693     21691     21694     21696
     21693     21691     21694     21697     21694     21697     21700     21701
     21694     21697     21700     21702     21694     21697     21700     21703
     21695     21694     21697     21698     21695     21694     21697     21699
     21695     21694     21697     21700     21696     21694     21697     21698
     21696     21694     21697     21699     21696     21694     21697     21700
     21697     21700     21703     21704     21697     21700     21703     21705
     21697     21700     21703     21706     21698     21697     21700     21701
     21698     21697     21700     21702     21698     21697     21700     21703
     21699     21697     21700     21701     21699     21697     21700     21702
     21699     21697     21700     21703     21700     21703     21706     21707
     21700     21703     21706     21708     21700     21703     21706     21709
     21701     21700     21703     21704     21701     21700     21703     21705
     21701     21700     21703     21706     21702     21700     21703     21704
     21702     21700     21703     21705     21702     21700     21703     21706
     21703     21706     21709     21710     21703     21706     21709     21711
     21703     21706     21709     21712     21704     21703     21706     21707
     21704     21703     21706     21708     21704     21703     21706     21709
     21705     21703     21706     21707     21705     21703     21706     21708
     21705     21703     21706     21709     21706     21709     21712     21713
     21706     21709     21712     21714     21706     21709     21712     21715
     21707     21706     21709     21710     21707     21706     21709     21711
     21707     21706     21709     21712     21708     21706     21709     21710
     21708     21706     21709     21711     21708     21706     21709     21712
     21709     21712     21715     21716     21709     21712     21715     21717
     21709     21712     21715     21718     21710     21709     21712     21713
     21710     21709     21712     21714     21710     21709     21712     21715
     21711     21709     21712     21713     21711     21709     21712     21714
     21711     21709     21712     21715     21712     21715     21718     21719
     21712     21715     21718     21720     21712     21715     21718     21721
     21713     21712     21715     21716     21713     21712     21715     21717
     21713     21712     21715     21718     21714     21712     21715     21716
     21714     21712     21715     21717     21714     21712     21715     21718
     21715     21718     21721     21722     21715     21718     21721     21723
     21715     21718     21721     21724     21716     21715     21718     21719
     21716     21715     21718     21720     21716     21715     21718     21721
     21717     21715     21718     21719     21717     21715     21718     21720
     21717     21715     21718     21721     21718     21721     21724     21725
     21718     21721     21724     21726     21718     21721     21724     21727
     21719     21718     21721     21722     21719     21718     21721     21723
     21719     21718     21721     21724     21720     21718     21721     21722
     21720     21718     21721     21723     21720     21718     21721     21724
     21722     21721     21724     21725     21722     21721     21724     21726
     21722     21721     21724     21727     21723     21721     21724     21725
     21723     21721     21724     21726     21723     21721     21724     21727
       223       227       230       231       223       227       230       261
       223       269       266       261       223       269       266       267
       223       269       266       268       224       223       225       226
       224       223       227       228       224       223       227       229
       224       223       227       230       224       223       269       266
       224       223       269       270       224       223       269       271
       225       223       227       228       225       223       227       229
       225       223       227       230       225       223       269       266
       225       223       269       270       225       223       269       271
       226       225       223       227       226       225       223       269
       227       223       269       266       227       223       269       270
       227       223       269       271       227       230       231       232
       227       230       231       233       227       230       261       259
       227       230       261       262       227       230       261       266
       228       227       223       269       228       227       230       231
       228       227       230       261       229       227       223       269
       229       227       230       231       229       227       230       261
       230       227       223       269       230       231       233       234
       230       231       233       235       230       231       233       236
       230       261       259       236       230       261       259       256
       230       261       259       260       230       261       262       263
       230       261       262       264       230       261       262       265
       230       261       266       267       230       261       266       268
       230       261       266       269       231       230       261       259
       231       230       261       262       231       230       261       266
       231       233       236       237       231       233       236       238
       231       233       236       259       232       231       230       261
       232       231       233       234       232       231       233       235
       232       231       233       236       233       231       230       261
       233       236       238       239       233       236       238       240
       233       236       238       248       233       236       259       256
       233       236       259       260       233       236       259       261
       234       233       236       237       234       233       236       238
       234       233       236       259       235       233       236       237
       235       233       236       238       235       233       236       259
       236       238       240       241       236       238       240       242
       236       238       240       243       236       238       248       246
       236       238       248       249       236       238       248       253
       236       259       256       253       236       259       256       257
       236       259       256       258       236       259       261       262
       236       259       261       266       237       236       238       239
       237       236       238       240       237       236       238       248
       237       236       259       256       237       236       259       260
       237       236       259       261       238       236       259       256
       238       236       259       260       238       236       259       261
       238       240       243       244       238       240       243       245
       238       240       243       246       238       248       246       243
       238       248       246       247       238       248       246       272
       238       248       249       250       238       248       249       251
       238       248       249       252       238       248       253       254
       238       248       253       255       238       248       253       256
       239       238       236       259       239       238       240       241
       239       238       240       242       239       238       240       243
       239       238       248       246       239       238       248       249
       239       238       248       253       240       238       236       259
       240       238       248       246       240       238       248       249
       240       238       248       253       240       243       246       247
       240       243       246       248       240       243       246       272
       241       240       238       248       241       240       243       244
       241       240       243       245       241       240       243       246
       242       240       238       248       242       240       243       244
       242       240       243       245       242       240       243       246
       243       240       238       248       243       246       248       249
       243       246       248       253       243       246       272       273
       243       246       272       274       243       246       272       278
       244       243       246       247       244       243       246       248
       244       243       246       272       245       243       246       247
       245       243       246       248       245       243       246       272
       246       248       249       250       246       248       249       251
       246       248       249       252       246       248       253       254
       246       248       253       255       246       248       253       256
       246       272       274       275       246       272       274       276
       246       272       274       277       246       272       278       279
       246       272       278       280       246       272       278       281
       247       246       248       249       247       246       248       253
       247       246       272       273       247       246       272       274
       247       246       272       278       248       238       236       259
       248       246       272       273       248       246       272       274
       248       246       272       278       248       253       256       257
       248       253       256       258       248       253       256       259
       249       248       246       272       249       248       253       254
       249       248       253       255       249       248       253       256
       250       249       248       253       251       249       248       253
       252       249       248       253       253       248       246       272
       253       256       259       260       253       256       259       261
       254       253       256       257       254       253       256       258
       254       253       256       259       255       253       256       257
       255       253       256       258       255       253       256       259
       256       259       261       262       256       259       261       266
       257       256       259       260       257       256       259       261
       258       256       259       260       258       256       259       261
       259       261       262       263       259       261       262       264
       259       261       262       265       259       261       266       267
       259       261       266       268       259       261       266       269
       260       259       261       262       260       259       261       266
       261       266       269       270       261       266       269       271
       262       261       266       267       262       261       266       268
       262       261       266       269       263       262       261       266
       264       262       261       266       265       262       261       266
       267       266       269       270       267       266       269       271
       268       266       269       270       268       266       269       271
       272       278       281       282       272       278       281       283
       272       278       281       284       273       272       274       275
       273       272       274       276       273       272       274       277
       273       272       278       279       273       272       278       280
       273       272       278       281       274       272       278       279
       274       272       278       280       274       272       278       281
       275       274       272       278       276       274       272       278
       277       274       272       278       278       281       284       285
       278       281       284       286       278       281       284       287
       279       278       281       282       279       278       281       283
       279       278       281       284       280       278       281       282
       280       278       281       283       280       278       281       284
       281       284       287       288       281       284       287       289
       281       284       287       293       282       281       284       285
       282       281       284       286       282       281       284       287
       283       281       284       285       283       281       284       286
       283       281       284       287       284       287       289       290
       284       287       289       291       284       287       289       292
       284       287       293       294       284       287       293       295
       284       287       293       296       285       284       287       288
       285       284       287       289       285       284       287       293
       286       284       287       288       286       284       287       289
       286       284       287       293       288       287       289       290
       288       287       289       291       288       287       289       292
       288       287       293       294       288       287       293       295
       288       287       293       296       289       287       293       294
       289       287       293       295       289       287       293       296
       290       289       287       293       291       289       287       293
       292       289       287       293      2471      2475      2478      2479
      2471      2475      2478      2480      2471      2475      2478      2485
      2472      2471      2475      2476      2472      2471      2475      2477
      2472      2471      2475      2478      2473      2471      2475      2476
      2473      2471      2475      2477      2473      2471      2475      2478
      2474      2471      2475      2476      2474      2471      2475      2477
      2474      2471      2475      2478      2475      2478      2485      2481
      2476      2475      2478      2479      2476      2475      2478      2480
      2476      2475      2478      2485      2477      2475      2478      2479
      2477      2475      2478      2480      2477      2475      2478      2485
      2478      2485      2481      2482      2478      2485      2481      2483
      2478      2485      2481      2484      2479      2478      2485      2481
      2480      2478      2485      2481      2481      2484      2486      2487
      2481      2484      2486      2488      2481      2484      2486      2489
      2482      2481      2484      2486      2483      2481      2484      2486
      2484      2486      2489      2490      2484      2486      2489      2491
      2484      2486      2489      2497      2485      2481      2484      2486
      2486      2489      2491      2492      2486      2489      2497      2498
      2486      2489      2497      2499      2486      2489      2497      2500
      2487      2486      2489      2490      2487      2486      2489      2491
      2487      2486      2489      2497      2488      2486      2489      2490
      2488      2486      2489      2491      2488      2486      2489      2497
      2489      2491      2492      2493      2489      2491      2492      2494
      2489      2497      2500      2501      2490      2489      2491      2492
      2490      2489      2497      2498      2490      2489      2497      2499
      2490      2489      2497      2500      2491      2489      2497      2498
      2491      2489      2497      2499      2491      2489      2497      2500
      2491      2492      2494      2495      2491      2492      2494      2496
      2491      2492      2494      2506      2492      2491      2489      2497
      2492      2494      2506      2507      2492      2494      2506      2508
      2492      2494      2506      2509      2493      2492      2494      2495
      2493      2492      2494      2496      2493      2492      2494      2506
      2494      2506      2509      2510      2494      2506      2509      2511
      2494      2506      2509      2512      2495      2494      2506      2507
      2495      2494      2506      2508      2495      2494      2506      2509
      2496      2494      2506      2507      2496      2494      2506      2508
      2496      2494      2506      2509      2497      2500      2501      2502
      2497      2500      2501      2503      2498      2497      2500      2501
      2499      2497      2500      2501      2500      2501      2503      2504
      2500      2501      2503      2505      2500      2501      2503      2553
      2501      2503      2553      2554      2501      2503      2553      2555
      2501      2503      2553      2556      2502      2501      2503      2504
      2502      2501      2503      2505      2502      2501      2503      2553
      2503      2553      2556      2557      2503      2553      2556      2558
      2503      2553      2556      2559      2504      2503      2553      2554
      2504      2503      2553      2555      2504      2503      2553      2556
      2505      2503      2553      2554      2505      2503      2553      2555
      2505      2503      2553      2556      2506      2509      2512      2513
      2506      2509      2512      2514      2506      2509      2512      2515
      2507      2506      2509      2510      2507      2506      2509      2511
      2507      2506      2509      2512      2508      2506      2509      2510
      2508      2506      2509      2511      2508      2506      2509      2512
      2509      2512      2515      2516      2509      2512      2515      2517
      2509      2512      2515      2518      2510      2509      2512      2513
      2510      2509      2512      2514      2510      2509      2512      2515
      2511      2509      2512      2513      2511      2509      2512      2514
      2511      2509      2512      2515      2512      2515      2518      2519
      2512      2515      2518      2520      2512      2515      2518      2521
      2513      2512      2515      2516      2513      2512      2515      2517
      2513      2512      2515      2518      2514      2512      2515      2516
      2514      2512      2515      2517      2514      2512      2515      2518
      2515      2518      2521      2522      2515      2518      2521      2523
      2515      2518      2521      2524      2516      2515      2518      2519
      2516      2515      2518      2520      2516      2515      2518      2521
      2517      2515      2518      2519      2517      2515      2518      2520
      2517      2515      2518      2521      2518      2521      2524      2525
      2518      2521      2524      2526      2519      2518      2521      2522
      2519      2518      2521      2523      2519      2518      2521      2524
      2520      2518      2521      2522      2520      2518      2521      2523
      2520      2518      2521      2524      2521      2524      2526      2527
      2521      2524      2526      2528      2522      2521      2524      2525
      2522      2521      2524      2526      2523      2521      2524      2525
      2523      2521      2524      2526      2524      2526      2528      2529
      2524      2526      2528      2530      2524      2526      2528      2531
      2525      2524      2526      2527      2525      2524      2526      2528
      2526      2528      2531      2532      2526      2528      2531      2533
      2526      2528      2531      2534      2527      2526      2528      2529
      2527      2526      2528      2530      2527      2526      2528      2531
      2528      2531      2534      2535      2528      2531      2534      2536
      2528      2531      2534      2537      2529      2528      2531      2532
      2529      2528      2531      2533      2529      2528      2531      2534
      2530      2528      2531      2532      2530      2528      2531      2533
      2530      2528      2531      2534      2531      2534      2537      2538
      2531      2534      2537      2539      2531      2534      2537      2540
      2532      2531      2534      2535      2532      2531      2534      2536
      2532      2531      2534      2537      2533      2531      2534      2535
      2533      2531      2534      2536      2533      2531      2534      2537
      2534      2537      2540      2541      2534      2537      2540      2542
      2534      2537      2540      2543      2535      2534      2537      2538
      2535      2534      2537      2539      2535      2534      2537      2540
      2536      2534      2537      2538      2536      2534      2537      2539
      2536      2534      2537      2540      2537      2540      2543      2544
      2537      2540      2543      2545      2537      2540      2543      2546
      2538      2537      2540      2541      2538      2537      2540      2542
      2538      2537      2540      2543      2539      2537      2540      2541
      2539      2537      2540      2542      2539      2537      2540      2543
      2540      2543      2546      2547      2540      2543      2546      2548
      2540      2543      2546      2549      2541      2540      2543      2544
      2541      2540      2543      2545      2541      2540      2543      2546
      2542      2540      2543      2544      2542      2540      2543      2545
      2542      2540      2543      2546      2543      2546      2549      2550
      2543      2546      2549      2551      2543      2546      2549      2552
      2544      2543      2546      2547      2544      2543      2546      2548
      2544      2543      2546      2549      2545      2543      2546      2547
      2545      2543      2546      2548      2545      2543      2546      2549
      2547      2546      2549      2550      2547      2546      2549      2551
      2547      2546      2549      2552      2548      2546      2549      2550
      2548      2546      2549      2551      2548      2546      2549      2552
      2553      2556      2559      2560      2553      2556      2559      2561
      2553      2556      2559      2562      2554      2553      2556      2557
      2554      2553      2556      2558      2554      2553      2556      2559
      2555      2553      2556      2557      2555      2553      2556      2558
      2555      2553      2556      2559      2556      2559      2562      2563
      2556      2559      2562      2564      2556      2559      2562      2565
      2557      2556      2559      2560      2557      2556      2559      2561
      2557      2556      2559      2562      2558      2556      2559      2560
      2558      2556      2559      2561      2558      2556      2559      2562
      2559      2562      2565      2566      2559      2562      2565      2567
      2559      2562      2565      2568      2560      2559      2562      2563
      2560      2559      2562      2564      2560      2559      2562      2565
      2561      2559      2562      2563      2561      2559      2562      2564
      2561      2559      2562      2565      2562      2565      2568      2569
      2562      2565      2568      2570      2562      2565      2568      2571
      2563      2562      2565      2566      2563      2562      2565      2567
      2563      2562      2565      2568      2564      2562      2565      2566
      2564      2562      2565      2567      2564      2562      2565      2568
      2565      2568      2571      2572      2565      2568      2571      2573
      2565      2568      2571      2574      2566      2565      2568      2569
      2566      2565      2568      2570      2566      2565      2568      2571
      2567      2565      2568      2569      2567      2565      2568      2570
      2567      2565      2568      2571      2568      2571      2574      2575
      2568      2571      2574      2576      2568      2571      2574      2577
      2569      2568      2571      2572      2569      2568      2571      2573
      2569      2568      2571      2574      2570      2568      2571      2572
      2570      2568      2571      2573      2570      2568      2571      2574
      2571      2574      2577      2578      2571      2574      2577      2579
      2571      2574      2577      2580      2572      2571      2574      2575
      2572      2571      2574      2576      2572      2571      2574      2577
      2573      2571      2574      2575      2573      2571      2574      2576
      2573      2571      2574      2577      2574      2577      2580      2581
      2574      2577      2580      2582      2574      2577      2580      2583
      2575      2574      2577      2578      2575      2574      2577      2579
      2575      2574      2577      2580      2576      2574      2577      2578
      2576      2574      2577      2579      2576      2574      2577      2580
      2577      2580      2583      2584      2577      2580      2583      2585
      2577      2580      2583      2586      2578      2577      2580      2581
      2578      2577      2580      2582      2578      2577      2580      2583
      2579      2577      2580      2581      2579      2577      2580      2582
      2579      2577      2580      2583      2580      2583      2586      2587
      2580      2583      2586      2588      2580      2583      2586      2589
      2581      2580      2583      2584      2581      2580      2583      2585
      2581      2580      2583      2586      2582      2580      2583      2584
      2582      2580      2583      2585      2582      2580      2583      2586
      2583      2586      2589      2590      2583      2586      2589      2591
      2583      2586      2589      2592      2584      2583      2586      2587
      2584      2583      2586      2588      2584      2583      2586      2589
      2585      2583      2586      2587      2585      2583      2586      2588
      2585      2583      2586      2589      2586      2589      2592      2593
      2586      2589      2592      2594      2586      2589      2592      2595
      2587      2586      2589      2590      2587      2586      2589      2591
      2587      2586      2589      2592      2588      2586      2589      2590
      2588      2586      2589      2591      2588      2586      2589      2592
      2590      2589      2592      2593      2590      2589      2592      2594
      2590      2589      2592      2595      2591      2589      2592      2593
      2591      2589      2592      2594      2591      2589      2592      2595
     13685     13686     13701     13702     13685     13686     13701     13703
     13685     13686     13701     13707     13686     13685     13689     13690
     13686     13685     13689     13691     13686     13685     13689     13692
     13686     13685     13693     13694     13686     13685     13693     13695
     13686     13685     13693     13696     13686     13685     13697     13698
     13686     13685     13697     13699     13686     13685     13697     13700
     13686     13701     13707     13704     13687     13686     13685     13689
     13687     13686     13685     13693     13687     13686     13685     13697
     13687     13686     13701     13702     13687     13686     13701     13703
     13687     13686     13701     13707     13688     13686     13685     13689
     13688     13686     13685     13693     13688     13686     13685     13697
     13688     13686     13701     13702     13688     13686     13701     13703
     13688     13686     13701     13707     13689     13685     13686     13701
     13689     13685     13693     13694     13689     13685     13693     13695
     13689     13685     13693     13696     13689     13685     13697     13698
     13689     13685     13697     13699     13689     13685     13697     13700
     13690     13689     13685     13693     13690     13689     13685     13697
     13691     13689     13685     13693     13691     13689     13685     13697
     13692     13689     13685     13693     13692     13689     13685     13697
     13693     13685     13686     13701     13693     13685     13697     13698
     13693     13685     13697     13699     13693     13685     13697     13700
     13694     13693     13685     13697     13695     13693     13685     13697
     13696     13693     13685     13697     13697     13685     13686     13701
     13701     13707     13704     13705     13701     13707     13704     13706
     13701     13707     13704     13708     13702     13701     13707     13704
     13703     13701     13707     13704     13704     13708     13709     13710
     13704     13708     13709     13711     13704     13708     13709     13712
     13705     13704     13708     13709     13706     13704     13708     13709
     13707     13704     13708     13709     13708     13709     13712     13713
     13708     13709     13712     13714     13708     13709     13712     13720
     13709     13712     13714     13715     13709     13712     13720     13721
     13709     13712     13720     13722     13709     13712     13720     13723
     13710     13709     13712     13713     13710     13709     13712     13714
     13710     13709     13712     13720     13711     13709     13712     13713
     13711     13709     13712     13714     13711     13709     13712     13720
     13712     13714     13715     13716     13712     13714     13715     13717
     13712     13720     13723     13724     13713     13712     13714     13715
     13713     13712     13720     13721     13713     13712     13720     13722
     13713     13712     13720     13723     13714     13712     13720     13721
     13714     13712     13720     13722     13714     13712     13720     13723
     13714     13715     13717     13718     13714     13715     13717     13719
     13714     13715     13717     13729     13715     13714     13712     13720
     13715     13717     13729     13730     13715     13717     13729     13731
     13715     13717     13729     13732     13716     13715     13717     13718
     13716     13715     13717     13719     13716     13715     13717     13729
     13717     13729     13732     13733     13717     13729     13732     13734
     13717     13729     13732     13735     13718     13717     13729     13730
     13718     13717     13729     13731     13718     13717     13729     13732
     13719     13717     13729     13730     13719     13717     13729     13731
     13719     13717     13729     13732     13720     13723     13724     13725
     13720     13723     13724     13726     13721     13720     13723     13724
     13722     13720     13723     13724     13723     13724     13726     13727
     13723     13724     13726     13728     13723     13724     13726     13776
     13724     13726     13776     13777     13724     13726     13776     13778
     13724     13726     13776     13779     13725     13724     13726     13727
     13725     13724     13726     13728     13725     13724     13726     13776
     13726     13776     13779     13780     13726     13776     13779     13781
     13726     13776     13779     13782     13727     13726     13776     13777
     13727     13726     13776     13778     13727     13726     13776     13779
     13728     13726     13776     13777     13728     13726     13776     13778
     13728     13726     13776     13779     13729     13732     13735     13736
     13729     13732     13735     13737     13729     13732     13735     13738
     13730     13729     13732     13733     13730     13729     13732     13734
     13730     13729     13732     13735     13731     13729     13732     13733
     13731     13729     13732     13734     13731     13729     13732     13735
     13732     13735     13738     13739     13732     13735     13738     13740
     13732     13735     13738     13741     13733     13732     13735     13736
     13733     13732     13735     13737     13733     13732     13735     13738
     13734     13732     13735     13736     13734     13732     13735     13737
     13734     13732     13735     13738     13735     13738     13741     13742
     13735     13738     13741     13743     13735     13738     13741     13744
     13736     13735     13738     13739     13736     13735     13738     13740
     13736     13735     13738     13741     13737     13735     13738     13739
     13737     13735     13738     13740     13737     13735     13738     13741
     13738     13741     13744     13745     13738     13741     13744     13746
     13738     13741     13744     13747     13739     13738     13741     13742
     13739     13738     13741     13743     13739     13738     13741     13744
     13740     13738     13741     13742     13740     13738     13741     13743
     13740     13738     13741     13744     13741     13744     13747     13748
     13741     13744     13747     13749     13742     13741     13744     13745
     13742     13741     13744     13746     13742     13741     13744     13747
     13743     13741     13744     13745     13743     13741     13744     13746
     13743     13741     13744     13747     13744     13747     13749     13750
     13744     13747     13749     13751     13745     13744     13747     13748
     13745     13744     13747     13749     13746     13744     13747     13748
     13746     13744     13747     13749     13747     13749     13751     13752
     13747     13749     13751     13753     13747     13749     13751     13754
     13748     13747     13749     13750     13748     13747     13749     13751
     13749     13751     13754     13755     13749     13751     13754     13756
     13749     13751     13754     13757     13750     13749     13751     13752
     13750     13749     13751     13753     13750     13749     13751     13754
     13751     13754     13757     13758     13751     13754     13757     13759
     13751     13754     13757     13760     13752     13751     13754     13755
     13752     13751     13754     13756     13752     13751     13754     13757
     13753     13751     13754     13755     13753     13751     13754     13756
     13753     13751     13754     13757     13754     13757     13760     13761
     13754     13757     13760     13762     13754     13757     13760     13763
     13755     13754     13757     13758     13755     13754     13757     13759
     13755     13754     13757     13760     13756     13754     13757     13758
     13756     13754     13757     13759     13756     13754     13757     13760
     13757     13760     13763     13764     13757     13760     13763     13765
     13757     13760     13763     13766     13758     13757     13760     13761
     13758     13757     13760     13762     13758     13757     13760     13763
     13759     13757     13760     13761     13759     13757     13760     13762
     13759     13757     13760     13763     13760     13763     13766     13767
     13760     13763     13766     13768     13760     13763     13766     13769
     13761     13760     13763     13764     13761     13760     13763     13765
     13761     13760     13763     13766     13762     13760     13763     13764
     13762     13760     13763     13765     13762     13760     13763     13766
     13763     13766     13769     13770     13763     13766     13769     13771
     13763     13766     13769     13772     13764     13763     13766     13767
     13764     13763     13766     13768     13764     13763     13766     13769
     13765     13763     13766     13767     13765     13763     13766     13768
     13765     13763     13766     13769     13766     13769     13772     13773
     13766     13769     13772     13774     13766     13769     13772     13775
     13767     13766     13769     13770     13767     13766     13769     13771
     13767     13766     13769     13772     13768     13766     13769     13770
     13768     13766     13769     13771     13768     13766     13769     13772
     13770     13769     13772     13773     13770     13769     13772     13774
     13770     13769     13772     13775     13771     13769     13772     13773
     13771     13769     13772     13774     13771     13769     13772     13775
     13776     13779     13782     13783     13776     13779     13782     13784
     13776     13779     13782     13785     13777     13776     13779     13780
     13777     13776     13779     13781     13777     13776     13779     13782
     13778     13776     13779     13780     13778     13776     13779     13781
     13778     13776     13779     13782     13779     13782     13785     13786
     13779     13782     13785     13787     13779     13782     13785     13788
     13780     13779     13782     13783     13780     13779     13782     13784
     13780     13779     13782     13785     13781     13779     13782     13783
     13781     13779     13782     13784     13781     13779     13782     13785
     13782     13785     13788     13789     13782     13785     13788     13790
     13782     13785     13788     13791     13783     13782     13785     13786
     13783     13782     13785     13787     13783     13782     13785     13788
     13784     13782     13785     13786     13784     13782     13785     13787
     13784     13782     13785     13788     13785     13788     13791     13792
     13785     13788     13791     13793     13785     13788     13791     13794
     13786     13785     13788     13789     13786     13785     13788     13790
     13786     13785     13788     13791     13787     13785     13788     13789
     13787     13785     13788     13790     13787     13785     13788     13791
     13788     13791     13794     13795     13788     13791     13794     13796
     13788     13791     13794     13797     13789     13788     13791     13792
     13789     13788     13791     13793     13789     13788     13791     13794
     13790     13788     13791     13792     13790     13788     13791     13793
     13790     13788     13791     13794     13791     13794     13797     13798
     13791     13794     13797     13799     13791     13794     13797     13800
     13792     13791     13794     13795     13792     13791     13794     13796
     13792     13791     13794     13797     13793     13791     13794     13795
     13793     13791     13794     13796     13793     13791     13794     13797
     13794     13797     13800     13801     13794     13797     13800     13802
     13794     13797     13800     13803     13795     13794     13797     13798
     13795     13794     13797     13799     13795     13794     13797     13800
     13796     13794     13797     13798     13796     13794     13797     13799
     13796     13794     13797     13800     13797     13800     13803     13804
     13797     13800     13803     13805     13797     13800     13803     13806
     13798     13797     13800     13801     13798     13797     13800     13802
     13798     13797     13800     13803     13799     13797     13800     13801
     13799     13797     13800     13802     13799     13797     13800     13803
     13800     13803     13806     13807     13800     13803     13806     13808
     13800     13803     13806     13809     13801     13800     13803     13804
     13801     13800     13803     13805     13801     13800     13803     13806
     13802     13800     13803     13804     13802     13800     13803     13805
     13802     13800     13803     13806     13803     13806     13809     13810
     13803     13806     13809     13811     13803     13806     13809     13812
     13804     13803     13806     13807     13804     13803     13806     13808
     13804     13803     13806     13809     13805     13803     13806     13807
     13805     13803     13806     13808     13805     13803     13806     13809
     13806     13809     13812     13813     13806     13809     13812     13814
     13806     13809     13812     13815     13807     13806     13809     13810
     13807     13806     13809     13811     13807     13806     13809     13812
     13808     13806     13809     13810     13808     13806     13809     13811
     13808     13806     13809     13812     13809     13812     13815     13816
     13809     13812     13815     13817     13809     13812     13815     13818
     13810     13809     13812     13813     13810     13809     13812     13814
     13810     13809     13812     13815     13811     13809     13812     13813
     13811     13809     13812     13814     13811     13809     13812     13815
     13813     13812     13815     13816     13813     13812     13815     13817
     13813     13812     13815     13818     13814     13812     13815     13816
     13814     13812     13815     13817     13814     13812     13815     13818
     13819     13820     13835     13836     13819     13820     13835     13837
     13819     13820     13835     13841     13820     13819     13823     13824
     13820     13819     13823     13825     13820     13819     13823     13826
     13820     13819     13827     13828     13820     13819     13827     13829
     13820     13819     13827     13830     13820     13819     13831     13832
     13820     13819     13831     13833     13820     13819     13831     13834
     13820     13835     13841     13838     13821     13820     13819     13823
     13821     13820     13819     13827     13821     13820     13819     13831
     13821     13820     13835     13836     13821     13820     13835     13837
     13821     13820     13835     13841     13822     13820     13819     13823
     13822     13820     13819     13827     13822     13820     13819     13831
     13822     13820     13835     13836     13822     13820     13835     13837
     13822     13820     13835     13841     13823     13819     13820     13835
     13823     13819     13827     13828     13823     13819     13827     13829
     13823     13819     13827     13830     13823     13819     13831     13832
     13823     13819     13831     13833     13823     13819     13831     13834
     13824     13823     13819     13827     13824     13823     13819     13831
     13825     13823     13819     13827     13825     13823     13819     13831
     13826     13823     13819     13827     13826     13823     13819     13831
     13827     13819     13820     13835     13827     13819     13831     13832
     13827     13819     13831     13833     13827     13819     13831     13834
     13828     13827     13819     13831     13829     13827     13819     13831
     13830     13827     13819     13831     13831     13819     13820     13835
     13835     13841     13838     13839     13835     13841     13838     13840
     13835     13841     13838     13842     13836     13835     13841     13838
     13837     13835     13841     13838     13838     13842     13843     13844
     13838     13842     13843     13845     13838     13842     13843     13846
     13839     13838     13842     13843     13840     13838     13842     13843
     13841     13838     13842     13843     13842     13843     13846     13847
     13842     13843     13846     13848     13842     13843     13846     13854
     13843     13846     13848     13849     13843     13846     13854     13855
     13843     13846     13854     13856     13843     13846     13854     13857
     13844     13843     13846     13847     13844     13843     13846     13848
     13844     13843     13846     13854     13845     13843     13846     13847
     13845     13843     13846     13848     13845     13843     13846     13854
     13846     13848     13849     13850     13846     13848     13849     13851
     13846     13854     13857     13858     13847     13846     13848     13849
     13847     13846     13854     13855     13847     13846     13854     13856
     13847     13846     13854     13857     13848     13846     13854     13855
     13848     13846     13854     13856     13848     13846     13854     13857
     13848     13849     13851     13852     13848     13849     13851     13853
     13848     13849     13851     13863     13849     13848     13846     13854
     13849     13851     13863     13864     13849     13851     13863     13865
     13849     13851     13863     13866     13850     13849     13851     13852
     13850     13849     13851     13853     13850     13849     13851     13863
     13851     13863     13866     13867     13851     13863     13866     13868
     13851     13863     13866     13869     13852     13851     13863     13864
     13852     13851     13863     13865     13852     13851     13863     13866
     13853     13851     13863     13864     13853     13851     13863     13865
     13853     13851     13863     13866     13854     13857     13858     13859
     13854     13857     13858     13860     13855     13854     13857     13858
     13856     13854     13857     13858     13857     13858     13860     13861
     13857     13858     13860     13862     13857     13858     13860     13910
     13858     13860     13910     13911     13858     13860     13910     13912
     13858     13860     13910     13913     13859     13858     13860     13861
     13859     13858     13860     13862     13859     13858     13860     13910
     13860     13910     13913     13914     13860     13910     13913     13915
     13860     13910     13913     13916     13861     13860     13910     13911
     13861     13860     13910     13912     13861     13860     13910     13913
     13862     13860     13910     13911     13862     13860     13910     13912
     13862     13860     13910     13913     13863     13866     13869     13870
     13863     13866     13869     13871     13863     13866     13869     13872
     13864     13863     13866     13867     13864     13863     13866     13868
     13864     13863     13866     13869     13865     13863     13866     13867
     13865     13863     13866     13868     13865     13863     13866     13869
     13866     13869     13872     13873     13866     13869     13872     13874
     13866     13869     13872     13875     13867     13866     13869     13870
     13867     13866     13869     13871     13867     13866     13869     13872
     13868     13866     13869     13870     13868     13866     13869     13871
     13868     13866     13869     13872     13869     13872     13875     13876
     13869     13872     13875     13877     13869     13872     13875     13878
     13870     13869     13872     13873     13870     13869     13872     13874
     13870     13869     13872     13875     13871     13869     13872     13873
     13871     13869     13872     13874     13871     13869     13872     13875
     13872     13875     13878     13879     13872     13875     13878     13880
     13872     13875     13878     13881     13873     13872     13875     13876
     13873     13872     13875     13877     13873     13872     13875     13878
     13874     13872     13875     13876     13874     13872     13875     13877
     13874     13872     13875     13878     13875     13878     13881     13882
     13875     13878     13881     13883     13876     13875     13878     13879
     13876     13875     13878     13880     13876     13875     13878     13881
     13877     13875     13878     13879     13877     13875     13878     13880
     13877     13875     13878     13881     13878     13881     13883     13884
     13878     13881     13883     13885     13879     13878     13881     13882
     13879     13878     13881     13883     13880     13878     13881     13882
     13880     13878     13881     13883     13881     13883     13885     13886
     13881     13883     13885     13887     13881     13883     13885     13888
     13882     13881     13883     13884     13882     13881     13883     13885
     13883     13885     13888     13889     13883     13885     13888     13890
     13883     13885     13888     13891     13884     13883     13885     13886
     13884     13883     13885     13887     13884     13883     13885     13888
     13885     13888     13891     13892     13885     13888     13891     13893
     13885     13888     13891     13894     13886     13885     13888     13889
     13886     13885     13888     13890     13886     13885     13888     13891
     13887     13885     13888     13889     13887     13885     13888     13890
     13887     13885     13888     13891     13888     13891     13894     13895
     13888     13891     13894     13896     13888     13891     13894     13897
     13889     13888     13891     13892     13889     13888     13891     13893
     13889     13888     13891     13894     13890     13888     13891     13892
     13890     13888     13891     13893     13890     13888     13891     13894
     13891     13894     13897     13898     13891     13894     13897     13899
     13891     13894     13897     13900     13892     13891     13894     13895
     13892     13891     13894     13896     13892     13891     13894     13897
     13893     13891     13894     13895     13893     13891     13894     13896
     13893     13891     13894     13897     13894     13897     13900     13901
     13894     13897     13900     13902     13894     13897     13900     13903
     13895     13894     13897     13898     13895     13894     13897     13899
     13895     13894     13897     13900     13896     13894     13897     13898
     13896     13894     13897     13899     13896     13894     13897     13900
     13897     13900     13903     13904     13897     13900     13903     13905
     13897     13900     13903     13906     13898     13897     13900     13901
     13898     13897     13900     13902     13898     13897     13900     13903
     13899     13897     13900     13901     13899     13897     13900     13902
     13899     13897     13900     13903     13900     13903     13906     13907
     13900     13903     13906     13908     13900     13903     13906     13909
     13901     13900     13903     13904     13901     13900     13903     13905
     13901     13900     13903     13906     13902     13900     13903     13904
     13902     13900     13903     13905     13902     13900     13903     13906
     13904     13903     13906     13907     13904     13903     13906     13908
     13904     13903     13906     13909     13905     13903     13906     13907
     13905     13903     13906     13908     13905     13903     13906     13909
     13910     13913     13916     13917     13910     13913     13916     13918
     13910     13913     13916     13919     13911     13910     13913     13914
     13911     13910     13913     13915     13911     13910     13913     13916
     13912     13910     13913     13914     13912     13910     13913     13915
     13912     13910     13913     13916     13913     13916     13919     13920
     13913     13916     13919     13921     13913     13916     13919     13922
     13914     13913     13916     13917     13914     13913     13916     13918
     13914     13913     13916     13919     13915     13913     13916     13917
     13915     13913     13916     13918     13915     13913     13916     13919
     13916     13919     13922     13923     13916     13919     13922     13924
     13916     13919     13922     13925     13917     13916     13919     13920
     13917     13916     13919     13921     13917     13916     13919     13922
     13918     13916     13919     13920     13918     13916     13919     13921
     13918     13916     13919     13922     13919     13922     13925     13926
     13919     13922     13925     13927     13919     13922     13925     13928
     13920     13919     13922     13923     13920     13919     13922     13924
     13920     13919     13922     13925     13921     13919     13922     13923
     13921     13919     13922     13924     13921     13919     13922     13925
     13922     13925     13928     13929     13922     13925     13928     13930
     13922     13925     13928     13931     13923     13922     13925     13926
     13923     13922     13925     13927     13923     13922     13925     13928
     13924     13922     13925     13926     13924     13922     13925     13927
     13924     13922     13925     13928     13925     13928     13931     13932
     13925     13928     13931     13933     13925     13928     13931     13934
     13926     13925     13928     13929     13926     13925     13928     13930
     13926     13925     13928     13931     13927     13925     13928     13929
     13927     13925     13928     13930     13927     13925     13928     13931
     13928     13931     13934     13935     13928     13931     13934     13936
     13928     13931     13934     13937     13929     13928     13931     13932
     13929     13928     13931     13933     13929     13928     13931     13934
     13930     13928     13931     13932     13930     13928     13931     13933
     13930     13928     13931     13934     13931     13934     13937     13938
     13931     13934     13937     13939     13931     13934     13937     13940
     13932     13931     13934     13935     13932     13931     13934     13936
     13932     13931     13934     13937     13933     13931     13934     13935
     13933     13931     13934     13936     13933     13931     13934     13937
     13934     13937     13940     13941     13934     13937     13940     13942
     13934     13937     13940     13943     13935     13934     13937     13938
     13935     13934     13937     13939     13935     13934     13937     13940
     13936     13934     13937     13938     13936     13934     13937     13939
     13936     13934     13937     13940     13937     13940     13943     13944
     13937     13940     13943     13945     13937     13940     13943     13946
     13938     13937     13940     13941     13938     13937     13940     13942
     13938     13937     13940     13943     13939     13937     13940     13941
     13939     13937     13940     13942     13939     13937     13940     13943
     13940     13943     13946     13947     13940     13943     13946     13948
     13940     13943     13946     13949     13941     13940     13943     13944
     13941     13940     13943     13945     13941     13940     13943     13946
     13942     13940     13943     13944     13942     13940     13943     13945
     13942     13940     13943     13946     13943     13946     13949     13950
     13943     13946     13949     13951     13943     13946     13949     13952
     13944     13943     13946     13947     13944     13943     13946     13948
     13944     13943     13946     13949     13945     13943     13946     13947
     13945     13943     13946     13948     13945     13943     13946     13949
     13947     13946     13949     13950     13947     13946     13949     13951
     13947     13946     13949     13952     13948     13946     13949     13950
     13948     13946     13949     13951     13948     13946     13949     13952
     22961     22974     22977     22978     22961     22974     22977     22979
     22961     22974     22977     22984     22962     22961     22966     22967
     22962     22961     22966     22968     22962     22961     22966     22969
     22962     22961     22970     22971     22962     22961     22970     22972
     22962     22961     22970     22973     22962     22961     22974     22975
     22962     22961     22974     22976     22962     22961     22974     22977
     22963     22962     22961     22966     22963     22962     22961     22970
     22963     22962     22961     22974     22964     22962     22961     22966
     22964     22962     22961     22970     22964     22962     22961     22974
     22965     22962     22961     22966     22965     22962     22961     22970
     22965     22962     22961     22974     22966     22961     22970     22971
     22966     22961     22970     22972     22966     22961     22970     22973
     22966     22961     22974     22975     22966     22961     22974     22976
     22966     22961     22974     22977     22967     22966     22961     22970
     22967     22966     22961     22974     22968     22966     22961     22970
     22968     22966     22961     22974     22969     22966     22961     22970
     22969     22966     22961     22974     22970     22961     22974     22975
     22970     22961     22974     22976     22970     22961     22974     22977
     22971     22970     22961     22974     22972     22970     22961     22974
     22973     22970     22961     22974     22974     22977     22984     22980
     22975     22974     22977     22978     22975     22974     22977     22979
     22975     22974     22977     22984     22976     22974     22977     22978
     22976     22974     22977     22979     22976     22974     22977     22984
     22977     22984     22980     22981     22977     22984     22980     22982
     22977     22984     22980     22983     22978     22977     22984     22980
     22979     22977     22984     22980     22980     22983     22985     22986
     22980     22983     22985     22987     22980     22983     22985     22990
     22981     22980     22983     22985     22982     22980     22983     22985
     22983     22985     22990     22988     22983     22985     22990     22991
     22983     22985     22990     22992     22984     22980     22983     22985
     22985     22990     22988     22989     22985     22990     22988     23040
     22985     22990     22992     22993     22985     22990     22992     22994
     22985     22990     22992     22996     22986     22985     22990     22988
     22986     22985     22990     22991     22986     22985     22990     22992
     22987     22985     22990     22988     22987     22985     22990     22991
     22987     22985     22990     22992     22988     22990     22992     22993
     22988     22990     22992     22994     22988     22990     22992     22996
     22988     23040     23042     23043     22988     23040     23042     23044
     22988     23040     23042     23045     22989     22988     22990     22991
     22989     22988     22990     22992     22989     22988     23040     23041
     22989     22988     23040     23042     22990     22988     23040     23041
     22990     22988     23040     23042     22990     22992     22994     22995
     22990     22992     22996     22997     22990     22992     22996     22998
     22991     22990     22988     23040     22991     22990     22992     22993
     22991     22990     22992     22994     22991     22990     22992     22996
     22992     22990     22988     23040     22992     22996     22998     22999
     22992     22996     22998     23000     22993     22992     22994     22995
     22993     22992     22996     22997     22993     22992     22996     22998
     22994     22992     22996     22997     22994     22992     22996     22998
     22995     22994     22992     22996     22996     22998     23000     23001
     22996     22998     23000     23002     22996     22998     23000     23003
     22997     22996     22998     22999     22997     22996     22998     23000
     22998     23000     23003     23004     22998     23000     23003     23005
     22998     23000     23003     23006     22999     22998     23000     23001
     22999     22998     23000     23002     22999     22998     23000     23003
     23000     23003     23006     23007     23000     23003     23006     23008
     23000     23003     23006     23009     23001     23000     23003     23004
     23001     23000     23003     23005     23001     23000     23003     23006
     23002     23000     23003     23004     23002     23000     23003     23005
     23002     23000     23003     23006     23003     23006     23009     23010
     23003     23006     23009     23011     23003     23006     23009     23012
     23004     23003     23006     23007     23004     23003     23006     23008
     23004     23003     23006     23009     23005     23003     23006     23007
     23005     23003     23006     23008     23005     23003     23006     23009
     23006     23009     23012     23013     23006     23009     23012     23014
     23006     23009     23012     23015     23007     23006     23009     23010
     23007     23006     23009     23011     23007     23006     23009     23012
     23008     23006     23009     23010     23008     23006     23009     23011
     23008     23006     23009     23012     23009     23012     23015     23016
     23009     23012     23015     23017     23009     23012     23015     23018
     23010     23009     23012     23013     23010     23009     23012     23014
     23010     23009     23012     23015     23011     23009     23012     23013
     23011     23009     23012     23014     23011     23009     23012     23015
     23012     23015     23018     23019     23012     23015     23018     23020
     23012     23015     23018     23021     23013     23012     23015     23016
     23013     23012     23015     23017     23013     23012     23015     23018
     23014     23012     23015     23016     23014     23012     23015     23017
     23014     23012     23015     23018     23015     23018     23021     23022
     23015     23018     23021     23023     23015     23018     23021     23024
     23016     23015     23018     23019     23016     23015     23018     23020
     23016     23015     23018     23021     23017     23015     23018     23019
     23017     23015     23018     23020     23017     23015     23018     23021
     23018     23021     23024     23025     23018     23021     23024     23026
     23018     23021     23024     23027     23019     23018     23021     23022
     23019     23018     23021     23023     23019     23018     23021     23024
     23020     23018     23021     23022     23020     23018     23021     23023
     23020     23018     23021     23024     23021     23024     23027     23028
     23021     23024     23027     23029     23021     23024     23027     23030
     23022     23021     23024     23025     23022     23021     23024     23026
     23022     23021     23024     23027     23023     23021     23024     23025
     23023     23021     23024     23026     23023     23021     23024     23027
     23024     23027     23030     23031     23024     23027     23030     23032
     23024     23027     23030     23033     23025     23024     23027     23028
     23025     23024     23027     23029     23025     23024     23027     23030
     23026     23024     23027     23028     23026     23024     23027     23029
     23026     23024     23027     23030     23027     23030     23033     23034
     23027     23030     23033     23035     23027     23030     23033     23036
     23028     23027     23030     23031     23028     23027     23030     23032
     23028     23027     23030     23033     23029     23027     23030     23031
     23029     23027     23030     23032     23029     23027     23030     23033
     23030     23033     23036     23037     23030     23033     23036     23038
     23030     23033     23036     23039     23031     23030     23033     23034
     23031     23030     23033     23035     23031     23030     23033     23036
     23032     23030     23033     23034     23032     23030     23033     23035
     23032     23030     23033     23036     23034     23033     23036     23037
     23034     23033     23036     23038     23034     23033     23036     23039
     23035     23033     23036     23037     23035     23033     23036     23038
     23035     23033     23036     23039     23040     23042     23045     23046
     23040     23042     23045     23047     23040     23042     23045     23048
     23041     23040     23042     23043     23041     23040     23042     23044
     23041     23040     23042     23045     23042     23045     23048     23049
     23042     23045     23048     23050     23042     23045     23048     23051
     23043     23042     23045     23046     23043     23042     23045     23047
     23043     23042     23045     23048     23044     23042     23045     23046
     23044     23042     23045     23047     23044     23042     23045     23048
     23045     23048     23051     23052     23045     23048     23051     23053
     23045     23048     23051     23054     23046     23045     23048     23049
     23046     23045     23048     23050     23046     23045     23048     23051
     23047     23045     23048     23049     23047     23045     23048     23050
     23047     23045     23048     23051     23048     23051     23054     23055
     23048     23051     23054     23056     23048     23051     23054     23057
     23049     23048     23051     23052     23049     23048     23051     23053
     23049     23048     23051     23054     23050     23048     23051     23052
     23050     23048     23051     23053     23050     23048     23051     23054
     23051     23054     23057     23058     23051     23054     23057     23059
     23051     23054     23057     23060     23052     23051     23054     23055
     23052     23051     23054     23056     23052     23051     23054     23057
     23053     23051     23054     23055     23053     23051     23054     23056
     23053     23051     23054     23057     23054     23057     23060     23061
     23054     23057     23060     23062     23054     23057     23060     23063
     23055     23054     23057     23058     23055     23054     23057     23059
     23055     23054     23057     23060     23056     23054     23057     23058
     23056     23054     23057     23059     23056     23054     23057     23060
     23057     23060     23063     23064     23057     23060     23063     23065
     23057     23060     23063     23066     23058     23057     23060     23061
     23058     23057     23060     23062     23058     23057     23060     23063
     23059     23057     23060     23061     23059     23057     23060     23062
     23059     23057     23060     23063     23060     23063     23066     23067
     23060     23063     23066     23068     23060     23063     23066     23069
     23061     23060     23063     23064     23061     23060     23063     23065
     23061     23060     23063     23066     23062     23060     23063     23064
     23062     23060     23063     23065     23062     23060     23063     23066
     23063     23066     23069     23070     23063     23066     23069     23071
     23063     23066     23069     23072     23064     23063     23066     23067
     23064     23063     23066     23068     23064     23063     23066     23069
     23065     23063     23066     23067     23065     23063     23066     23068
     23065     23063     23066     23069     23066     23069     23072     23073
     23066     23069     23072     23074     23066     23069     23072     23075
     23067     23066     23069     23070     23067     23066     23069     23071
     23067     23066     23069     23072     23068     23066     23069     23070
     23068     23066     23069     23071     23068     23066     23069     23072
     23069     23072     23075     23076     23069     23072     23075     23077
     23069     23072     23075     23078     23070     23069     23072     23073
     23070     23069     23072     23074     23070     23069     23072     23075
     23071     23069     23072     23073     23071     23069     23072     23074
     23071     23069     23072     23075     23072     23075     23078     23079
     23072     23075     23078     23080     23072     23075     23078     23081
     23073     23072     23075     23076     23073     23072     23075     23077
     23073     23072     23075     23078     23074     23072     23075     23076
     23074     23072     23075     23077     23074     23072     23075     23078
     23075     23078     23081     23082     23075     23078     23081     23083
     23075     23078     23081     23084     23076     23075     23078     23079
     23076     23075     23078     23080     23076     23075     23078     23081
     23077     23075     23078     23079     23077     23075     23078     23080
     23077     23075     23078     23081     23078     23081     23084     23085
     23078     23081     23084     23086     23078     23081     23084     23087
     23079     23078     23081     23082     23079     23078     23081     23083
     23079     23078     23081     23084     23080     23078     23081     23082
     23080     23078     23081     23083     23080     23078     23081     23084
     23082     23081     23084     23085     23082     23081     23084     23086
     23082     23081     23084     23087     23083     23081     23084     23085
     23083     23081     23084     23086     23083     23081     23084     23087
       297       301       304       305       297       301       304       335
       297       343       340       335       297       343       340       341
       297       343       340       342       298       297       299       300
       298       297       301       302       298       297       301       303
       298       297       301       304       298       297       343       340
       298       297       343       344       298       297       343       345
       299       297       301       302       299       297       301       303
       299       297       301       304       299       297       343       340
       299       297       343       344       299       297       343       345
       300       299       297       301       300       299       297       343
       301       297       343       340       301       297       343       344
       301       297       343       345       301       304       305       306
       301       304       305       307       301       304       335       333
       301       304       335       336       301       304       335       340
       302       301       297       343       302       301       304       305
       302       301       304       335       303       301       297       343
       303       301       304       305       303       301       304       335
       304       301       297       343       304       305       307       308
       304       305       307       309       304       305       307       310
       304       335       333       310       304       335       333       330
       304       335       333       334       304       335       336       337
       304       335       336       338       304       335       336       339
       304       335       340       341       304       335       340       342
       304       335       340       343       305       304       335       333
       305       304       335       336       305       304       335       340
       305       307       310       311       305       307       310       312
       305       307       310       333       306       305       304       335
       306       305       307       308       306       305       307       309
       306       305       307       310       307       305       304       335
       307       310       312       313       307       310       312       314
       307       310       312       322       307       310       333       330
       307       310       333       334       307       310       333       335
       308       307       310       311       308       307       310       312
       308       307       310       333       309       307       310       311
       309       307       310       312       309       307       310       333
       310       312       314       315       310       312       314       316
       310       312       314       317       310       312       322       320
       310       312       322       323       310       312       322       327
       310       333       330       327       310       333       330       331
       310       333       330       332       310       333       335       336
       310       333       335       340       311       310       312       313
       311       310       312       314       311       310       312       322
       311       310       333       330       311       310       333       334
       311       310       333       335       312       310       333       330
       312       310       333       334       312       310       333       335
       312       314       317       318       312       314       317       319
       312       314       317       320       312       322       320       317
       312       322       320       321       312       322       320       346
       312       322       323       324       312       322       323       325
       312       322       323       326       312       322       327       328
       312       322       327       329       312       322       327       330
       313       312       310       333       313       312       314       315
       313       312       314       316       313       312       314       317
       313       312       322       320       313       312       322       323
       313       312       322       327       314       312       310       333
       314       312       322       320       314       312       322       323
       314       312       322       327       314       317       320       321
       314       317       320       322       314       317       320       346
       315       314       312       322       315       314       317       318
       315       314       317       319       315       314       317       320
       316       314       312       322       316       314       317       318
       316       314       317       319       316       314       317       320
       317       314       312       322       317       320       322       323
       317       320       322       327       317       320       346       347
       317       320       346       348       317       320       346       352
       318       317       320       321       318       317       320       322
       318       317       320       346       319       317       320       321
       319       317       320       322       319       317       320       346
       320       322       323       324       320       322       323       325
       320       322       323       326       320       322       327       328
       320       322       327       329       320       322       327       330
       320       346       348       349       320       346       348       350
       320       346       348       351       320       346       352       353
       320       346       352       354       320       346       352       355
       321       320       322       323       321       320       322       327
       321       320       346       347       321       320       346       348
       321       320       346       352       322       312       310       333
       322       320       346       347       322       320       346       348
       322       320       346       352       322       327       330       331
       322       327       330       332       322       327       330       333
       323       322       320       346       323       322       327       328
       323       322       327       329       323       322       327       330
       324       323       322       327       325       323       322       327
       326       323       322       327       327       322       320       346
       327       330       333       334       327       330       333       335
       328       327       330       331       328       327       330       332
       328       327       330       333       329       327       330       331
       329       327       330       332       329       327       330       333
       330       333       335       336       330       333       335       340
       331       330       333       334       331       330       333       335
       332       330       333       334       332       330       333       335
       333       335       336       337       333       335       336       338
       333       335       336       339       333       335       340       341
       333       335       340       342       333       335       340       343
       334       333       335       336       334       333       335       340
       335       340       343       344       335       340       343       345
       336       335       340       341       336       335       340       342
       336       335       340       343       337       336       335       340
       338       336       335       340       339       336       335       340
       341       340       343       344       341       340       343       345
       342       340       343       344       342       340       343       345
       346       352       355       356       346       352       355       357
       346       352       355       358       347       346       348       349
       347       346       348       350       347       346       348       351
       347       346       352       353       347       346       352       354
       347       346       352       355       348       346       352       353
       348       346       352       354       348       346       352       355
       349       348       346       352       350       348       346       352
       351       348       346       352       352       355       358       359
       352       355       358       360       352       355       358       361
       353       352       355       356       353       352       355       357
       353       352       355       358       354       352       355       356
       354       352       355       357       354       352       355       358
       355       358       361       362       355       358       361       363
       355       358       361       367       356       355       358       359
       356       355       358       360       356       355       358       361
       357       355       358       359       357       355       358       360
       357       355       358       361       358       361       363       364
       358       361       363       365       358       361       363       366
       358       361       367       368       358       361       367       369
       358       361       367       370       359       358       361       362
       359       358       361       363       359       358       361       367
       360       358       361       362       360       358       361       363
       360       358       361       367       362       361       363       364
       362       361       363       365       362       361       363       366
       362       361       367       368       362       361       367       369
       362       361       367       370       363       361       367       368
       363       361       367       369       363       361       367       370
       364       363       361       367       365       363       361       367
       366       363       361       367     13953     13954     13969     13970
     13953     13954     13969     13971     13953     13954     13969     13975
     13954     13953     13957     13958     13954     13953     13957     13959
     13954     13953     13957     13960     13954     13953     13961     13962
     13954     13953     13961     13963     13954     13953     13961     13964
     13954     13953     13965     13966     13954     13953     13965     13967
     13954     13953     13965     13968     13954     13969     13975     13972
     13955     13954     13953     13957     13955     13954     13953     13961
     13955     13954     13953     13965     13955     13954     13969     13970
     13955     13954     13969     13971     13955     13954     13969     13975
     13956     13954     13953     13957     13956     13954     13953     13961
     13956     13954     13953     13965     13956     13954     13969     13970
     13956     13954     13969     13971     13956     13954     13969     13975
     13957     13953     13954     13969     13957     13953     13961     13962
     13957     13953     13961     13963     13957     13953     13961     13964
     13957     13953     13965     13966     13957     13953     13965     13967
     13957     13953     13965     13968     13958     13957     13953     13961
     13958     13957     13953     13965     13959     13957     13953     13961
     13959     13957     13953     13965     13960     13957     13953     13961
     13960     13957     13953     13965     13961     13953     13954     13969
     13961     13953     13965     13966     13961     13953     13965     13967
     13961     13953     13965     13968     13962     13961     13953     13965
     13963     13961     13953     13965     13964     13961     13953     13965
     13965     13953     13954     13969     13969     13975     13972     13973
     13969     13975     13972     13974     13969     13975     13972     13976
     13970     13969     13975     13972     13971     13969     13975     13972
     13972     13976     13977     13978     13972     13976     13977     13979
     13972     13976     13977     13980     13973     13972     13976     13977
     13974     13972     13976     13977     13975     13972     13976     13977
     13976     13977     13980     13981     13976     13977     13980     13982
     13976     13977     13980     13988     13977     13980     13982     13983
     13977     13980     13988     13989     13977     13980     13988     13990
     13977     13980     13988     13991     13978     13977     13980     13981
     13978     13977     13980     13982     13978     13977     13980     13988
     13979     13977     13980     13981     13979     13977     13980     13982
     13979     13977     13980     13988     13980     13982     13983     13984
     13980     13982     13983     13985     13980     13988     13991     13992
     13981     13980     13982     13983     13981     13980     13988     13989
     13981     13980     13988     13990     13981     13980     13988     13991
     13982     13980     13988     13989     13982     13980     13988     13990
     13982     13980     13988     13991     13982     13983     13985     13986
     13982     13983     13985     13987     13982     13983     13985     13997
     13983     13982     13980     13988     13983     13985     13997     13998
     13983     13985     13997     13999     13983     13985     13997     14000
     13984     13983     13985     13986     13984     13983     13985     13987
     13984     13983     13985     13997     13985     13997     14000     14001
     13985     13997     14000     14002     13985     13997     14000     14003
     13986     13985     13997     13998     13986     13985     13997     13999
     13986     13985     13997     14000     13987     13985     13997     13998
     13987     13985     13997     13999     13987     13985     13997     14000
     13988     13991     13992     13993     13988     13991     13992     13994
     13989     13988     13991     13992     13990     13988     13991     13992
     13991     13992     13994     13995     13991     13992     13994     13996
     13991     13992     13994     14044     13992     13994     14044     14045
     13992     13994     14044     14046     13992     13994     14044     14047
     13993     13992     13994     13995     13993     13992     13994     13996
     13993     13992     13994     14044     13994     14044     14047     14048
     13994     14044     14047     14049     13994     14044     14047     14050
     13995     13994     14044     14045     13995     13994     14044     14046
     13995     13994     14044     14047     13996     13994     14044     14045
     13996     13994     14044     14046     13996     13994     14044     14047
     13997     14000     14003     14004     13997     14000     14003     14005
     13997     14000     14003     14006     13998     13997     14000     14001
     13998     13997     14000     14002     13998     13997     14000     14003
     13999     13997     14000     14001     13999     13997     14000     14002
     13999     13997     14000     14003     14000     14003     14006     14007
     14000     14003     14006     14008     14000     14003     14006     14009
     14001     14000     14003     14004     14001     14000     14003     14005
     14001     14000     14003     14006     14002     14000     14003     14004
     14002     14000     14003     14005     14002     14000     14003     14006
     14003     14006     14009     14010     14003     14006     14009     14011
     14003     14006     14009     14012     14004     14003     14006     14007
     14004     14003     14006     14008     14004     14003     14006     14009
     14005     14003     14006     14007     14005     14003     14006     14008
     14005     14003     14006     14009     14006     14009     14012     14013
     14006     14009     14012     14014     14006     14009     14012     14015
     14007     14006     14009     14010     14007     14006     14009     14011
     14007     14006     14009     14012     14008     14006     14009     14010
     14008     14006     14009     14011     14008     14006     14009     14012
     14009     14012     14015     14016     14009     14012     14015     14017
     14010     14009     14012     14013     14010     14009     14012     14014
     14010     14009     14012     14015     14011     14009     14012     14013
     14011     14009     14012     14014     14011     14009     14012     14015
     14012     14015     14017     14018     14012     14015     14017     14019
     14013     14012     14015     14016     14013     14012     14015     14017
     14014     14012     14015     14016     14014     14012     14015     14017
     14015     14017     14019     14020     14015     14017     14019     14021
     14015     14017     14019     14022     14016     14015     14017     14018
     14016     14015     14017     14019     14017     14019     14022     14023
     14017     14019     14022     14024     14017     14019     14022     14025
     14018     14017     14019     14020     14018     14017     14019     14021
     14018     14017     14019     14022     14019     14022     14025     14026
     14019     14022     14025     14027     14019     14022     14025     14028
     14020     14019     14022     14023     14020     14019     14022     14024
     14020     14019     14022     14025     14021     14019     14022     14023
     14021     14019     14022     14024     14021     14019     14022     14025
     14022     14025     14028     14029     14022     14025     14028     14030
     14022     14025     14028     14031     14023     14022     14025     14026
     14023     14022     14025     14027     14023     14022     14025     14028
     14024     14022     14025     14026     14024     14022     14025     14027
     14024     14022     14025     14028     14025     14028     14031     14032
     14025     14028     14031     14033     14025     14028     14031     14034
     14026     14025     14028     14029     14026     14025     14028     14030
     14026     14025     14028     14031     14027     14025     14028     14029
     14027     14025     14028     14030     14027     14025     14028     14031
     14028     14031     14034     14035     14028     14031     14034     14036
     14028     14031     14034     14037     14029     14028     14031     14032
     14029     14028     14031     14033     14029     14028     14031     14034
     14030     14028     14031     14032     14030     14028     14031     14033
     14030     14028     14031     14034     14031     14034     14037     14038
     14031     14034     14037     14039     14031     14034     14037     14040
     14032     14031     14034     14035     14032     14031     14034     14036
     14032     14031     14034     14037     14033     14031     14034     14035
     14033     14031     14034     14036     14033     14031     14034     14037
     14034     14037     14040     14041     14034     14037     14040     14042
     14034     14037     14040     14043     14035     14034     14037     14038
     14035     14034     14037     14039     14035     14034     14037     14040
     14036     14034     14037     14038     14036     14034     14037     14039
     14036     14034     14037     14040     14038     14037     14040     14041
     14038     14037     14040     14042     14038     14037     14040     14043
     14039     14037     14040     14041     14039     14037     14040     14042
     14039     14037     14040     14043     14044     14047     14050     14051
     14044     14047     14050     14052     14044     14047     14050     14053
     14045     14044     14047     14048     14045     14044     14047     14049
     14045     14044     14047     14050     14046     14044     14047     14048
     14046     14044     14047     14049     14046     14044     14047     14050
     14047     14050     14053     14054     14047     14050     14053     14055
     14047     14050     14053     14056     14048     14047     14050     14051
     14048     14047     14050     14052     14048     14047     14050     14053
     14049     14047     14050     14051     14049     14047     14050     14052
     14049     14047     14050     14053     14050     14053     14056     14057
     14050     14053     14056     14058     14050     14053     14056     14059
     14051     14050     14053     14054     14051     14050     14053     14055
     14051     14050     14053     14056     14052     14050     14053     14054
     14052     14050     14053     14055     14052     14050     14053     14056
     14053     14056     14059     14060     14053     14056     14059     14061
     14053     14056     14059     14062     14054     14053     14056     14057
     14054     14053     14056     14058     14054     14053     14056     14059
     14055     14053     14056     14057     14055     14053     14056     14058
     14055     14053     14056     14059     14056     14059     14062     14063
     14056     14059     14062     14064     14056     14059     14062     14065
     14057     14056     14059     14060     14057     14056     14059     14061
     14057     14056     14059     14062     14058     14056     14059     14060
     14058     14056     14059     14061     14058     14056     14059     14062
     14059     14062     14065     14066     14059     14062     14065     14067
     14059     14062     14065     14068     14060     14059     14062     14063
     14060     14059     14062     14064     14060     14059     14062     14065
     14061     14059     14062     14063     14061     14059     14062     14064
     14061     14059     14062     14065     14062     14065     14068     14069
     14062     14065     14068     14070     14062     14065     14068     14071
     14063     14062     14065     14066     14063     14062     14065     14067
     14063     14062     14065     14068     14064     14062     14065     14066
     14064     14062     14065     14067     14064     14062     14065     14068
     14065     14068     14071     14072     14065     14068     14071     14073
     14065     14068     14071     14074     14066     14065     14068     14069
     14066     14065     14068     14070     14066     14065     14068     14071
     14067     14065     14068     14069     14067     14065     14068     14070
     14067     14065     14068     14071     14068     14071     14074     14075
     14068     14071     14074     14076     14068     14071     14074     14077
     14069     14068     14071     14072     14069     14068     14071     14073
     14069     14068     14071     14074     14070     14068     14071     14072
     14070     14068     14071     14073     14070     14068     14071     14074
     14071     14074     14077     14078     14071     14074     14077     14079
     14071     14074     14077     14080     14072     14071     14074     14075
     14072     14071     14074     14076     14072     14071     14074     14077
     14073     14071     14074     14075     14073     14071     14074     14076
     14073     14071     14074     14077     14074     14077     14080     14081
     14074     14077     14080     14082     14074     14077     14080     14083
     14075     14074     14077     14078     14075     14074     14077     14079
     14075     14074     14077     14080     14076     14074     14077     14078
     14076     14074     14077     14079     14076     14074     14077     14080
     14077     14080     14083     14084     14077     14080     14083     14085
     14077     14080     14083     14086     14078     14077     14080     14081
     14078     14077     14080     14082     14078     14077     14080     14083
     14079     14077     14080     14081     14079     14077     14080     14082
     14079     14077     14080     14083     14081     14080     14083     14084
     14081     14080     14083     14085     14081     14080     14083     14086
     14082     14080     14083     14084     14082     14080     14083     14085
     14082     14080     14083     14086      8598      8602      8604      8605
      8598      8602      8604      8606      8598      8602      8607      8608
      8598      8602      8607      8609      8598      8602      8607      8613
      8599      8598      8602      8603      8599      8598      8602      8604
      8599      8598      8602      8607      8600      8598      8602      8603
      8600      8598      8602      8604      8600      8598      8602      8607
      8601      8598      8602      8603      8601      8598      8602      8604
      8601      8598      8602      8607      8602      8607      8613      8610
      8603      8602      8604      8605      8603      8602      8604      8606
      8603      8602      8607      8608      8603      8602      8607      8609
      8603      8602      8607      8613      8604      8602      8607      8608
      8604      8602      8607      8609      8604      8602      8607      8613
      8605      8604      8602      8607      8606      8604      8602      8607
      8607      8613      8610      8611      8607      8613      8610      8612
      8607      8613      8610      8614      8608      8607      8613      8610
      8609      8607      8613      8610      8610      8614      8615      8616
      8610      8614      8615      8617      8610      8614      8615      8618
      8611      8610      8614      8615      8612      8610      8614      8615
      8613      8610      8614      8615      8614      8615      8618      8619
      8614      8615      8618      8620      8614      8615      8618      8626
      8615      8618      8620      8621      8615      8618      8626      8627
      8615      8618      8626      8628      8615      8618      8626      8629
      8616      8615      8618      8619      8616      8615      8618      8620
      8616      8615      8618      8626      8617      8615      8618      8619
      8617      8615      8618      8620      8617      8615      8618      8626
      8618      8620      8621      8622      8618      8620      8621      8623
      8618      8626      8629      8630      8619      8618      8620      8621
      8619      8618      8626      8627      8619      8618      8626      8628
      8619      8618      8626      8629      8620      8618      8626      8627
      8620      8618      8626      8628      8620      8618      8626      8629
      8620      8621      8623      8624      8620      8621      8623      8625
      8620      8621      8623      8635      8621      8620      8618      8626
      8621      8623      8635      8636      8621      8623      8635      8637
      8621      8623      8635      8638      8622      8621      8623      8624
      8622      8621      8623      8625      8622      8621      8623      8635
      8623      8635      8638      8639      8623      8635      8638      8640
      8623      8635      8638      8641      8624      8623      8635      8636
      8624      8623      8635      8637      8624      8623      8635      8638
      8625      8623      8635      8636      8625      8623      8635      8637
      8625      8623      8635      8638      8626      8629      8630      8631
      8626      8629      8630      8632      8627      8626      8629      8630
      8628      8626      8629      8630      8629      8630      8632      8633
      8629      8630      8632      8634      8629      8630      8632      8682
      8630      8632      8682      8683      8630      8632      8682      8684
      8630      8632      8682      8685      8631      8630      8632      8633
      8631      8630      8632      8634      8631      8630      8632      8682
      8632      8682      8685      8686      8632      8682      8685      8687
      8632      8682      8685      8688      8633      8632      8682      8683
      8633      8632      8682      8684      8633      8632      8682      8685
      8634      8632      8682      8683      8634      8632      8682      8684
      8634      8632      8682      8685      8635      8638      8641      8642
      8635      8638      8641      8643      8635      8638      8641      8644
      8636      8635      8638      8639      8636      8635      8638      8640
      8636      8635      8638      8641      8637      8635      8638      8639
      8637      8635      8638      8640      8637      8635      8638      8641
      8638      8641      8644      8645      8638      8641      8644      8646
      8638      8641      8644      8647      8639      8638      8641      8642
      8639      8638      8641      8643      8639      8638      8641      8644
      8640      8638      8641      8642      8640      8638      8641      8643
      8640      8638      8641      8644      8641      8644      8647      8648
      8641      8644      8647      8649      8641      8644      8647      8650
      8642      8641      8644      8645      8642      8641      8644      8646
      8642      8641      8644      8647      8643      8641      8644      8645
      8643      8641      8644      8646      8643      8641      8644      8647
      8644      8647      8650      8651      8644      8647      8650      8652
      8644      8647      8650      8653      8645      8644      8647      8648
      8645      8644      8647      8649      8645      8644      8647      8650
      8646      8644      8647      8648      8646      8644      8647      8649
      8646      8644      8647      8650      8647      8650      8653      8654
      8647      8650      8653      8655      8648      8647      8650      8651
      8648      8647      8650      8652      8648      8647      8650      8653
      8649      8647      8650      8651      8649      8647      8650      8652
      8649      8647      8650      8653      8650      8653      8655      8656
      8650      8653      8655      8657      8651      8650      8653      8654
      8651      8650      8653      8655      8652      8650      8653      8654
      8652      8650      8653      8655      8653      8655      8657      8658
      8653      8655      8657      8659      8653      8655      8657      8660
      8654      8653      8655      8656      8654      8653      8655      8657
      8655      8657      8660      8661      8655      8657      8660      8662
      8655      8657      8660      8663      8656      8655      8657      8658
      8656      8655      8657      8659      8656      8655      8657      8660
      8657      8660      8663      8664      8657      8660      8663      8665
      8657      8660      8663      8666      8658      8657      8660      8661
      8658      8657      8660      8662      8658      8657      8660      8663
      8659      8657      8660      8661      8659      8657      8660      8662
      8659      8657      8660      8663      8660      8663      8666      8667
      8660      8663      8666      8668      8660      8663      8666      8669
      8661      8660      8663      8664      8661      8660      8663      8665
      8661      8660      8663      8666      8662      8660      8663      8664
      8662      8660      8663      8665      8662      8660      8663      8666
      8663      8666      8669      8670      8663      8666      8669      8671
      8663      8666      8669      8672      8664      8663      8666      8667
      8664      8663      8666      8668      8664      8663      8666      8669
      8665      8663      8666      8667      8665      8663      8666      8668
      8665      8663      8666      8669      8666      8669      8672      8673
      8666      8669      8672      8674      8666      8669      8672      8675
      8667      8666      8669      8670      8667      8666      8669      8671
      8667      8666      8669      8672      8668      8666      8669      8670
      8668      8666      8669      8671      8668      8666      8669      8672
      8669      8672      8675      8676      8669      8672      8675      8677
      8669      8672      8675      8678      8670      8669      8672      8673
      8670      8669      8672      8674      8670      8669      8672      8675
      8671      8669      8672      8673      8671      8669      8672      8674
      8671      8669      8672      8675      8672      8675      8678      8679
      8672      8675      8678      8680      8672      8675      8678      8681
      8673      8672      8675      8676      8673      8672      8675      8677
      8673      8672      8675      8678      8674      8672      8675      8676
      8674      8672      8675      8677      8674      8672      8675      8678
      8676      8675      8678      8679      8676      8675      8678      8680
      8676      8675      8678      8681      8677      8675      8678      8679
      8677      8675      8678      8680      8677      8675      8678      8681
      8682      8685      8688      8689      8682      8685      8688      8690
      8682      8685      8688      8691      8683      8682      8685      8686
      8683      8682      8685      8687      8683      8682      8685      8688
      8684      8682      8685      8686      8684      8682      8685      8687
      8684      8682      8685      8688      8685      8688      8691      8692
      8685      8688      8691      8693      8685      8688      8691      8694
      8686      8685      8688      8689      8686      8685      8688      8690
      8686      8685      8688      8691      8687      8685      8688      8689
      8687      8685      8688      8690      8687      8685      8688      8691
      8688      8691      8694      8695      8688      8691      8694      8696
      8688      8691      8694      8697      8689      8688      8691      8692
      8689      8688      8691      8693      8689      8688      8691      8694
      8690      8688      8691      8692      8690      8688      8691      8693
      8690      8688      8691      8694      8691      8694      8697      8698
      8691      8694      8697      8699      8691      8694      8697      8700
      8692      8691      8694      8695      8692      8691      8694      8696
      8692      8691      8694      8697      8693      8691      8694      8695
      8693      8691      8694      8696      8693      8691      8694      8697
      8694      8697      8700      8701      8694      8697      8700      8702
      8694      8697      8700      8703      8695      8694      8697      8698
      8695      8694      8697      8699      8695      8694      8697      8700
      8696      8694      8697      8698      8696      8694      8697      8699
      8696      8694      8697      8700      8697      8700      8703      8704
      8697      8700      8703      8705      8697      8700      8703      8706
      8698      8697      8700      8701      8698      8697      8700      8702
      8698      8697      8700      8703      8699      8697      8700      8701
      8699      8697      8700      8702      8699      8697      8700      8703
      8700      8703      8706      8707      8700      8703      8706      8708
      8700      8703      8706      8709      8701      8700      8703      8704
      8701      8700      8703      8705      8701      8700      8703      8706
      8702      8700      8703      8704      8702      8700      8703      8705
      8702      8700      8703      8706      8703      8706      8709      8710
      8703      8706      8709      8711      8703      8706      8709      8712
      8704      8703      8706      8707      8704      8703      8706      8708
      8704      8703      8706      8709      8705      8703      8706      8707
      8705      8703      8706      8708      8705      8703      8706      8709
      8706      8709      8712      8713      8706      8709      8712      8714
      8706      8709      8712      8715      8707      8706      8709      8710
      8707      8706      8709      8711      8707      8706      8709      8712
      8708      8706      8709      8710      8708      8706      8709      8711
      8708      8706      8709      8712      8709      8712      8715      8716
      8709      8712      8715      8717      8709      8712      8715      8718
      8710      8709      8712      8713      8710      8709      8712      8714
      8710      8709      8712      8715      8711      8709      8712      8713
      8711      8709      8712      8714      8711      8709      8712      8715
      8712      8715      8718      8719      8712      8715      8718      8720
      8712      8715      8718      8721      8713      8712      8715      8716
      8713      8712      8715      8717      8713      8712      8715      8718
      8714      8712      8715      8716      8714      8712      8715      8717
      8714      8712      8715      8718      8715      8718      8721      8722
      8715      8718      8721      8723      8715      8718      8721      8724
      8716      8715      8718      8719      8716      8715      8718      8720
      8716      8715      8718      8721      8717      8715      8718      8719
      8717      8715      8718      8720      8717      8715      8718      8721
      8719      8718      8721      8722      8719      8718      8721      8723
      8719      8718      8721      8724      8720      8718      8721      8722
      8720      8718      8721      8723      8720      8718      8721      8724
     14087     14088     14103     14104     14087     14088     14103     14105
     14087     14088     14103     14109     14088     14087     14091     14092
     14088     14087     14091     14093     14088     14087     14091     14094
     14088     14087     14095     14096     14088     14087     14095     14097
     14088     14087     14095     14098     14088     14087     14099     14100
     14088     14087     14099     14101     14088     14087     14099     14102
     14088     14103     14109     14106     14089     14088     14087     14091
     14089     14088     14087     14095     14089     14088     14087     14099
     14089     14088     14103     14104     14089     14088     14103     14105
     14089     14088     14103     14109     14090     14088     14087     14091
     14090     14088     14087     14095     14090     14088     14087     14099
     14090     14088     14103     14104     14090     14088     14103     14105
     14090     14088     14103     14109     14091     14087     14088     14103
     14091     14087     14095     14096     14091     14087     14095     14097
     14091     14087     14095     14098     14091     14087     14099     14100
     14091     14087     14099     14101     14091     14087     14099     14102
     14092     14091     14087     14095     14092     14091     14087     14099
     14093     14091     14087     14095     14093     14091     14087     14099
     14094     14091     14087     14095     14094     14091     14087     14099
     14095     14087     14088     14103     14095     14087     14099     14100
     14095     14087     14099     14101     14095     14087     14099     14102
     14096     14095     14087     14099     14097     14095     14087     14099
     14098     14095     14087     14099     14099     14087     14088     14103
     14103     14109     14106     14107     14103     14109     14106     14108
     14103     14109     14106     14110     14104     14103     14109     14106
     14105     14103     14109     14106     14106     14110     14111     14112
     14106     14110     14111     14113     14106     14110     14111     14114
     14107     14106     14110     14111     14108     14106     14110     14111
     14109     14106     14110     14111     14110     14111     14114     14115
     14110     14111     14114     14116     14110     14111     14114     14122
     14111     14114     14116     14117     14111     14114     14122     14123
     14111     14114     14122     14124     14111     14114     14122     14125
     14112     14111     14114     14115     14112     14111     14114     14116
     14112     14111     14114     14122     14113     14111     14114     14115
     14113     14111     14114     14116     14113     14111     14114     14122
     14114     14116     14117     14118     14114     14116     14117     14119
     14114     14122     14125     14126     14115     14114     14116     14117
     14115     14114     14122     14123     14115     14114     14122     14124
     14115     14114     14122     14125     14116     14114     14122     14123
     14116     14114     14122     14124     14116     14114     14122     14125
     14116     14117     14119     14120     14116     14117     14119     14121
     14116     14117     14119     14131     14117     14116     14114     14122
     14117     14119     14131     14132     14117     14119     14131     14133
     14117     14119     14131     14134     14118     14117     14119     14120
     14118     14117     14119     14121     14118     14117     14119     14131
     14119     14131     14134     14135     14119     14131     14134     14136
     14119     14131     14134     14137     14120     14119     14131     14132
     14120     14119     14131     14133     14120     14119     14131     14134
     14121     14119     14131     14132     14121     14119     14131     14133
     14121     14119     14131     14134     14122     14125     14126     14127
     14122     14125     14126     14128     14123     14122     14125     14126
     14124     14122     14125     14126     14125     14126     14128     14129
     14125     14126     14128     14130     14125     14126     14128     14178
     14126     14128     14178     14179     14126     14128     14178     14180
     14126     14128     14178     14181     14127     14126     14128     14129
     14127     14126     14128     14130     14127     14126     14128     14178
     14128     14178     14181     14182     14128     14178     14181     14183
     14128     14178     14181     14184     14129     14128     14178     14179
     14129     14128     14178     14180     14129     14128     14178     14181
     14130     14128     14178     14179     14130     14128     14178     14180
     14130     14128     14178     14181     14131     14134     14137     14138
     14131     14134     14137     14139     14131     14134     14137     14140
     14132     14131     14134     14135     14132     14131     14134     14136
     14132     14131     14134     14137     14133     14131     14134     14135
     14133     14131     14134     14136     14133     14131     14134     14137
     14134     14137     14140     14141     14134     14137     14140     14142
     14134     14137     14140     14143     14135     14134     14137     14138
     14135     14134     14137     14139     14135     14134     14137     14140
     14136     14134     14137     14138     14136     14134     14137     14139
     14136     14134     14137     14140     14137     14140     14143     14144
     14137     14140     14143     14145     14137     14140     14143     14146
     14138     14137     14140     14141     14138     14137     14140     14142
     14138     14137     14140     14143     14139     14137     14140     14141
     14139     14137     14140     14142     14139     14137     14140     14143
     14140     14143     14146     14147     14140     14143     14146     14148
     14140     14143     14146     14149     14141     14140     14143     14144
     14141     14140     14143     14145     14141     14140     14143     14146
     14142     14140     14143     14144     14142     14140     14143     14145
     14142     14140     14143     14146     14143     14146     14149     14150
     14143     14146     14149     14151     14144     14143     14146     14147
     14144     14143     14146     14148     14144     14143     14146     14149
     14145     14143     14146     14147     14145     14143     14146     14148
     14145     14143     14146     14149     14146     14149     14151     14152
     14146     14149     14151     14153     14147     14146     14149     14150
     14147     14146     14149     14151     14148     14146     14149     14150
     14148     14146     14149     14151     14149     14151     14153     14154
     14149     14151     14153     14155     14149     14151     14153     14156
     14150     14149     14151     14152     14150     14149     14151     14153
     14151     14153     14156     14157     14151     14153     14156     14158
     14151     14153     14156     14159     14152     14151     14153     14154
     14152     14151     14153     14155     14152     14151     14153     14156
     14153     14156     14159     14160     14153     14156     14159     14161
     14153     14156     14159     14162     14154     14153     14156     14157
     14154     14153     14156     14158     14154     14153     14156     14159
     14155     14153     14156     14157     14155     14153     14156     14158
     14155     14153     14156     14159     14156     14159     14162     14163
     14156     14159     14162     14164     14156     14159     14162     14165
     14157     14156     14159     14160     14157     14156     14159     14161
     14157     14156     14159     14162     14158     14156     14159     14160
     14158     14156     14159     14161     14158     14156     14159     14162
     14159     14162     14165     14166     14159     14162     14165     14167
     14159     14162     14165     14168     14160     14159     14162     14163
     14160     14159     14162     14164     14160     14159     14162     14165
     14161     14159     14162     14163     14161     14159     14162     14164
     14161     14159     14162     14165     14162     14165     14168     14169
     14162     14165     14168     14170     14162     14165     14168     14171
     14163     14162     14165     14166     14163     14162     14165     14167
     14163     14162     14165     14168     14164     14162     14165     14166
     14164     14162     14165     14167     14164     14162     14165     14168
     14165     14168     14171     14172     14165     14168     14171     14173
     14165     14168     14171     14174     14166     14165     14168     14169
     14166     14165     14168     14170     14166     14165     14168     14171
     14167     14165     14168     14169     14167     14165     14168     14170
     14167     14165     14168     14171     14168     14171     14174     14175
     14168     14171     14174     14176     14168     14171     14174     14177
     14169     14168     14171     14172     14169     14168     14171     14173
     14169     14168     14171     14174     14170     14168     14171     14172
     14170     14168     14171     14173     14170     14168     14171     14174
     14172     14171     14174     14175     14172     14171     14174     14176
     14172     14171     14174     14177     14173     14171     14174     14175
     14173     14171     14174     14176     14173     14171     14174     14177
     14178     14181     14184     14185     14178     14181     14184     14186
     14178     14181     14184     14187     14179     14178     14181     14182
     14179     14178     14181     14183     14179     14178     14181     14184
     14180     14178     14181     14182     14180     14178     14181     14183
     14180     14178     14181     14184     14181     14184     14187     14188
     14181     14184     14187     14189     14181     14184     14187     14190
     14182     14181     14184     14185     14182     14181     14184     14186
     14182     14181     14184     14187     14183     14181     14184     14185
     14183     14181     14184     14186     14183     14181     14184     14187
     14184     14187     14190     14191     14184     14187     14190     14192
     14184     14187     14190     14193     14185     14184     14187     14188
     14185     14184     14187     14189     14185     14184     14187     14190
     14186     14184     14187     14188     14186     14184     14187     14189
     14186     14184     14187     14190     14187     14190     14193     14194
     14187     14190     14193     14195     14187     14190     14193     14196
     14188     14187     14190     14191     14188     14187     14190     14192
     14188     14187     14190     14193     14189     14187     14190     14191
     14189     14187     14190     14192     14189     14187     14190     14193
     14190     14193     14196     14197     14190     14193     14196     14198
     14190     14193     14196     14199     14191     14190     14193     14194
     14191     14190     14193     14195     14191     14190     14193     14196
     14192     14190     14193     14194     14192     14190     14193     14195
     14192     14190     14193     14196     14193     14196     14199     14200
     14193     14196     14199     14201     14193     14196     14199     14202
     14194     14193     14196     14197     14194     14193     14196     14198
     14194     14193     14196     14199     14195     14193     14196     14197
     14195     14193     14196     14198     14195     14193     14196     14199
     14196     14199     14202     14203     14196     14199     14202     14204
     14196     14199     14202     14205     14197     14196     14199     14200
     14197     14196     14199     14201     14197     14196     14199     14202
     14198     14196     14199     14200     14198     14196     14199     14201
     14198     14196     14199     14202     14199     14202     14205     14206
     14199     14202     14205     14207     14199     14202     14205     14208
     14200     14199     14202     14203     14200     14199     14202     14204
     14200     14199     14202     14205     14201     14199     14202     14203
     14201     14199     14202     14204     14201     14199     14202     14205
     14202     14205     14208     14209     14202     14205     14208     14210
     14202     14205     14208     14211     14203     14202     14205     14206
     14203     14202     14205     14207     14203     14202     14205     14208
     14204     14202     14205     14206     14204     14202     14205     14207
     14204     14202     14205     14208     14205     14208     14211     14212
     14205     14208     14211     14213     14205     14208     14211     14214
     14206     14205     14208     14209     14206     14205     14208     14210
     14206     14205     14208     14211     14207     14205     14208     14209
     14207     14205     14208     14210     14207     14205     14208     14211
     14208     14211     14214     14215     14208     14211     14214     14216
     14208     14211     14214     14217     14209     14208     14211     14212
     14209     14208     14211     14213     14209     14208     14211     14214
     14210     14208     14211     14212     14210     14208     14211     14213
     14210     14208     14211     14214     14211     14214     14217     14218
     14211     14214     14217     14219     14211     14214     14217     14220
     14212     14211     14214     14215     14212     14211     14214     14216
     14212     14211     14214     14217     14213     14211     14214     14215
     14213     14211     14214     14216     14213     14211     14214     14217
     14215     14214     14217     14218     14215     14214     14217     14219
     14215     14214     14217     14220     14216     14214     14217     14218
     14216     14214     14217     14219     14216     14214     14217     14220
      2596      2600      2603      2604      2596      2600      2603      2605
      2596      2600      2603      2610      2597      2596      2600      2601
      2597      2596      2600      2602      2597      2596      2600      2603
      2598      2596      2600      2601      2598      2596      2600      2602
      2598      2596      2600      2603      2599      2596      2600      2601
      2599      2596      2600      2602      2599      2596      2600      2603
      2600      2603      2610      2606      2601      2600      2603      2604
      2601      2600      2603      2605      2601      2600      2603      2610
      2602      2600      2603      2604      2602      2600      2603      2605
      2602      2600      2603      2610      2603      2610      2606      2607
      2603      2610      2606      2608      2603      2610      2606      2609
      2604      2603      2610      2606      2605      2603      2610      2606
      2606      2609      2611      2612      2606      2609      2611      2613
      2606      2609      2611      2614      2607      2606      2609      2611
      2608      2606      2609      2611      2609      2611      2614      2615
      2609      2611      2614      2616      2609      2611      2614      2622
      2610      2606      2609      2611      2611      2614      2616      2617
      2611      2614      2622      2623      2611      2614      2622      2624
      2611      2614      2622      2625      2612      2611      2614      2615
      2612      2611      2614      2616      2612      2611      2614      2622
      2613      2611      2614      2615      2613      2611      2614      2616
      2613      2611      2614      2622      2614      2616      2617      2618
      2614      2616      2617      2619      2614      2622      2625      2626
      2615      2614      2616      2617      2615      2614      2622      2623
      2615      2614      2622      2624      2615      2614      2622      2625
      2616      2614      2622      2623      2616      2614      2622      2624
      2616      2614      2622      2625      2616      2617      2619      2620
      2616      2617      2619      2621      2616      2617      2619      2631
      2617      2616      2614      2622      2617      2619      2631      2632
      2617      2619      2631      2633      2617      2619      2631      2634
      2618      2617      2619      2620      2618      2617      2619      2621
      2618      2617      2619      2631      2619      2631      2634      2635
      2619      2631      2634      2636      2619      2631      2634      2637
      2620      2619      2631      2632      2620      2619      2631      2633
      2620      2619      2631      2634      2621      2619      2631      2632
      2621      2619      2631      2633      2621      2619      2631      2634
      2622      2625      2626      2627      2622      2625      2626      2628
      2623      2622      2625      2626      2624      2622      2625      2626
      2625      2626      2628      2629      2625      2626      2628      2630
      2625      2626      2628      2678      2626      2628      2678      2679
      2626      2628      2678      2680      2626      2628      2678      2681
      2627      2626      2628      2629      2627      2626      2628      2630
      2627      2626      2628      2678      2628      2678      2681      2682
      2628      2678      2681      2683      2628      2678      2681      2684
      2629      2628      2678      2679      2629      2628      2678      2680
      2629      2628      2678      2681      2630      2628      2678      2679
      2630      2628      2678      2680      2630      2628      2678      2681
      2631      2634      2637      2638      2631      2634      2637      2639
      2631      2634      2637      2640      2632      2631      2634      2635
      2632      2631      2634      2636      2632      2631      2634      2637
      2633      2631      2634      2635      2633      2631      2634      2636
      2633      2631      2634      2637      2634      2637      2640      2641
      2634      2637      2640      2642      2634      2637      2640      2643
      2635      2634      2637      2638      2635      2634      2637      2639
      2635      2634      2637      2640      2636      2634      2637      2638
      2636      2634      2637      2639      2636      2634      2637      2640
      2637      2640      2643      2644      2637      2640      2643      2645
      2637      2640      2643      2646      2638      2637      2640      2641
      2638      2637      2640      2642      2638      2637      2640      2643
      2639      2637      2640      2641      2639      2637      2640      2642
      2639      2637      2640      2643      2640      2643      2646      2647
      2640      2643      2646      2648      2640      2643      2646      2649
      2641      2640      2643      2644      2641      2640      2643      2645
      2641      2640      2643      2646      2642      2640      2643      2644
      2642      2640      2643      2645      2642      2640      2643      2646
      2643      2646      2649      2650      2643      2646      2649      2651
      2644      2643      2646      2647      2644      2643      2646      2648
      2644      2643      2646      2649      2645      2643      2646      2647
      2645      2643      2646      2648      2645      2643      2646      2649
      2646      2649      2651      2652      2646      2649      2651      2653
      2647      2646      2649      2650      2647      2646      2649      2651
      2648      2646      2649      2650      2648      2646      2649      2651
      2649      2651      2653      2654      2649      2651      2653      2655
      2649      2651      2653      2656      2650      2649      2651      2652
      2650      2649      2651      2653      2651      2653      2656      2657
      2651      2653      2656      2658      2651      2653      2656      2659
      2652      2651      2653      2654      2652      2651      2653      2655
      2652      2651      2653      2656      2653      2656      2659      2660
      2653      2656      2659      2661      2653      2656      2659      2662
      2654      2653      2656      2657      2654      2653      2656      2658
      2654      2653      2656      2659      2655      2653      2656      2657
      2655      2653      2656      2658      2655      2653      2656      2659
      2656      2659      2662      2663      2656      2659      2662      2664
      2656      2659      2662      2665      2657      2656      2659      2660
      2657      2656      2659      2661      2657      2656      2659      2662
      2658      2656      2659      2660      2658      2656      2659      2661
      2658      2656      2659      2662      2659      2662      2665      2666
      2659      2662      2665      2667      2659      2662      2665      2668
      2660      2659      2662      2663      2660      2659      2662      2664
      2660      2659      2662      2665      2661      2659      2662      2663
      2661      2659      2662      2664      2661      2659      2662      2665
      2662      2665      2668      2669      2662      2665      2668      2670
      2662      2665      2668      2671      2663      2662      2665      2666
      2663      2662      2665      2667      2663      2662      2665      2668
      2664      2662      2665      2666      2664      2662      2665      2667
      2664      2662      2665      2668      2665      2668      2671      2672
      2665      2668      2671      2673      2665      2668      2671      2674
      2666      2665      2668      2669      2666      2665      2668      2670
      2666      2665      2668      2671      2667      2665      2668      2669
      2667      2665      2668      2670      2667      2665      2668      2671
      2668      2671      2674      2675      2668      2671      2674      2676
      2668      2671      2674      2677      2669      2668      2671      2672
      2669      2668      2671      2673      2669      2668      2671      2674
      2670      2668      2671      2672      2670      2668      2671      2673
      2670      2668      2671      2674      2672      2671      2674      2675
      2672      2671      2674      2676      2672      2671      2674      2677
      2673      2671      2674      2675      2673      2671      2674      2676
      2673      2671      2674      2677      2678      2681      2684      2685
      2678      2681      2684      2686      2678      2681      2684      2687
      2679      2678      2681      2682      2679      2678      2681      2683
      2679      2678      2681      2684      2680      2678      2681      2682
      2680      2678      2681      2683      2680      2678      2681      2684
      2681      2684      2687      2688      2681      2684      2687      2689
      2681      2684      2687      2690      2682      2681      2684      2685
      2682      2681      2684      2686      2682      2681      2684      2687
      2683      2681      2684      2685      2683      2681      2684      2686
      2683      2681      2684      2687      2684      2687      2690      2691
      2684      2687      2690      2692      2684      2687      2690      2693
      2685      2684      2687      2688      2685      2684      2687      2689
      2685      2684      2687      2690      2686      2684      2687      2688
      2686      2684      2687      2689      2686      2684      2687      2690
      2687      2690      2693      2694      2687      2690      2693      2695
      2687      2690      2693      2696      2688      2687      2690      2691
      2688      2687      2690      2692      2688      2687      2690      2693
      2689      2687      2690      2691      2689      2687      2690      2692
      2689      2687      2690      2693      2690      2693      2696      2697
      2690      2693      2696      2698      2690      2693      2696      2699
      2691      2690      2693      2694      2691      2690      2693      2695
      2691      2690      2693      2696      2692      2690      2693      2694
      2692      2690      2693      2695      2692      2690      2693      2696
      2693      2696      2699      2700      2693      2696      2699      2701
      2693      2696      2699      2702      2694      2693      2696      2697
      2694      2693      2696      2698      2694      2693      2696      2699
      2695      2693      2696      2697      2695      2693      2696      2698
      2695      2693      2696      2699      2696      2699      2702      2703
      2696      2699      2702      2704      2696      2699      2702      2705
      2697      2696      2699      2700      2697      2696      2699      2701
      2697      2696      2699      2702      2698      2696      2699      2700
      2698      2696      2699      2701      2698      2696      2699      2702
      2699      2702      2705      2706      2699      2702      2705      2707
      2699      2702      2705      2708      2700      2699      2702      2703
      2700      2699      2702      2704      2700      2699      2702      2705
      2701      2699      2702      2703      2701      2699      2702      2704
      2701      2699      2702      2705      2702      2705      2708      2709
      2702      2705      2708      2710      2702      2705      2708      2711
      2703      2702      2705      2706      2703      2702      2705      2707
      2703      2702      2705      2708      2704      2702      2705      2706
      2704      2702      2705      2707      2704      2702      2705      2708
      2705      2708      2711      2712      2705      2708      2711      2713
      2705      2708      2711      2714      2706      2705      2708      2709
      2706      2705      2708      2710      2706      2705      2708      2711
      2707      2705      2708      2709      2707      2705      2708      2710
      2707      2705      2708      2711      2708      2711      2714      2715
      2708      2711      2714      2716      2708      2711      2714      2717
      2709      2708      2711      2712      2709      2708      2711      2713
      2709      2708      2711      2714      2710      2708      2711      2712
      2710      2708      2711      2713      2710      2708      2711      2714
      2711      2714      2717      2718      2711      2714      2717      2719
      2711      2714      2717      2720      2712      2711      2714      2715
      2712      2711      2714      2716      2712      2711      2714      2717
      2713      2711      2714      2715      2713      2711      2714      2716
      2713      2711      2714      2717      2715      2714      2717      2718
      2715      2714      2717      2719      2715      2714      2717      2720
      2716      2714      2717      2718      2716      2714      2717      2719
      2716      2714      2717      2720     14221     14222     14237     14238
     14221     14222     14237     14239     14221     14222     14237     14243
     14222     14221     14225     14226     14222     14221     14225     14227
     14222     14221     14225     14228     14222     14221     14229     14230
     14222     14221     14229     14231     14222     14221     14229     14232
     14222     14221     14233     14234     14222     14221     14233     14235
     14222     14221     14233     14236     14222     14237     14243     14240
     14223     14222     14221     14225     14223     14222     14221     14229
     14223     14222     14221     14233     14223     14222     14237     14238
     14223     14222     14237     14239     14223     14222     14237     14243
     14224     14222     14221     14225     14224     14222     14221     14229
     14224     14222     14221     14233     14224     14222     14237     14238
     14224     14222     14237     14239     14224     14222     14237     14243
     14225     14221     14222     14237     14225     14221     14229     14230
     14225     14221     14229     14231     14225     14221     14229     14232
     14225     14221     14233     14234     14225     14221     14233     14235
     14225     14221     14233     14236     14226     14225     14221     14229
     14226     14225     14221     14233     14227     14225     14221     14229
     14227     14225     14221     14233     14228     14225     14221     14229
     14228     14225     14221     14233     14229     14221     14222     14237
     14229     14221     14233     14234     14229     14221     14233     14235
     14229     14221     14233     14236     14230     14229     14221     14233
     14231     14229     14221     14233     14232     14229     14221     14233
     14233     14221     14222     14237     14237     14243     14240     14241
     14237     14243     14240     14242     14237     14243     14240     14244
     14238     14237     14243     14240     14239     14237     14243     14240
     14240     14244     14245     14246     14240     14244     14245     14247
     14240     14244     14245     14248     14241     14240     14244     14245
     14242     14240     14244     14245     14243     14240     14244     14245
     14244     14245     14248     14249     14244     14245     14248     14250
     14244     14245     14248     14256     14245     14248     14250     14251
     14245     14248     14256     14257     14245     14248     14256     14258
     14245     14248     14256     14259     14246     14245     14248     14249
     14246     14245     14248     14250     14246     14245     14248     14256
     14247     14245     14248     14249     14247     14245     14248     14250
     14247     14245     14248     14256     14248     14250     14251     14252
     14248     14250     14251     14253     14248     14256     14259     14260
     14249     14248     14250     14251     14249     14248     14256     14257
     14249     14248     14256     14258     14249     14248     14256     14259
     14250     14248     14256     14257     14250     14248     14256     14258
     14250     14248     14256     14259     14250     14251     14253     14254
     14250     14251     14253     14255     14250     14251     14253     14265
     14251     14250     14248     14256     14251     14253     14265     14266
     14251     14253     14265     14267     14251     14253     14265     14268
     14252     14251     14253     14254     14252     14251     14253     14255
     14252     14251     14253     14265     14253     14265     14268     14269
     14253     14265     14268     14270     14253     14265     14268     14271
     14254     14253     14265     14266     14254     14253     14265     14267
     14254     14253     14265     14268     14255     14253     14265     14266
     14255     14253     14265     14267     14255     14253     14265     14268
     14256     14259     14260     14261     14256     14259     14260     14262
     14257     14256     14259     14260     14258     14256     14259     14260
     14259     14260     14262     14263     14259     14260     14262     14264
     14259     14260     14262     14312     14260     14262     14312     14313
     14260     14262     14312     14314     14260     14262     14312     14315
     14261     14260     14262     14263     14261     14260     14262     14264
     14261     14260     14262     14312     14262     14312     14315     14316
     14262     14312     14315     14317     14262     14312     14315     14318
     14263     14262     14312     14313     14263     14262     14312     14314
     14263     14262     14312     14315     14264     14262     14312     14313
     14264     14262     14312     14314     14264     14262     14312     14315
     14265     14268     14271     14272     14265     14268     14271     14273
     14265     14268     14271     14274     14266     14265     14268     14269
     14266     14265     14268     14270     14266     14265     14268     14271
     14267     14265     14268     14269     14267     14265     14268     14270
     14267     14265     14268     14271     14268     14271     14274     14275
     14268     14271     14274     14276     14268     14271     14274     14277
     14269     14268     14271     14272     14269     14268     14271     14273
     14269     14268     14271     14274     14270     14268     14271     14272
     14270     14268     14271     14273     14270     14268     14271     14274
     14271     14274     14277     14278     14271     14274     14277     14279
     14271     14274     14277     14280     14272     14271     14274     14275
     14272     14271     14274     14276     14272     14271     14274     14277
     14273     14271     14274     14275     14273     14271     14274     14276
     14273     14271     14274     14277     14274     14277     14280     14281
     14274     14277     14280     14282     14274     14277     14280     14283
     14275     14274     14277     14278     14275     14274     14277     14279
     14275     14274     14277     14280     14276     14274     14277     14278
     14276     14274     14277     14279     14276     14274     14277     14280
     14277     14280     14283     14284     14277     14280     14283     14285
     14278     14277     14280     14281     14278     14277     14280     14282
     14278     14277     14280     14283     14279     14277     14280     14281
     14279     14277     14280     14282     14279     14277     14280     14283
     14280     14283     14285     14286     14280     14283     14285     14287
     14281     14280     14283     14284     14281     14280     14283     14285
     14282     14280     14283     14284     14282     14280     14283     14285
     14283     14285     14287     14288     14283     14285     14287     14289
     14283     14285     14287     14290     14284     14283     14285     14286
     14284     14283     14285     14287     14285     14287     14290     14291
     14285     14287     14290     14292     14285     14287     14290     14293
     14286     14285     14287     14288     14286     14285     14287     14289
     14286     14285     14287     14290     14287     14290     14293     14294
     14287     14290     14293     14295     14287     14290     14293     14296
     14288     14287     14290     14291     14288     14287     14290     14292
     14288     14287     14290     14293     14289     14287     14290     14291
     14289     14287     14290     14292     14289     14287     14290     14293
     14290     14293     14296     14297     14290     14293     14296     14298
     14290     14293     14296     14299     14291     14290     14293     14294
     14291     14290     14293     14295     14291     14290     14293     14296
     14292     14290     14293     14294     14292     14290     14293     14295
     14292     14290     14293     14296     14293     14296     14299     14300
     14293     14296     14299     14301     14293     14296     14299     14302
     14294     14293     14296     14297     14294     14293     14296     14298
     14294     14293     14296     14299     14295     14293     14296     14297
     14295     14293     14296     14298     14295     14293     14296     14299
     14296     14299     14302     14303     14296     14299     14302     14304
     14296     14299     14302     14305     14297     14296     14299     14300
     14297     14296     14299     14301     14297     14296     14299     14302
     14298     14296     14299     14300     14298     14296     14299     14301
     14298     14296     14299     14302     14299     14302     14305     14306
     14299     14302     14305     14307     14299     14302     14305     14308
     14300     14299     14302     14303     14300     14299     14302     14304
     14300     14299     14302     14305     14301     14299     14302     14303
     14301     14299     14302     14304     14301     14299     14302     14305
     14302     14305     14308     14309     14302     14305     14308     14310
     14302     14305     14308     14311     14303     14302     14305     14306
     14303     14302     14305     14307     14303     14302     14305     14308
     14304     14302     14305     14306     14304     14302     14305     14307
     14304     14302     14305     14308     14306     14305     14308     14309
     14306     14305     14308     14310     14306     14305     14308     14311
     14307     14305     14308     14309     14307     14305     14308     14310
     14307     14305     14308     14311     14312     14315     14318     14319
     14312     14315     14318     14320     14312     14315     14318     14321
     14313     14312     14315     14316     14313     14312     14315     14317
     14313     14312     14315     14318     14314     14312     14315     14316
     14314     14312     14315     14317     14314     14312     14315     14318
     14315     14318     14321     14322     14315     14318     14321     14323
     14315     14318     14321     14324     14316     14315     14318     14319
     14316     14315     14318     14320     14316     14315     14318     14321
     14317     14315     14318     14319     14317     14315     14318     14320
     14317     14315     14318     14321     14318     14321     14324     14325
     14318     14321     14324     14326     14318     14321     14324     14327
     14319     14318     14321     14322     14319     14318     14321     14323
     14319     14318     14321     14324     14320     14318     14321     14322
     14320     14318     14321     14323     14320     14318     14321     14324
     14321     14324     14327     14328     14321     14324     14327     14329
     14321     14324     14327     14330     14322     14321     14324     14325
     14322     14321     14324     14326     14322     14321     14324     14327
     14323     14321     14324     14325     14323     14321     14324     14326
     14323     14321     14324     14327     14324     14327     14330     14331
     14324     14327     14330     14332     14324     14327     14330     14333
     14325     14324     14327     14328     14325     14324     14327     14329
     14325     14324     14327     14330     14326     14324     14327     14328
     14326     14324     14327     14329     14326     14324     14327     14330
     14327     14330     14333     14334     14327     14330     14333     14335
     14327     14330     14333     14336     14328     14327     14330     14331
     14328     14327     14330     14332     14328     14327     14330     14333
     14329     14327     14330     14331     14329     14327     14330     14332
     14329     14327     14330     14333     14330     14333     14336     14337
     14330     14333     14336     14338     14330     14333     14336     14339
     14331     14330     14333     14334     14331     14330     14333     14335
     14331     14330     14333     14336     14332     14330     14333     14334
     14332     14330     14333     14335     14332     14330     14333     14336
     14333     14336     14339     14340     14333     14336     14339     14341
     14333     14336     14339     14342     14334     14333     14336     14337
     14334     14333     14336     14338     14334     14333     14336     14339
     14335     14333     14336     14337     14335     14333     14336     14338
     14335     14333     14336     14339     14336     14339     14342     14343
     14336     14339     14342     14344     14336     14339     14342     14345
     14337     14336     14339     14340     14337     14336     14339     14341
     14337     14336     14339     14342     14338     14336     14339     14340
     14338     14336     14339     14341     14338     14336     14339     14342
     14339     14342     14345     14346     14339     14342     14345     14347
     14339     14342     14345     14348     14340     14339     14342     14343
     14340     14339     14342     14344     14340     14339     14342     14345
     14341     14339     14342     14343     14341     14339     14342     14344
     14341     14339     14342     14345     14342     14345     14348     14349
     14342     14345     14348     14350     14342     14345     14348     14351
     14343     14342     14345     14346     14343     14342     14345     14347
     14343     14342     14345     14348     14344     14342     14345     14346
     14344     14342     14345     14347     14344     14342     14345     14348
     14345     14348     14351     14352     14345     14348     14351     14353
     14345     14348     14351     14354     14346     14345     14348     14349
     14346     14345     14348     14350     14346     14345     14348     14351
     14347     14345     14348     14349     14347     14345     14348     14350
     14347     14345     14348     14351     14349     14348     14351     14352
     14349     14348     14351     14353     14349     14348     14351     14354
     14350     14348     14351     14352     14350     14348     14351     14353
     14350     14348     14351     14354     23088     23101     23104     23105
     23088     23101     23104     23106     23088     23101     23104     23111
     23089     23088     23093     23094     23089     23088     23093     23095
     23089     23088     23093     23096     23089     23088     23097     23098
     23089     23088     23097     23099     23089     23088     23097     23100
     23089     23088     23101     23102     23089     23088     23101     23103
     23089     23088     23101     23104     23090     23089     23088     23093
     23090     23089     23088     23097     23090     23089     23088     23101
     23091     23089     23088     23093     23091     23089     23088     23097
     23091     23089     23088     23101     23092     23089     23088     23093
     23092     23089     23088     23097     23092     23089     23088     23101
     23093     23088     23097     23098     23093     23088     23097     23099
     23093     23088     23097     23100     23093     23088     23101     23102
     23093     23088     23101     23103     23093     23088     23101     23104
     23094     23093     23088     23097     23094     23093     23088     23101
     23095     23093     23088     23097     23095     23093     23088     23101
     23096     23093     23088     23097     23096     23093     23088     23101
     23097     23088     23101     23102     23097     23088     23101     23103
     23097     23088     23101     23104     23098     23097     23088     23101
     23099     23097     23088     23101     23100     23097     23088     23101
     23101     23104     23111     23107     23102     23101     23104     23105
     23102     23101     23104     23106     23102     23101     23104     23111
     23103     23101     23104     23105     23103     23101     23104     23106
     23103     23101     23104     23111     23104     23111     23107     23108
     23104     23111     23107     23109     23104     23111     23107     23110
     23105     23104     23111     23107     23106     23104     23111     23107
     23107     23110     23112     23113     23107     23110     23112     23114
     23107     23110     23112     23117     23108     23107     23110     23112
     23109     23107     23110     23112     23110     23112     23117     23115
     23110     23112     23117     23118     23110     23112     23117     23119
     23111     23107     23110     23112     23112     23117     23115     23116
     23112     23117     23115     23167     23112     23117     23119     23120
     23112     23117     23119     23121     23112     23117     23119     23123
     23113     23112     23117     23115     23113     23112     23117     23118
     23113     23112     23117     23119     23114     23112     23117     23115
     23114     23112     23117     23118     23114     23112     23117     23119
     23115     23117     23119     23120     23115     23117     23119     23121
     23115     23117     23119     23123     23115     23167     23169     23170
     23115     23167     23169     23171     23115     23167     23169     23172
     23116     23115     23117     23118     23116     23115     23117     23119
     23116     23115     23167     23168     23116     23115     23167     23169
     23117     23115     23167     23168     23117     23115     23167     23169
     23117     23119     23121     23122     23117     23119     23123     23124
     23117     23119     23123     23125     23118     23117     23115     23167
     23118     23117     23119     23120     23118     23117     23119     23121
     23118     23117     23119     23123     23119     23117     23115     23167
     23119     23123     23125     23126     23119     23123     23125     23127
     23120     23119     23121     23122     23120     23119     23123     23124
     23120     23119     23123     23125     23121     23119     23123     23124
     23121     23119     23123     23125     23122     23121     23119     23123
     23123     23125     23127     23128     23123     23125     23127     23129
     23123     23125     23127     23130     23124     23123     23125     23126
     23124     23123     23125     23127     23125     23127     23130     23131
     23125     23127     23130     23132     23125     23127     23130     23133
     23126     23125     23127     23128     23126     23125     23127     23129
     23126     23125     23127     23130     23127     23130     23133     23134
     23127     23130     23133     23135     23127     23130     23133     23136
     23128     23127     23130     23131     23128     23127     23130     23132
     23128     23127     23130     23133     23129     23127     23130     23131
     23129     23127     23130     23132     23129     23127     23130     23133
     23130     23133     23136     23137     23130     23133     23136     23138
     23130     23133     23136     23139     23131     23130     23133     23134
     23131     23130     23133     23135     23131     23130     23133     23136
     23132     23130     23133     23134     23132     23130     23133     23135
     23132     23130     23133     23136     23133     23136     23139     23140
     23133     23136     23139     23141     23133     23136     23139     23142
     23134     23133     23136     23137     23134     23133     23136     23138
     23134     23133     23136     23139     23135     23133     23136     23137
     23135     23133     23136     23138     23135     23133     23136     23139
     23136     23139     23142     23143     23136     23139     23142     23144
     23136     23139     23142     23145     23137     23136     23139     23140
     23137     23136     23139     23141     23137     23136     23139     23142
     23138     23136     23139     23140     23138     23136     23139     23141
     23138     23136     23139     23142     23139     23142     23145     23146
     23139     23142     23145     23147     23139     23142     23145     23148
     23140     23139     23142     23143     23140     23139     23142     23144
     23140     23139     23142     23145     23141     23139     23142     23143
     23141     23139     23142     23144     23141     23139     23142     23145
     23142     23145     23148     23149     23142     23145     23148     23150
     23142     23145     23148     23151     23143     23142     23145     23146
     23143     23142     23145     23147     23143     23142     23145     23148
     23144     23142     23145     23146     23144     23142     23145     23147
     23144     23142     23145     23148     23145     23148     23151     23152
     23145     23148     23151     23153     23145     23148     23151     23154
     23146     23145     23148     23149     23146     23145     23148     23150
     23146     23145     23148     23151     23147     23145     23148     23149
     23147     23145     23148     23150     23147     23145     23148     23151
     23148     23151     23154     23155     23148     23151     23154     23156
     23148     23151     23154     23157     23149     23148     23151     23152
     23149     23148     23151     23153     23149     23148     23151     23154
     23150     23148     23151     23152     23150     23148     23151     23153
     23150     23148     23151     23154     23151     23154     23157     23158
     23151     23154     23157     23159     23151     23154     23157     23160
     23152     23151     23154     23155     23152     23151     23154     23156
     23152     23151     23154     23157     23153     23151     23154     23155
     23153     23151     23154     23156     23153     23151     23154     23157
     23154     23157     23160     23161     23154     23157     23160     23162
     23154     23157     23160     23163     23155     23154     23157     23158
     23155     23154     23157     23159     23155     23154     23157     23160
     23156     23154     23157     23158     23156     23154     23157     23159
     23156     23154     23157     23160     23157     23160     23163     23164
     23157     23160     23163     23165     23157     23160     23163     23166
     23158     23157     23160     23161     23158     23157     23160     23162
     23158     23157     23160     23163     23159     23157     23160     23161
     23159     23157     23160     23162     23159     23157     23160     23163
     23161     23160     23163     23164     23161     23160     23163     23165
     23161     23160     23163     23166     23162     23160     23163     23164
     23162     23160     23163     23165     23162     23160     23163     23166
     23167     23169     23172     23173     23167     23169     23172     23174
     23167     23169     23172     23175     23168     23167     23169     23170
     23168     23167     23169     23171     23168     23167     23169     23172
     23169     23172     23175     23176     23169     23172     23175     23177
     23169     23172     23175     23178     23170     23169     23172     23173
     23170     23169     23172     23174     23170     23169     23172     23175
     23171     23169     23172     23173     23171     23169     23172     23174
     23171     23169     23172     23175     23172     23175     23178     23179
     23172     23175     23178     23180     23172     23175     23178     23181
     23173     23172     23175     23176     23173     23172     23175     23177
     23173     23172     23175     23178     23174     23172     23175     23176
     23174     23172     23175     23177     23174     23172     23175     23178
     23175     23178     23181     23182     23175     23178     23181     23183
     23175     23178     23181     23184     23176     23175     23178     23179
     23176     23175     23178     23180     23176     23175     23178     23181
     23177     23175     23178     23179     23177     23175     23178     23180
     23177     23175     23178     23181     23178     23181     23184     23185
     23178     23181     23184     23186     23178     23181     23184     23187
     23179     23178     23181     23182     23179     23178     23181     23183
     23179     23178     23181     23184     23180     23178     23181     23182
     23180     23178     23181     23183     23180     23178     23181     23184
     23181     23184     23187     23188     23181     23184     23187     23189
     23181     23184     23187     23190     23182     23181     23184     23185
     23182     23181     23184     23186     23182     23181     23184     23187
     23183     23181     23184     23185     23183     23181     23184     23186
     23183     23181     23184     23187     23184     23187     23190     23191
     23184     23187     23190     23192     23184     23187     23190     23193
     23185     23184     23187     23188     23185     23184     23187     23189
     23185     23184     23187     23190     23186     23184     23187     23188
     23186     23184     23187     23189     23186     23184     23187     23190
     23187     23190     23193     23194     23187     23190     23193     23195
     23187     23190     23193     23196     23188     23187     23190     23191
     23188     23187     23190     23192     23188     23187     23190     23193
     23189     23187     23190     23191     23189     23187     23190     23192
     23189     23187     23190     23193     23190     23193     23196     23197
     23190     23193     23196     23198     23190     23193     23196     23199
     23191     23190     23193     23194     23191     23190     23193     23195
     23191     23190     23193     23196     23192     23190     23193     23194
     23192     23190     23193     23195     23192     23190     23193     23196
     23193     23196     23199     23200     23193     23196     23199     23201
     23193     23196     23199     23202     23194     23193     23196     23197
     23194     23193     23196     23198     23194     23193     23196     23199
     23195     23193     23196     23197     23195     23193     23196     23198
     23195     23193     23196     23199     23196     23199     23202     23203
     23196     23199     23202     23204     23196     23199     23202     23205
     23197     23196     23199     23200     23197     23196     23199     23201
     23197     23196     23199     23202     23198     23196     23199     23200
     23198     23196     23199     23201     23198     23196     23199     23202
     23199     23202     23205     23206     23199     23202     23205     23207
     23199     23202     23205     23208     23200     23199     23202     23203
     23200     23199     23202     23204     23200     23199     23202     23205
     23201     23199     23202     23203     23201     23199     23202     23204
     23201     23199     23202     23205     23202     23205     23208     23209
     23202     23205     23208     23210     23202     23205     23208     23211
     23203     23202     23205     23206     23203     23202     23205     23207
     23203     23202     23205     23208     23204     23202     23205     23206
     23204     23202     23205     23207     23204     23202     23205     23208
     23205     23208     23211     23212     23205     23208     23211     23213
     23205     23208     23211     23214     23206     23205     23208     23209
     23206     23205     23208     23210     23206     23205     23208     23211
     23207     23205     23208     23209     23207     23205     23208     23210
     23207     23205     23208     23211     23209     23208     23211     23212
     23209     23208     23211     23213     23209     23208     23211     23214
     23210     23208     23211     23212     23210     23208     23211     23213
     23210     23208     23211     23214      2721      2725      2728      2729
      2721      2725      2728      2730      2721      2725      2728      2735
      2722      2721      2725      2726      2722      2721      2725      2727
      2722      2721      2725      2728      2723      2721      2725      2726
      2723      2721      2725      2727      2723      2721      2725      2728
      2724      2721      2725      2726      2724      2721      2725      2727
      2724      2721      2725      2728      2725      2728      2735      2731
      2726      2725      2728      2729      2726      2725      2728      2730
      2726      2725      2728      2735      2727      2725      2728      2729
      2727      2725      2728      2730      2727      2725      2728      2735
      2728      2735      2731      2732      2728      2735      2731      2733
      2728      2735      2731      2734      2729      2728      2735      2731
      2730      2728      2735      2731      2731      2734      2736      2737
      2731      2734      2736      2738      2731      2734      2736      2739
      2732      2731      2734      2736      2733      2731      2734      2736
      2734      2736      2739      2740      2734      2736      2739      2741
      2734      2736      2739      2747      2735      2731      2734      2736
      2736      2739      2741      2742      2736      2739      2747      2748
      2736      2739      2747      2749      2736      2739      2747      2750
      2737      2736      2739      2740      2737      2736      2739      2741
      2737      2736      2739      2747      2738      2736      2739      2740
      2738      2736      2739      2741      2738      2736      2739      2747
      2739      2741      2742      2743      2739      2741      2742      2744
      2739      2747      2750      2751      2740      2739      2741      2742
      2740      2739      2747      2748      2740      2739      2747      2749
      2740      2739      2747      2750      2741      2739      2747      2748
      2741      2739      2747      2749      2741      2739      2747      2750
      2741      2742      2744      2745      2741      2742      2744      2746
      2741      2742      2744      2756      2742      2741      2739      2747
      2742      2744      2756      2757      2742      2744      2756      2758
      2742      2744      2756      2759      2743      2742      2744      2745
      2743      2742      2744      2746      2743      2742      2744      2756
      2744      2756      2759      2760      2744      2756      2759      2761
      2744      2756      2759      2762      2745      2744      2756      2757
      2745      2744      2756      2758      2745      2744      2756      2759
      2746      2744      2756      2757      2746      2744      2756      2758
      2746      2744      2756      2759      2747      2750      2751      2752
      2747      2750      2751      2753      2748      2747      2750      2751
      2749      2747      2750      2751      2750      2751      2753      2754
      2750      2751      2753      2755      2750      2751      2753      2803
      2751      2753      2803      2804      2751      2753      2803      2805
      2751      2753      2803      2806      2752      2751      2753      2754
      2752      2751      2753      2755      2752      2751      2753      2803
      2753      2803      2806      2807      2753      2803      2806      2808
      2753      2803      2806      2809      2754      2753      2803      2804
      2754      2753      2803      2805      2754      2753      2803      2806
      2755      2753      2803      2804      2755      2753      2803      2805
      2755      2753      2803      2806      2756      2759      2762      2763
      2756      2759      2762      2764      2756      2759      2762      2765
      2757      2756      2759      2760      2757      2756      2759      2761
      2757      2756      2759      2762      2758      2756      2759      2760
      2758      2756      2759      2761      2758      2756      2759      2762
      2759      2762      2765      2766      2759      2762      2765      2767
      2759      2762      2765      2768      2760      2759      2762      2763
      2760      2759      2762      2764      2760      2759      2762      2765
      2761      2759      2762      2763      2761      2759      2762      2764
      2761      2759      2762      2765      2762      2765      2768      2769
      2762      2765      2768      2770      2762      2765      2768      2771
      2763      2762      2765      2766      2763      2762      2765      2767
      2763      2762      2765      2768      2764      2762      2765      2766
      2764      2762      2765      2767      2764      2762      2765      2768
      2765      2768      2771      2772      2765      2768      2771      2773
      2765      2768      2771      2774      2766      2765      2768      2769
      2766      2765      2768      2770      2766      2765      2768      2771
      2767      2765      2768      2769      2767      2765      2768      2770
      2767      2765      2768      2771      2768      2771      2774      2775
      2768      2771      2774      2776      2769      2768      2771      2772
      2769      2768      2771      2773      2769      2768      2771      2774
      2770      2768      2771      2772      2770      2768      2771      2773
      2770      2768      2771      2774      2771      2774      2776      2777
      2771      2774      2776      2778      2772      2771      2774      2775
      2772      2771      2774      2776      2773      2771      2774      2775
      2773      2771      2774      2776      2774      2776      2778      2779
      2774      2776      2778      2780      2774      2776      2778      2781
      2775      2774      2776      2777      2775      2774      2776      2778
      2776      2778      2781      2782      2776      2778      2781      2783
      2776      2778      2781      2784      2777      2776      2778      2779
      2777      2776      2778      2780      2777      2776      2778      2781
      2778      2781      2784      2785      2778      2781      2784      2786
      2778      2781      2784      2787      2779      2778      2781      2782
      2779      2778      2781      2783      2779      2778      2781      2784
      2780      2778      2781      2782      2780      2778      2781      2783
      2780      2778      2781      2784      2781      2784      2787      2788
      2781      2784      2787      2789      2781      2784      2787      2790
      2782      2781      2784      2785      2782      2781      2784      2786
      2782      2781      2784      2787      2783      2781      2784      2785
      2783      2781      2784      2786      2783      2781      2784      2787
      2784      2787      2790      2791      2784      2787      2790      2792
      2784      2787      2790      2793      2785      2784      2787      2788
      2785      2784      2787      2789      2785      2784      2787      2790
      2786      2784      2787      2788      2786      2784      2787      2789
      2786      2784      2787      2790      2787      2790      2793      2794
      2787      2790      2793      2795      2787      2790      2793      2796
      2788      2787      2790      2791      2788      2787      2790      2792
      2788      2787      2790      2793      2789      2787      2790      2791
      2789      2787      2790      2792      2789      2787      2790      2793
      2790      2793      2796      2797      2790      2793      2796      2798
      2790      2793      2796      2799      2791      2790      2793      2794
      2791      2790      2793      2795      2791      2790      2793      2796
      2792      2790      2793      2794      2792      2790      2793      2795
      2792      2790      2793      2796      2793      2796      2799      2800
      2793      2796      2799      2801      2793      2796      2799      2802
      2794      2793      2796      2797      2794      2793      2796      2798
      2794      2793      2796      2799      2795      2793      2796      2797
      2795      2793      2796      2798      2795      2793      2796      2799
      2797      2796      2799      2800      2797      2796      2799      2801
      2797      2796      2799      2802      2798      2796      2799      2800
      2798      2796      2799      2801      2798      2796      2799      2802
      2803      2806      2809      2810      2803      2806      2809      2811
      2803      2806      2809      2812      2804      2803      2806      2807
      2804      2803      2806      2808      2804      2803      2806      2809
      2805      2803      2806      2807      2805      2803      2806      2808
      2805      2803      2806      2809      2806      2809      2812      2813
      2806      2809      2812      2814      2806      2809      2812      2815
      2807      2806      2809      2810      2807      2806      2809      2811
      2807      2806      2809      2812      2808      2806      2809      2810
      2808      2806      2809      2811      2808      2806      2809      2812
      2809      2812      2815      2816      2809      2812      2815      2817
      2809      2812      2815      2818      2810      2809      2812      2813
      2810      2809      2812      2814      2810      2809      2812      2815
      2811      2809      2812      2813      2811      2809      2812      2814
      2811      2809      2812      2815      2812      2815      2818      2819
      2812      2815      2818      2820      2812      2815      2818      2821
      2813      2812      2815      2816      2813      2812      2815      2817
      2813      2812      2815      2818      2814      2812      2815      2816
      2814      2812      2815      2817      2814      2812      2815      2818
      2815      2818      2821      2822      2815      2818      2821      2823
      2815      2818      2821      2824      2816      2815      2818      2819
      2816      2815      2818      2820      2816      2815      2818      2821
      2817      2815      2818      2819      2817      2815      2818      2820
      2817      2815      2818      2821      2818      2821      2824      2825
      2818      2821      2824      2826      2818      2821      2824      2827
      2819      2818      2821      2822      2819      2818      2821      2823
      2819      2818      2821      2824      2820      2818      2821      2822
      2820      2818      2821      2823      2820      2818      2821      2824
      2821      2824      2827      2828      2821      2824      2827      2829
      2821      2824      2827      2830      2822      2821      2824      2825
      2822      2821      2824      2826      2822      2821      2824      2827
      2823      2821      2824      2825      2823      2821      2824      2826
      2823      2821      2824      2827      2824      2827      2830      2831
      2824      2827      2830      2832      2824      2827      2830      2833
      2825      2824      2827      2828      2825      2824      2827      2829
      2825      2824      2827      2830      2826      2824      2827      2828
      2826      2824      2827      2829      2826      2824      2827      2830
      2827      2830      2833      2834      2827      2830      2833      2835
      2827      2830      2833      2836      2828      2827      2830      2831
      2828      2827      2830      2832      2828      2827      2830      2833
      2829      2827      2830      2831      2829      2827      2830      2832
      2829      2827      2830      2833      2830      2833      2836      2837
      2830      2833      2836      2838      2830      2833      2836      2839
      2831      2830      2833      2834      2831      2830      2833      2835
      2831      2830      2833      2836      2832      2830      2833      2834
      2832      2830      2833      2835      2832      2830      2833      2836
      2833      2836      2839      2840      2833      2836      2839      2841
      2833      2836      2839      2842      2834      2833      2836      2837
      2834      2833      2836      2838      2834      2833      2836      2839
      2835      2833      2836      2837      2835      2833      2836      2838
      2835      2833      2836      2839      2836      2839      2842      2843
      2836      2839      2842      2844      2836      2839      2842      2845
      2837      2836      2839      2840      2837      2836      2839      2841
      2837      2836      2839      2842      2838      2836      2839      2840
      2838      2836      2839      2841      2838      2836      2839      2842
      2840      2839      2842      2843      2840      2839      2842      2844
      2840      2839      2842      2845      2841      2839      2842      2843
      2841      2839      2842      2844      2841      2839      2842      2845
       371       375       378       379       371       375       378       409
       371       417       414       409       371       417       414       415
       371       417       414       416       372       371       373       374
       372       371       375       376       372       371       375       377
       372       371       375       378       372       371       417       414
       372       371       417       418       372       371       417       419
       373       371       375       376       373       371       375       377
       373       371       375       378       373       371       417       414
       373       371       417       418       373       371       417       419
       374       373       371       375       374       373       371       417
       375       371       417       414       375       371       417       418
       375       371       417       419       375       378       379       380
       375       378       379       381       375       378       409       407
       375       378       409       410       375       378       409       414
       376       375       371       417       376       375       378       379
       376       375       378       409       377       375       371       417
       377       375       378       379       377       375       378       409
       378       375       371       417       378       379       381       382
       378       379       381       383       378       379       381       384
       378       409       407       384       378       409       407       404
       378       409       407       408       378       409       410       411
       378       409       410       412       378       409       410       413
       378       409       414       415       378       409       414       416
       378       409       414       417       379       378       409       407
       379       378       409       410       379       378       409       414
       379       381       384       385       379       381       384       386
       379       381       384       407       380       379       378       409
       380       379       381       382       380       379       381       383
       380       379       381       384       381       379       378       409
       381       384       386       387       381       384       386       388
       381       384       386       396       381       384       407       404
       381       384       407       408       381       384       407       409
       382       381       384       385       382       381       384       386
       382       381       384       407       383       381       384       385
       383       381       384       386       383       381       384       407
       384       386       388       389       384       386       388       390
       384       386       388       391       384       386       396       394
       384       386       396       397       384       386       396       401
       384       407       404       401       384       407       404       405
       384       407       404       406       384       407       409       410
       384       407       409       414       385       384       386       387
       385       384       386       388       385       384       386       396
       385       384       407       404       385       384       407       408
       385       384       407       409       386       384       407       404
       386       384       407       408       386       384       407       409
       386       388       391       392       386       388       391       393
       386       388       391       394       386       396       394       391
       386       396       394       395       386       396       394       420
       386       396       397       398       386       396       397       399
       386       396       397       400       386       396       401       402
       386       396       401       403       386       396       401       404
       387       386       384       407       387       386       388       389
       387       386       388       390       387       386       388       391
       387       386       396       394       387       386       396       397
       387       386       396       401       388       386       384       407
       388       386       396       394       388       386       396       397
       388       386       396       401       388       391       394       395
       388       391       394       396       388       391       394       420
       389       388       386       396       389       388       391       392
       389       388       391       393       389       388       391       394
       390       388       386       396       390       388       391       392
       390       388       391       393       390       388       391       394
       391       388       386       396       391       394       396       397
       391       394       396       401       391       394       420       421
       391       394       420       422       391       394       420       426
       392       391       394       395       392       391       394       396
       392       391       394       420       393       391       394       395
       393       391       394       396       393       391       394       420
       394       396       397       398       394       396       397       399
       394       396       397       400       394       396       401       402
       394       396       401       403       394       396       401       404
       394       420       422       423       394       420       422       424
       394       420       422       425       394       420       426       427
       394       420       426       428       394       420       426       429
       395       394       396       397       395       394       396       401
       395       394       420       421       395       394       420       422
       395       394       420       426       396       386       384       407
       396       394       420       421       396       394       420       422
       396       394       420       426       396       401       404       405
       396       401       404       406       396       401       404       407
       397       396       394       420       397       396       401       402
       397       396       401       403       397       396       401       404
       398       397       396       401       399       397       396       401
       400       397       396       401       401       396       394       420
       401       404       407       408       401       404       407       409
       402       401       404       405       402       401       404       406
       402       401       404       407       403       401       404       405
       403       401       404       406       403       401       404       407
       404       407       409       410       404       407       409       414
       405       404       407       408       405       404       407       409
       406       404       407       408       406       404       407       409
       407       409       410       411       407       409       410       412
       407       409       410       413       407       409       414       415
       407       409       414       416       407       409       414       417
       408       407       409       410       408       407       409       414
       409       414       417       418       409       414       417       419
       410       409       414       415       410       409       414       416
       410       409       414       417       411       410       409       414
       412       410       409       414       413       410       409       414
       415       414       417       418       415       414       417       419
       416       414       417       418       416       414       417       419
       420       426       429       430       420       426       429       431
       420       426       429       432       421       420       422       423
       421       420       422       424       421       420       422       425
       421       420       426       427       421       420       426       428
       421       420       426       429       422       420       426       427
       422       420       426       428       422       420       426       429
       423       422       420       426       424       422       420       426
       425       422       420       426       426       429       432       433
       426       429       432       434       426       429       432       435
       427       426       429       430       427       426       429       431
       427       426       429       432       428       426       429       430
       428       426       429       431       428       426       429       432
       429       432       435       436       429       432       435       437
       429       432       435       441       430       429       432       433
       430       429       432       434       430       429       432       435
       431       429       432       433       431       429       432       434
       431       429       432       435       432       435       437       438
       432       435       437       439       432       435       437       440
       432       435       441       442       432       435       441       443
       432       435       441       444       433       432       435       436
       433       432       435       437       433       432       435       441
       434       432       435       436       434       432       435       437
       434       432       435       441       436       435       437       438
       436       435       437       439       436       435       437       440
       436       435       441       442       436       435       441       443
       436       435       441       444       437       435       441       442
       437       435       441       443       437       435       441       444
       438       437       435       441       439       437       435       441
       440       437       435       441     14355     14356     14371     14372
     14355     14356     14371     14373     14355     14356     14371     14377
     14356     14355     14359     14360     14356     14355     14359     14361
     14356     14355     14359     14362     14356     14355     14363     14364
     14356     14355     14363     14365     14356     14355     14363     14366
     14356     14355     14367     14368     14356     14355     14367     14369
     14356     14355     14367     14370     14356     14371     14377     14374
     14357     14356     14355     14359     14357     14356     14355     14363
     14357     14356     14355     14367     14357     14356     14371     14372
     14357     14356     14371     14373     14357     14356     14371     14377
     14358     14356     14355     14359     14358     14356     14355     14363
     14358     14356     14355     14367     14358     14356     14371     14372
     14358     14356     14371     14373     14358     14356     14371     14377
     14359     14355     14356     14371     14359     14355     14363     14364
     14359     14355     14363     14365     14359     14355     14363     14366
     14359     14355     14367     14368     14359     14355     14367     14369
     14359     14355     14367     14370     14360     14359     14355     14363
     14360     14359     14355     14367     14361     14359     14355     14363
     14361     14359     14355     14367     14362     14359     14355     14363
     14362     14359     14355     14367     14363     14355     14356     14371
     14363     14355     14367     14368     14363     14355     14367     14369
     14363     14355     14367     14370     14364     14363     14355     14367
     14365     14363     14355     14367     14366     14363     14355     14367
     14367     14355     14356     14371     14371     14377     14374     14375
     14371     14377     14374     14376     14371     14377     14374     14378
     14372     14371     14377     14374     14373     14371     14377     14374
     14374     14378     14379     14380     14374     14378     14379     14381
     14374     14378     14379     14382     14375     14374     14378     14379
     14376     14374     14378     14379     14377     14374     14378     14379
     14378     14379     14382     14383     14378     14379     14382     14384
     14378     14379     14382     14390     14379     14382     14384     14385
     14379     14382     14390     14391     14379     14382     14390     14392
     14379     14382     14390     14393     14380     14379     14382     14383
     14380     14379     14382     14384     14380     14379     14382     14390
     14381     14379     14382     14383     14381     14379     14382     14384
     14381     14379     14382     14390     14382     14384     14385     14386
     14382     14384     14385     14387     14382     14390     14393     14394
     14383     14382     14384     14385     14383     14382     14390     14391
     14383     14382     14390     14392     14383     14382     14390     14393
     14384     14382     14390     14391     14384     14382     14390     14392
     14384     14382     14390     14393     14384     14385     14387     14388
     14384     14385     14387     14389     14384     14385     14387     14399
     14385     14384     14382     14390     14385     14387     14399     14400
     14385     14387     14399     14401     14385     14387     14399     14402
     14386     14385     14387     14388     14386     14385     14387     14389
     14386     14385     14387     14399     14387     14399     14402     14403
     14387     14399     14402     14404     14387     14399     14402     14405
     14388     14387     14399     14400     14388     14387     14399     14401
     14388     14387     14399     14402     14389     14387     14399     14400
     14389     14387     14399     14401     14389     14387     14399     14402
     14390     14393     14394     14395     14390     14393     14394     14396
     14391     14390     14393     14394     14392     14390     14393     14394
     14393     14394     14396     14397     14393     14394     14396     14398
     14393     14394     14396     14446     14394     14396     14446     14447
     14394     14396     14446     14448     14394     14396     14446     14449
     14395     14394     14396     14397     14395     14394     14396     14398
     14395     14394     14396     14446     14396     14446     14449     14450
     14396     14446     14449     14451     14396     14446     14449     14452
     14397     14396     14446     14447     14397     14396     14446     14448
     14397     14396     14446     14449     14398     14396     14446     14447
     14398     14396     14446     14448     14398     14396     14446     14449
     14399     14402     14405     14406     14399     14402     14405     14407
     14399     14402     14405     14408     14400     14399     14402     14403
     14400     14399     14402     14404     14400     14399     14402     14405
     14401     14399     14402     14403     14401     14399     14402     14404
     14401     14399     14402     14405     14402     14405     14408     14409
     14402     14405     14408     14410     14402     14405     14408     14411
     14403     14402     14405     14406     14403     14402     14405     14407
     14403     14402     14405     14408     14404     14402     14405     14406
     14404     14402     14405     14407     14404     14402     14405     14408
     14405     14408     14411     14412     14405     14408     14411     14413
     14405     14408     14411     14414     14406     14405     14408     14409
     14406     14405     14408     14410     14406     14405     14408     14411
     14407     14405     14408     14409     14407     14405     14408     14410
     14407     14405     14408     14411     14408     14411     14414     14415
     14408     14411     14414     14416     14408     14411     14414     14417
     14409     14408     14411     14412     14409     14408     14411     14413
     14409     14408     14411     14414     14410     14408     14411     14412
     14410     14408     14411     14413     14410     14408     14411     14414
     14411     14414     14417     14418     14411     14414     14417     14419
     14412     14411     14414     14415     14412     14411     14414     14416
     14412     14411     14414     14417     14413     14411     14414     14415
     14413     14411     14414     14416     14413     14411     14414     14417
     14414     14417     14419     14420     14414     14417     14419     14421
     14415     14414     14417     14418     14415     14414     14417     14419
     14416     14414     14417     14418     14416     14414     14417     14419
     14417     14419     14421     14422     14417     14419     14421     14423
     14417     14419     14421     14424     14418     14417     14419     14420
     14418     14417     14419     14421     14419     14421     14424     14425
     14419     14421     14424     14426     14419     14421     14424     14427
     14420     14419     14421     14422     14420     14419     14421     14423
     14420     14419     14421     14424     14421     14424     14427     14428
     14421     14424     14427     14429     14421     14424     14427     14430
     14422     14421     14424     14425     14422     14421     14424     14426
     14422     14421     14424     14427     14423     14421     14424     14425
     14423     14421     14424     14426     14423     14421     14424     14427
     14424     14427     14430     14431     14424     14427     14430     14432
     14424     14427     14430     14433     14425     14424     14427     14428
     14425     14424     14427     14429     14425     14424     14427     14430
     14426     14424     14427     14428     14426     14424     14427     14429
     14426     14424     14427     14430     14427     14430     14433     14434
     14427     14430     14433     14435     14427     14430     14433     14436
     14428     14427     14430     14431     14428     14427     14430     14432
     14428     14427     14430     14433     14429     14427     14430     14431
     14429     14427     14430     14432     14429     14427     14430     14433
     14430     14433     14436     14437     14430     14433     14436     14438
     14430     14433     14436     14439     14431     14430     14433     14434
     14431     14430     14433     14435     14431     14430     14433     14436
     14432     14430     14433     14434     14432     14430     14433     14435
     14432     14430     14433     14436     14433     14436     14439     14440
     14433     14436     14439     14441     14433     14436     14439     14442
     14434     14433     14436     14437     14434     14433     14436     14438
     14434     14433     14436     14439     14435     14433     14436     14437
     14435     14433     14436     14438     14435     14433     14436     14439
     14436     14439     14442     14443     14436     14439     14442     14444
     14436     14439     14442     14445     14437     14436     14439     14440
     14437     14436     14439     14441     14437     14436     14439     14442
     14438     14436     14439     14440     14438     14436     14439     14441
     14438     14436     14439     14442     14440     14439     14442     14443
     14440     14439     14442     14444     14440     14439     14442     14445
     14441     14439     14442     14443     14441     14439     14442     14444
     14441     14439     14442     14445     14446     14449     14452     14453
     14446     14449     14452     14454     14446     14449     14452     14455
     14447     14446     14449     14450     14447     14446     14449     14451
     14447     14446     14449     14452     14448     14446     14449     14450
     14448     14446     14449     14451     14448     14446     14449     14452
     14449     14452     14455     14456     14449     14452     14455     14457
     14449     14452     14455     14458     14450     14449     14452     14453
     14450     14449     14452     14454     14450     14449     14452     14455
     14451     14449     14452     14453     14451     14449     14452     14454
     14451     14449     14452     14455     14452     14455     14458     14459
     14452     14455     14458     14460     14452     14455     14458     14461
     14453     14452     14455     14456     14453     14452     14455     14457
     14453     14452     14455     14458     14454     14452     14455     14456
     14454     14452     14455     14457     14454     14452     14455     14458
     14455     14458     14461     14462     14455     14458     14461     14463
     14455     14458     14461     14464     14456     14455     14458     14459
     14456     14455     14458     14460     14456     14455     14458     14461
     14457     14455     14458     14459     14457     14455     14458     14460
     14457     14455     14458     14461     14458     14461     14464     14465
     14458     14461     14464     14466     14458     14461     14464     14467
     14459     14458     14461     14462     14459     14458     14461     14463
     14459     14458     14461     14464     14460     14458     14461     14462
     14460     14458     14461     14463     14460     14458     14461     14464
     14461     14464     14467     14468     14461     14464     14467     14469
     14461     14464     14467     14470     14462     14461     14464     14465
     14462     14461     14464     14466     14462     14461     14464     14467
     14463     14461     14464     14465     14463     14461     14464     14466
     14463     14461     14464     14467     14464     14467     14470     14471
     14464     14467     14470     14472     14464     14467     14470     14473
     14465     14464     14467     14468     14465     14464     14467     14469
     14465     14464     14467     14470     14466     14464     14467     14468
     14466     14464     14467     14469     14466     14464     14467     14470
     14467     14470     14473     14474     14467     14470     14473     14475
     14467     14470     14473     14476     14468     14467     14470     14471
     14468     14467     14470     14472     14468     14467     14470     14473
     14469     14467     14470     14471     14469     14467     14470     14472
     14469     14467     14470     14473     14470     14473     14476     14477
     14470     14473     14476     14478     14470     14473     14476     14479
     14471     14470     14473     14474     14471     14470     14473     14475
     14471     14470     14473     14476     14472     14470     14473     14474
     14472     14470     14473     14475     14472     14470     14473     14476
     14473     14476     14479     14480     14473     14476     14479     14481
     14473     14476     14479     14482     14474     14473     14476     14477
     14474     14473     14476     14478     14474     14473     14476     14479
     14475     14473     14476     14477     14475     14473     14476     14478
     14475     14473     14476     14479     14476     14479     14482     14483
     14476     14479     14482     14484     14476     14479     14482     14485
     14477     14476     14479     14480     14477     14476     14479     14481
     14477     14476     14479     14482     14478     14476     14479     14480
     14478     14476     14479     14481     14478     14476     14479     14482
     14479     14482     14485     14486     14479     14482     14485     14487
     14479     14482     14485     14488     14480     14479     14482     14483
     14480     14479     14482     14484     14480     14479     14482     14485
     14481     14479     14482     14483     14481     14479     14482     14484
     14481     14479     14482     14485     14483     14482     14485     14486
     14483     14482     14485     14487     14483     14482     14485     14488
     14484     14482     14485     14486     14484     14482     14485     14487
     14484     14482     14485     14488      8725      8729      8731      8732
      8725      8729      8731      8733      8725      8729      8734      8735
      8725      8729      8734      8736      8725      8729      8734      8740
      8726      8725      8729      8730      8726      8725      8729      8731
      8726      8725      8729      8734      8727      8725      8729      8730
      8727      8725      8729      8731      8727      8725      8729      8734
      8728      8725      8729      8730      8728      8725      8729      8731
      8728      8725      8729      8734      8729      8734      8740      8737
      8730      8729      8731      8732      8730      8729      8731      8733
      8730      8729      8734      8735      8730      8729      8734      8736
      8730      8729      8734      8740      8731      8729      8734      8735
      8731      8729      8734      8736      8731      8729      8734      8740
      8732      8731      8729      8734      8733      8731      8729      8734
      8734      8740      8737      8738      8734      8740      8737      8739
      8734      8740      8737      8741      8735      8734      8740      8737
      8736      8734      8740      8737      8737      8741      8742      8743
      8737      8741      8742      8744      8737      8741      8742      8745
      8738      8737      8741      8742      8739      8737      8741      8742
      8740      8737      8741      8742      8741      8742      8745      8746
      8741      8742      8745      8747      8741      8742      8745      8753
      8742      8745      8747      8748      8742      8745      8753      8754
      8742      8745      8753      8755      8742      8745      8753      8756
      8743      8742      8745      8746      8743      8742      8745      8747
      8743      8742      8745      8753      8744      8742      8745      8746
      8744      8742      8745      8747      8744      8742      8745      8753
      8745      8747      8748      8749      8745      8747      8748      8750
      8745      8753      8756      8757      8746      8745      8747      8748
      8746      8745      8753      8754      8746      8745      8753      8755
      8746      8745      8753      8756      8747      8745      8753      8754
      8747      8745      8753      8755      8747      8745      8753      8756
      8747      8748      8750      8751      8747      8748      8750      8752
      8747      8748      8750      8762      8748      8747      8745      8753
      8748      8750      8762      8763      8748      8750      8762      8764
      8748      8750      8762      8765      8749      8748      8750      8751
      8749      8748      8750      8752      8749      8748      8750      8762
      8750      8762      8765      8766      8750      8762      8765      8767
      8750      8762      8765      8768      8751      8750      8762      8763
      8751      8750      8762      8764      8751      8750      8762      8765
      8752      8750      8762      8763      8752      8750      8762      8764
      8752      8750      8762      8765      8753      8756      8757      8758
      8753      8756      8757      8759      8754      8753      8756      8757
      8755      8753      8756      8757      8756      8757      8759      8760
      8756      8757      8759      8761      8756      8757      8759      8809
      8757      8759      8809      8810      8757      8759      8809      8811
      8757      8759      8809      8812      8758      8757      8759      8760
      8758      8757      8759      8761      8758      8757      8759      8809
      8759      8809      8812      8813      8759      8809      8812      8814
      8759      8809      8812      8815      8760      8759      8809      8810
      8760      8759      8809      8811      8760      8759      8809      8812
      8761      8759      8809      8810      8761      8759      8809      8811
      8761      8759      8809      8812      8762      8765      8768      8769
      8762      8765      8768      8770      8762      8765      8768      8771
      8763      8762      8765      8766      8763      8762      8765      8767
      8763      8762      8765      8768      8764      8762      8765      8766
      8764      8762      8765      8767      8764      8762      8765      8768
      8765      8768      8771      8772      8765      8768      8771      8773
      8765      8768      8771      8774      8766      8765      8768      8769
      8766      8765      8768      8770      8766      8765      8768      8771
      8767      8765      8768      8769      8767      8765      8768      8770
      8767      8765      8768      8771      8768      8771      8774      8775
      8768      8771      8774      8776      8768      8771      8774      8777
      8769      8768      8771      8772      8769      8768      8771      8773
      8769      8768      8771      8774      8770      8768      8771      8772
      8770      8768      8771      8773      8770      8768      8771      8774
      8771      8774      8777      8778      8771      8774      8777      8779
      8771      8774      8777      8780      8772      8771      8774      8775
      8772      8771      8774      8776      8772      8771      8774      8777
      8773      8771      8774      8775      8773      8771      8774      8776
      8773      8771      8774      8777      8774      8777      8780      8781
      8774      8777      8780      8782      8775      8774      8777      8778
      8775      8774      8777      8779      8775      8774      8777      8780
      8776      8774      8777      8778      8776      8774      8777      8779
      8776      8774      8777      8780      8777      8780      8782      8783
      8777      8780      8782      8784      8778      8777      8780      8781
      8778      8777      8780      8782      8779      8777      8780      8781
      8779      8777      8780      8782      8780      8782      8784      8785
      8780      8782      8784      8786      8780      8782      8784      8787
      8781      8780      8782      8783      8781      8780      8782      8784
      8782      8784      8787      8788      8782      8784      8787      8789
      8782      8784      8787      8790      8783      8782      8784      8785
      8783      8782      8784      8786      8783      8782      8784      8787
      8784      8787      8790      8791      8784      8787      8790      8792
      8784      8787      8790      8793      8785      8784      8787      8788
      8785      8784      8787      8789      8785      8784      8787      8790
      8786      8784      8787      8788      8786      8784      8787      8789
      8786      8784      8787      8790      8787      8790      8793      8794
      8787      8790      8793      8795      8787      8790      8793      8796
      8788      8787      8790      8791      8788      8787      8790      8792
      8788      8787      8790      8793      8789      8787      8790      8791
      8789      8787      8790      8792      8789      8787      8790      8793
      8790      8793      8796      8797      8790      8793      8796      8798
      8790      8793      8796      8799      8791      8790      8793      8794
      8791      8790      8793      8795      8791      8790      8793      8796
      8792      8790      8793      8794      8792      8790      8793      8795
      8792      8790      8793      8796      8793      8796      8799      8800
      8793      8796      8799      8801      8793      8796      8799      8802
      8794      8793      8796      8797      8794      8793      8796      8798
      8794      8793      8796      8799      8795      8793      8796      8797
      8795      8793      8796      8798      8795      8793      8796      8799
      8796      8799      8802      8803      8796      8799      8802      8804
      8796      8799      8802      8805      8797      8796      8799      8800
      8797      8796      8799      8801      8797      8796      8799      8802
      8798      8796      8799      8800      8798      8796      8799      8801
      8798      8796      8799      8802      8799      8802      8805      8806
      8799      8802      8805      8807      8799      8802      8805      8808
      8800      8799      8802      8803      8800      8799      8802      8804
      8800      8799      8802      8805      8801      8799      8802      8803
      8801      8799      8802      8804      8801      8799      8802      8805
      8803      8802      8805      8806      8803      8802      8805      8807
      8803      8802      8805      8808      8804      8802      8805      8806
      8804      8802      8805      8807      8804      8802      8805      8808
      8809      8812      8815      8816      8809      8812      8815      8817
      8809      8812      8815      8818      8810      8809      8812      8813
      8810      8809      8812      8814      8810      8809      8812      8815
      8811      8809      8812      8813      8811      8809      8812      8814
      8811      8809      8812      8815      8812      8815      8818      8819
      8812      8815      8818      8820      8812      8815      8818      8821
      8813      8812      8815      8816      8813      8812      8815      8817
      8813      8812      8815      8818      8814      8812      8815      8816
      8814      8812      8815      8817      8814      8812      8815      8818
      8815      8818      8821      8822      8815      8818      8821      8823
      8815      8818      8821      8824      8816      8815      8818      8819
      8816      8815      8818      8820      8816      8815      8818      8821
      8817      8815      8818      8819      8817      8815      8818      8820
      8817      8815      8818      8821      8818      8821      8824      8825
      8818      8821      8824      8826      8818      8821      8824      8827
      8819      8818      8821      8822      8819      8818      8821      8823
      8819      8818      8821      8824      8820      8818      8821      8822
      8820      8818      8821      8823      8820      8818      8821      8824
      8821      8824      8827      8828      8821      8824      8827      8829
      8821      8824      8827      8830      8822      8821      8824      8825
      8822      8821      8824      8826      8822      8821      8824      8827
      8823      8821      8824      8825      8823      8821      8824      8826
      8823      8821      8824      8827      8824      8827      8830      8831
      8824      8827      8830      8832      8824      8827      8830      8833
      8825      8824      8827      8828      8825      8824      8827      8829
      8825      8824      8827      8830      8826      8824      8827      8828
      8826      8824      8827      8829      8826      8824      8827      8830
      8827      8830      8833      8834      8827      8830      8833      8835
      8827      8830      8833      8836      8828      8827      8830      8831
      8828      8827      8830      8832      8828      8827      8830      8833
      8829      8827      8830      8831      8829      8827      8830      8832
      8829      8827      8830      8833      8830      8833      8836      8837
      8830      8833      8836      8838      8830      8833      8836      8839
      8831      8830      8833      8834      8831      8830      8833      8835
      8831      8830      8833      8836      8832      8830      8833      8834
      8832      8830      8833      8835      8832      8830      8833      8836
      8833      8836      8839      8840      8833      8836      8839      8841
      8833      8836      8839      8842      8834      8833      8836      8837
      8834      8833      8836      8838      8834      8833      8836      8839
      8835      8833      8836      8837      8835      8833      8836      8838
      8835      8833      8836      8839      8836      8839      8842      8843
      8836      8839      8842      8844      8836      8839      8842      8845
      8837      8836      8839      8840      8837      8836      8839      8841
      8837      8836      8839      8842      8838      8836      8839      8840
      8838      8836      8839      8841      8838      8836      8839      8842
      8839      8842      8845      8846      8839      8842      8845      8847
      8839      8842      8845      8848      8840      8839      8842      8843
      8840      8839      8842      8844      8840      8839      8842      8845
      8841      8839      8842      8843      8841      8839      8842      8844
      8841      8839      8842      8845      8842      8845      8848      8849
      8842      8845      8848      8850      8842      8845      8848      8851
      8843      8842      8845      8846      8843      8842      8845      8847
      8843      8842      8845      8848      8844      8842      8845      8846
      8844      8842      8845      8847      8844      8842      8845      8848
      8846      8845      8848      8849      8846      8845      8848      8850
      8846      8845      8848      8851      8847      8845      8848      8849
      8847      8845      8848      8850      8847      8845      8848      8851
      8852      8856      8858      8859      8852      8856      8858      8860
      8852      8856      8861      8862      8852      8856      8861      8863
      8852      8856      8861      8867      8853      8852      8856      8857
      8853      8852      8856      8858      8853      8852      8856      8861
      8854      8852      8856      8857      8854      8852      8856      8858
      8854      8852      8856      8861      8855      8852      8856      8857
      8855      8852      8856      8858      8855      8852      8856      8861
      8856      8861      8867      8864      8857      8856      8858      8859
      8857      8856      8858      8860      8857      8856      8861      8862
      8857      8856      8861      8863      8857      8856      8861      8867
      8858      8856      8861      8862      8858      8856      8861      8863
      8858      8856      8861      8867      8859      8858      8856      8861
      8860      8858      8856      8861      8861      8867      8864      8865
      8861      8867      8864      8866      8861      8867      8864      8868
      8862      8861      8867      8864      8863      8861      8867      8864
      8864      8868      8869      8870      8864      8868      8869      8871
      8864      8868      8869      8872      8865      8864      8868      8869
      8866      8864      8868      8869      8867      8864      8868      8869
      8868      8869      8872      8873      8868      8869      8872      8874
      8868      8869      8872      8880      8869      8872      8874      8875
      8869      8872      8880      8881      8869      8872      8880      8882
      8869      8872      8880      8883      8870      8869      8872      8873
      8870      8869      8872      8874      8870      8869      8872      8880
      8871      8869      8872      8873      8871      8869      8872      8874
      8871      8869      8872      8880      8872      8874      8875      8876
      8872      8874      8875      8877      8872      8880      8883      8884
      8873      8872      8874      8875      8873      8872      8880      8881
      8873      8872      8880      8882      8873      8872      8880      8883
      8874      8872      8880      8881      8874      8872      8880      8882
      8874      8872      8880      8883      8874      8875      8877      8878
      8874      8875      8877      8879      8874      8875      8877      8889
      8875      8874      8872      8880      8875      8877      8889      8890
      8875      8877      8889      8891      8875      8877      8889      8892
      8876      8875      8877      8878      8876      8875      8877      8879
      8876      8875      8877      8889      8877      8889      8892      8893
      8877      8889      8892      8894      8877      8889      8892      8895
      8878      8877      8889      8890      8878      8877      8889      8891
      8878      8877      8889      8892      8879      8877      8889      8890
      8879      8877      8889      8891      8879      8877      8889      8892
      8880      8883      8884      8885      8880      8883      8884      8886
      8881      8880      8883      8884      8882      8880      8883      8884
      8883      8884      8886      8887      8883      8884      8886      8888
      8883      8884      8886      8936      8884      8886      8936      8937
      8884      8886      8936      8938      8884      8886      8936      8939
      8885      8884      8886      8887      8885      8884      8886      8888
      8885      8884      8886      8936      8886      8936      8939      8940
      8886      8936      8939      8941      8886      8936      8939      8942
      8887      8886      8936      8937      8887      8886      8936      8938
      8887      8886      8936      8939      8888      8886      8936      8937
      8888      8886      8936      8938      8888      8886      8936      8939
      8889      8892      8895      8896      8889      8892      8895      8897
      8889      8892      8895      8898      8890      8889      8892      8893
      8890      8889      8892      8894      8890      8889      8892      8895
      8891      8889      8892      8893      8891      8889      8892      8894
      8891      8889      8892      8895      8892      8895      8898      8899
      8892      8895      8898      8900      8892      8895      8898      8901
      8893      8892      8895      8896      8893      8892      8895      8897
      8893      8892      8895      8898      8894      8892      8895      8896
      8894      8892      8895      8897      8894      8892      8895      8898
      8895      8898      8901      8902      8895      8898      8901      8903
      8895      8898      8901      8904      8896      8895      8898      8899
      8896      8895      8898      8900      8896      8895      8898      8901
      8897      8895      8898      8899      8897      8895      8898      8900
      8897      8895      8898      8901      8898      8901      8904      8905
      8898      8901      8904      8906      8898      8901      8904      8907
      8899      8898      8901      8902      8899      8898      8901      8903
      8899      8898      8901      8904      8900      8898      8901      8902
      8900      8898      8901      8903      8900      8898      8901      8904
      8901      8904      8907      8908      8901      8904      8907      8909
      8902      8901      8904      8905      8902      8901      8904      8906
      8902      8901      8904      8907      8903      8901      8904      8905
      8903      8901      8904      8906      8903      8901      8904      8907
      8904      8907      8909      8910      8904      8907      8909      8911
      8905      8904      8907      8908      8905      8904      8907      8909
      8906      8904      8907      8908      8906      8904      8907      8909
      8907      8909      8911      8912      8907      8909      8911      8913
      8907      8909      8911      8914      8908      8907      8909      8910
      8908      8907      8909      8911      8909      8911      8914      8915
      8909      8911      8914      8916      8909      8911      8914      8917
      8910      8909      8911      8912      8910      8909      8911      8913
      8910      8909      8911      8914      8911      8914      8917      8918
      8911      8914      8917      8919      8911      8914      8917      8920
      8912      8911      8914      8915      8912      8911      8914      8916
      8912      8911      8914      8917      8913      8911      8914      8915
      8913      8911      8914      8916      8913      8911      8914      8917
      8914      8917      8920      8921      8914      8917      8920      8922
      8914      8917      8920      8923      8915      8914      8917      8918
      8915      8914      8917      8919      8915      8914      8917      8920
      8916      8914      8917      8918      8916      8914      8917      8919
      8916      8914      8917      8920      8917      8920      8923      8924
      8917      8920      8923      8925      8917      8920      8923      8926
      8918      8917      8920      8921      8918      8917      8920      8922
      8918      8917      8920      8923      8919      8917      8920      8921
      8919      8917      8920      8922      8919      8917      8920      8923
      8920      8923      8926      8927      8920      8923      8926      8928
      8920      8923      8926      8929      8921      8920      8923      8924
      8921      8920      8923      8925      8921      8920      8923      8926
      8922      8920      8923      8924      8922      8920      8923      8925
      8922      8920      8923      8926      8923      8926      8929      8930
      8923      8926      8929      8931      8923      8926      8929      8932
      8924      8923      8926      8927      8924      8923      8926      8928
      8924      8923      8926      8929      8925      8923      8926      8927
      8925      8923      8926      8928      8925      8923      8926      8929
      8926      8929      8932      8933      8926      8929      8932      8934
      8926      8929      8932      8935      8927      8926      8929      8930
      8927      8926      8929      8931      8927      8926      8929      8932
      8928      8926      8929      8930      8928      8926      8929      8931
      8928      8926      8929      8932      8930      8929      8932      8933
      8930      8929      8932      8934      8930      8929      8932      8935
      8931      8929      8932      8933      8931      8929      8932      8934
      8931      8929      8932      8935      8936      8939      8942      8943
      8936      8939      8942      8944      8936      8939      8942      8945
      8937      8936      8939      8940      8937      8936      8939      8941
      8937      8936      8939      8942      8938      8936      8939      8940
      8938      8936      8939      8941      8938      8936      8939      8942
      8939      8942      8945      8946      8939      8942      8945      8947
      8939      8942      8945      8948      8940      8939      8942      8943
      8940      8939      8942      8944      8940      8939      8942      8945
      8941      8939      8942      8943      8941      8939      8942      8944
      8941      8939      8942      8945      8942      8945      8948      8949
      8942      8945      8948      8950      8942      8945      8948      8951
      8943      8942      8945      8946      8943      8942      8945      8947
      8943      8942      8945      8948      8944      8942      8945      8946
      8944      8942      8945      8947      8944      8942      8945      8948
      8945      8948      8951      8952      8945      8948      8951      8953
      8945      8948      8951      8954      8946      8945      8948      8949
      8946      8945      8948      8950      8946      8945      8948      8951
      8947      8945      8948      8949      8947      8945      8948      8950
      8947      8945      8948      8951      8948      8951      8954      8955
      8948      8951      8954      8956      8948      8951      8954      8957
      8949      8948      8951      8952      8949      8948      8951      8953
      8949      8948      8951      8954      8950      8948      8951      8952
      8950      8948      8951      8953      8950      8948      8951      8954
      8951      8954      8957      8958      8951      8954      8957      8959
      8951      8954      8957      8960      8952      8951      8954      8955
      8952      8951      8954      8956      8952      8951      8954      8957
      8953      8951      8954      8955      8953      8951      8954      8956
      8953      8951      8954      8957      8954      8957      8960      8961
      8954      8957      8960      8962      8954      8957      8960      8963
      8955      8954      8957      8958      8955      8954      8957      8959
      8955      8954      8957      8960      8956      8954      8957      8958
      8956      8954      8957      8959      8956      8954      8957      8960
      8957      8960      8963      8964      8957      8960      8963      8965
      8957      8960      8963      8966      8958      8957      8960      8961
      8958      8957      8960      8962      8958      8957      8960      8963
      8959      8957      8960      8961      8959      8957      8960      8962
      8959      8957      8960      8963      8960      8963      8966      8967
      8960      8963      8966      8968      8960      8963      8966      8969
      8961      8960      8963      8964      8961      8960      8963      8965
      8961      8960      8963      8966      8962      8960      8963      8964
      8962      8960      8963      8965      8962      8960      8963      8966
      8963      8966      8969      8970      8963      8966      8969      8971
      8963      8966      8969      8972      8964      8963      8966      8967
      8964      8963      8966      8968      8964      8963      8966      8969
      8965      8963      8966      8967      8965      8963      8966      8968
      8965      8963      8966      8969      8966      8969      8972      8973
      8966      8969      8972      8974      8966      8969      8972      8975
      8967      8966      8969      8970      8967      8966      8969      8971
      8967      8966      8969      8972      8968      8966      8969      8970
      8968      8966      8969      8971      8968      8966      8969      8972
      8969      8972      8975      8976      8969      8972      8975      8977
      8969      8972      8975      8978      8970      8969      8972      8973
      8970      8969      8972      8974      8970      8969      8972      8975
      8971      8969      8972      8973      8971      8969      8972      8974
      8971      8969      8972      8975      8973      8972      8975      8976
      8973      8972      8975      8977      8973      8972      8975      8978
      8974      8972      8975      8976      8974      8972      8975      8977
      8974      8972      8975      8978      2846      2850      2853      2854
      2846      2850      2853      2855      2846      2850      2853      2860
      2847      2846      2850      2851      2847      2846      2850      2852
      2847      2846      2850      2853      2848      2846      2850      2851
      2848      2846      2850      2852      2848      2846      2850      2853
      2849      2846      2850      2851      2849      2846      2850      2852
      2849      2846      2850      2853      2850      2853      2860      2856
      2851      2850      2853      2854      2851      2850      2853      2855
      2851      2850      2853      2860      2852      2850      2853      2854
      2852      2850      2853      2855      2852      2850      2853      2860
      2853      2860      2856      2857      2853      2860      2856      2858
      2853      2860      2856      2859      2854      2853      2860      2856
      2855      2853      2860      2856      2856      2859      2861      2862
      2856      2859      2861      2863      2856      2859      2861      2864
      2857      2856      2859      2861      2858      2856      2859      2861
      2859      2861      2864      2865      2859      2861      2864      2866
      2859      2861      2864      2872      2860      2856      2859      2861
      2861      2864      2866      2867      2861      2864      2872      2873
      2861      2864      2872      2874      2861      2864      2872      2875
      2862      2861      2864      2865      2862      2861      2864      2866
      2862      2861      2864      2872      2863      2861      2864      2865
      2863      2861      2864      2866      2863      2861      2864      2872
      2864      2866      2867      2868      2864      2866      2867      2869
      2864      2872      2875      2876      2865      2864      2866      2867
      2865      2864      2872      2873      2865      2864      2872      2874
      2865      2864      2872      2875      2866      2864      2872      2873
      2866      2864      2872      2874      2866      2864      2872      2875
      2866      2867      2869      2870      2866      2867      2869      2871
      2866      2867      2869      2881      2867      2866      2864      2872
      2867      2869      2881      2882      2867      2869      2881      2883
      2867      2869      2881      2884      2868      2867      2869      2870
      2868      2867      2869      2871      2868      2867      2869      2881
      2869      2881      2884      2885      2869      2881      2884      2886
      2869      2881      2884      2887      2870      2869      2881      2882
      2870      2869      2881      2883      2870      2869      2881      2884
      2871      2869      2881      2882      2871      2869      2881      2883
      2871      2869      2881      2884      2872      2875      2876      2877
      2872      2875      2876      2878      2873      2872      2875      2876
      2874      2872      2875      2876      2875      2876      2878      2879
      2875      2876      2878      2880      2875      2876      2878      2928
      2876      2878      2928      2929      2876      2878      2928      2930
      2876      2878      2928      2931      2877      2876      2878      2879
      2877      2876      2878      2880      2877      2876      2878      2928
      2878      2928      2931      2932      2878      2928      2931      2933
      2878      2928      2931      2934      2879      2878      2928      2929
      2879      2878      2928      2930      2879      2878      2928      2931
      2880      2878      2928      2929      2880      2878      2928      2930
      2880      2878      2928      2931      2881      2884      2887      2888
      2881      2884      2887      2889      2881      2884      2887      2890
      2882      2881      2884      2885      2882      2881      2884      2886
      2882      2881      2884      2887      2883      2881      2884      2885
      2883      2881      2884      2886      2883      2881      2884      2887
      2884      2887      2890      2891      2884      2887      2890      2892
      2884      2887      2890      2893      2885      2884      2887      2888
      2885      2884      2887      2889      2885      2884      2887      2890
      2886      2884      2887      2888      2886      2884      2887      2889
      2886      2884      2887      2890      2887      2890      2893      2894
      2887      2890      2893      2895      2887      2890      2893      2896
      2888      2887      2890      2891      2888      2887      2890      2892
      2888      2887      2890      2893      2889      2887      2890      2891
      2889      2887      2890      2892      2889      2887      2890      2893
      2890      2893      2896      2897      2890      2893      2896      2898
      2890      2893      2896      2899      2891      2890      2893      2894
      2891      2890      2893      2895      2891      2890      2893      2896
      2892      2890      2893      2894      2892      2890      2893      2895
      2892      2890      2893      2896      2893      2896      2899      2900
      2893      2896      2899      2901      2894      2893      2896      2897
      2894      2893      2896      2898      2894      2893      2896      2899
      2895      2893      2896      2897      2895      2893      2896      2898
      2895      2893      2896      2899      2896      2899      2901      2902
      2896      2899      2901      2903      2897      2896      2899      2900
      2897      2896      2899      2901      2898      2896      2899      2900
      2898      2896      2899      2901      2899      2901      2903      2904
      2899      2901      2903      2905      2899      2901      2903      2906
      2900      2899      2901      2902      2900      2899      2901      2903
      2901      2903      2906      2907      2901      2903      2906      2908
      2901      2903      2906      2909      2902      2901      2903      2904
      2902      2901      2903      2905      2902      2901      2903      2906
      2903      2906      2909      2910      2903      2906      2909      2911
      2903      2906      2909      2912      2904      2903      2906      2907
      2904      2903      2906      2908      2904      2903      2906      2909
      2905      2903      2906      2907      2905      2903      2906      2908
      2905      2903      2906      2909      2906      2909      2912      2913
      2906      2909      2912      2914      2906      2909      2912      2915
      2907      2906      2909      2910      2907      2906      2909      2911
      2907      2906      2909      2912      2908      2906      2909      2910
      2908      2906      2909      2911      2908      2906      2909      2912
      2909      2912      2915      2916      2909      2912      2915      2917
      2909      2912      2915      2918      2910      2909      2912      2913
      2910      2909      2912      2914      2910      2909      2912      2915
      2911      2909      2912      2913      2911      2909      2912      2914
      2911      2909      2912      2915      2912      2915      2918      2919
      2912      2915      2918      2920      2912      2915      2918      2921
      2913      2912      2915      2916      2913      2912      2915      2917
      2913      2912      2915      2918      2914      2912      2915      2916
      2914      2912      2915      2917      2914      2912      2915      2918
      2915      2918      2921      2922      2915      2918      2921      2923
      2915      2918      2921      2924      2916      2915      2918      2919
      2916      2915      2918      2920      2916      2915      2918      2921
      2917      2915      2918      2919      2917      2915      2918      2920
      2917      2915      2918      2921      2918      2921      2924      2925
      2918      2921      2924      2926      2918      2921      2924      2927
      2919      2918      2921      2922      2919      2918      2921      2923
      2919      2918      2921      2924      2920      2918      2921      2922
      2920      2918      2921      2923      2920      2918      2921      2924
      2922      2921      2924      2925      2922      2921      2924      2926
      2922      2921      2924      2927      2923      2921      2924      2925
      2923      2921      2924      2926      2923      2921      2924      2927
      2928      2931      2934      2935      2928      2931      2934      2936
      2928      2931      2934      2937      2929      2928      2931      2932
      2929      2928      2931      2933      2929      2928      2931      2934
      2930      2928      2931      2932      2930      2928      2931      2933
      2930      2928      2931      2934      2931      2934      2937      2938
      2931      2934      2937      2939      2931      2934      2937      2940
      2932      2931      2934      2935      2932      2931      2934      2936
      2932      2931      2934      2937      2933      2931      2934      2935
      2933      2931      2934      2936      2933      2931      2934      2937
      2934      2937      2940      2941      2934      2937      2940      2942
      2934      2937      2940      2943      2935      2934      2937      2938
      2935      2934      2937      2939      2935      2934      2937      2940
      2936      2934      2937      2938      2936      2934      2937      2939
      2936      2934      2937      2940      2937      2940      2943      2944
      2937      2940      2943      2945      2937      2940      2943      2946
      2938      2937      2940      2941      2938      2937      2940      2942
      2938      2937      2940      2943      2939      2937      2940      2941
      2939      2937      2940      2942      2939      2937      2940      2943
      2940      2943      2946      2947      2940      2943      2946      2948
      2940      2943      2946      2949      2941      2940      2943      2944
      2941      2940      2943      2945      2941      2940      2943      2946
      2942      2940      2943      2944      2942      2940      2943      2945
      2942      2940      2943      2946      2943      2946      2949      2950
      2943      2946      2949      2951      2943      2946      2949      2952
      2944      2943      2946      2947      2944      2943      2946      2948
      2944      2943      2946      2949      2945      2943      2946      2947
      2945      2943      2946      2948      2945      2943      2946      2949
      2946      2949      2952      2953      2946      2949      2952      2954
      2946      2949      2952      2955      2947      2946      2949      2950
      2947      2946      2949      2951      2947      2946      2949      2952
      2948      2946      2949      2950      2948      2946      2949      2951
      2948      2946      2949      2952      2949      2952      2955      2956
      2949      2952      2955      2957      2949      2952      2955      2958
      2950      2949      2952      2953      2950      2949      2952      2954
      2950      2949      2952      2955      2951      2949      2952      2953
      2951      2949      2952      2954      2951      2949      2952      2955
      2952      2955      2958      2959      2952      2955      2958      2960
      2952      2955      2958      2961      2953      2952      2955      2956
      2953      2952      2955      2957      2953      2952      2955      2958
      2954      2952      2955      2956      2954      2952      2955      2957
      2954      2952      2955      2958      2955      2958      2961      2962
      2955      2958      2961      2963      2955      2958      2961      2964
      2956      2955      2958      2959      2956      2955      2958      2960
      2956      2955      2958      2961      2957      2955      2958      2959
      2957      2955      2958      2960      2957      2955      2958      2961
      2958      2961      2964      2965      2958      2961      2964      2966
      2958      2961      2964      2967      2959      2958      2961      2962
      2959      2958      2961      2963      2959      2958      2961      2964
      2960      2958      2961      2962      2960      2958      2961      2963
      2960      2958      2961      2964      2961      2964      2967      2968
      2961      2964      2967      2969      2961      2964      2967      2970
      2962      2961      2964      2965      2962      2961      2964      2966
      2962      2961      2964      2967      2963      2961      2964      2965
      2963      2961      2964      2966      2963      2961      2964      2967
      2965      2964      2967      2968      2965      2964      2967      2969
      2965      2964      2967      2970      2966      2964      2967      2968
      2966      2964      2967      2969      2966      2964      2967      2970
      8979      8983      8985      8986      8979      8983      8985      8987
      8979      8983      8988      8989      8979      8983      8988      8990
      8979      8983      8988      8994      8980      8979      8983      8984
      8980      8979      8983      8985      8980      8979      8983      8988
      8981      8979      8983      8984      8981      8979      8983      8985
      8981      8979      8983      8988      8982      8979      8983      8984
      8982      8979      8983      8985      8982      8979      8983      8988
      8983      8988      8994      8991      8984      8983      8985      8986
      8984      8983      8985      8987      8984      8983      8988      8989
      8984      8983      8988      8990      8984      8983      8988      8994
      8985      8983      8988      8989      8985      8983      8988      8990
      8985      8983      8988      8994      8986      8985      8983      8988
      8987      8985      8983      8988      8988      8994      8991      8992
      8988      8994      8991      8993      8988      8994      8991      8995
      8989      8988      8994      8991      8990      8988      8994      8991
      8991      8995      8996      8997      8991      8995      8996      8998
      8991      8995      8996      8999      8992      8991      8995      8996
      8993      8991      8995      8996      8994      8991      8995      8996
      8995      8996      8999      9000      8995      8996      8999      9001
      8995      8996      8999      9007      8996      8999      9001      9002
      8996      8999      9007      9008      8996      8999      9007      9009
      8996      8999      9007      9010      8997      8996      8999      9000
      8997      8996      8999      9001      8997      8996      8999      9007
      8998      8996      8999      9000      8998      8996      8999      9001
      8998      8996      8999      9007      8999      9001      9002      9003
      8999      9001      9002      9004      8999      9007      9010      9011
      9000      8999      9001      9002      9000      8999      9007      9008
      9000      8999      9007      9009      9000      8999      9007      9010
      9001      8999      9007      9008      9001      8999      9007      9009
      9001      8999      9007      9010      9001      9002      9004      9005
      9001      9002      9004      9006      9001      9002      9004      9016
      9002      9001      8999      9007      9002      9004      9016      9017
      9002      9004      9016      9018      9002      9004      9016      9019
      9003      9002      9004      9005      9003      9002      9004      9006
      9003      9002      9004      9016      9004      9016      9019      9020
      9004      9016      9019      9021      9004      9016      9019      9022
      9005      9004      9016      9017      9005      9004      9016      9018
      9005      9004      9016      9019      9006      9004      9016      9017
      9006      9004      9016      9018      9006      9004      9016      9019
      9007      9010      9011      9012      9007      9010      9011      9013
      9008      9007      9010      9011      9009      9007      9010      9011
      9010      9011      9013      9014      9010      9011      9013      9015
      9010      9011      9013      9063      9011      9013      9063      9064
      9011      9013      9063      9065      9011      9013      9063      9066
      9012      9011      9013      9014      9012      9011      9013      9015
      9012      9011      9013      9063      9013      9063      9066      9067
      9013      9063      9066      9068      9013      9063      9066      9069
      9014      9013      9063      9064      9014      9013      9063      9065
      9014      9013      9063      9066      9015      9013      9063      9064
      9015      9013      9063      9065      9015      9013      9063      9066
      9016      9019      9022      9023      9016      9019      9022      9024
      9016      9019      9022      9025      9017      9016      9019      9020
      9017      9016      9019      9021      9017      9016      9019      9022
      9018      9016      9019      9020      9018      9016      9019      9021
      9018      9016      9019      9022      9019      9022      9025      9026
      9019      9022      9025      9027      9019      9022      9025      9028
      9020      9019      9022      9023      9020      9019      9022      9024
      9020      9019      9022      9025      9021      9019      9022      9023
      9021      9019      9022      9024      9021      9019      9022      9025
      9022      9025      9028      9029      9022      9025      9028      9030
      9022      9025      9028      9031      9023      9022      9025      9026
      9023      9022      9025      9027      9023      9022      9025      9028
      9024      9022      9025      9026      9024      9022      9025      9027
      9024      9022      9025      9028      9025      9028      9031      9032
      9025      9028      9031      9033      9025      9028      9031      9034
      9026      9025      9028      9029      9026      9025      9028      9030
      9026      9025      9028      9031      9027      9025      9028      9029
      9027      9025      9028      9030      9027      9025      9028      9031
      9028      9031      9034      9035      9028      9031      9034      9036
      9029      9028      9031      9032      9029      9028      9031      9033
      9029      9028      9031      9034      9030      9028      9031      9032
      9030      9028      9031      9033      9030      9028      9031      9034
      9031      9034      9036      9037      9031      9034      9036      9038
      9032      9031      9034      9035      9032      9031      9034      9036
      9033      9031      9034      9035      9033      9031      9034      9036
      9034      9036      9038      9039      9034      9036      9038      9040
      9034      9036      9038      9041      9035      9034      9036      9037
      9035      9034      9036      9038      9036      9038      9041      9042
      9036      9038      9041      9043      9036      9038      9041      9044
      9037      9036      9038      9039      9037      9036      9038      9040
      9037      9036      9038      9041      9038      9041      9044      9045
      9038      9041      9044      9046      9038      9041      9044      9047
      9039      9038      9041      9042      9039      9038      9041      9043
      9039      9038      9041      9044      9040      9038      9041      9042
      9040      9038      9041      9043      9040      9038      9041      9044
      9041      9044      9047      9048      9041      9044      9047      9049
      9041      9044      9047      9050      9042      9041      9044      9045
      9042      9041      9044      9046      9042      9041      9044      9047
      9043      9041      9044      9045      9043      9041      9044      9046
      9043      9041      9044      9047      9044      9047      9050      9051
      9044      9047      9050      9052      9044      9047      9050      9053
      9045      9044      9047      9048      9045      9044      9047      9049
      9045      9044      9047      9050      9046      9044      9047      9048
      9046      9044      9047      9049      9046      9044      9047      9050
      9047      9050      9053      9054      9047      9050      9053      9055
      9047      9050      9053      9056      9048      9047      9050      9051
      9048      9047      9050      9052      9048      9047      9050      9053
      9049      9047      9050      9051      9049      9047      9050      9052
      9049      9047      9050      9053      9050      9053      9056      9057
      9050      9053      9056      9058      9050      9053      9056      9059
      9051      9050      9053      9054      9051      9050      9053      9055
      9051      9050      9053      9056      9052      9050      9053      9054
      9052      9050      9053      9055      9052      9050      9053      9056
      9053      9056      9059      9060      9053      9056      9059      9061
      9053      9056      9059      9062      9054      9053      9056      9057
      9054      9053      9056      9058      9054      9053      9056      9059
      9055      9053      9056      9057      9055      9053      9056      9058
      9055      9053      9056      9059      9057      9056      9059      9060
      9057      9056      9059      9061      9057      9056      9059      9062
      9058      9056      9059      9060      9058      9056      9059      9061
      9058      9056      9059      9062      9063      9066      9069      9070
      9063      9066      9069      9071      9063      9066      9069      9072
      9064      9063      9066      9067      9064      9063      9066      9068
      9064      9063      9066      9069      9065      9063      9066      9067
      9065      9063      9066      9068      9065      9063      9066      9069
      9066      9069      9072      9073      9066      9069      9072      9074
      9066      9069      9072      9075      9067      9066      9069      9070
      9067      9066      9069      9071      9067      9066      9069      9072
      9068      9066      9069      9070      9068      9066      9069      9071
      9068      9066      9069      9072      9069      9072      9075      9076
      9069      9072      9075      9077      9069      9072      9075      9078
      9070      9069      9072      9073      9070      9069      9072      9074
      9070      9069      9072      9075      9071      9069      9072      9073
      9071      9069      9072      9074      9071      9069      9072      9075
      9072      9075      9078      9079      9072      9075      9078      9080
      9072      9075      9078      9081      9073      9072      9075      9076
      9073      9072      9075      9077      9073      9072      9075      9078
      9074      9072      9075      9076      9074      9072      9075      9077
      9074      9072      9075      9078      9075      9078      9081      9082
      9075      9078      9081      9083      9075      9078      9081      9084
      9076      9075      9078      9079      9076      9075      9078      9080
      9076      9075      9078      9081      9077      9075      9078      9079
      9077      9075      9078      9080      9077      9075      9078      9081
      9078      9081      9084      9085      9078      9081      9084      9086
      9078      9081      9084      9087      9079      9078      9081      9082
      9079      9078      9081      9083      9079      9078      9081      9084
      9080      9078      9081      9082      9080      9078      9081      9083
      9080      9078      9081      9084      9081      9084      9087      9088
      9081      9084      9087      9089      9081      9084      9087      9090
      9082      9081      9084      9085      9082      9081      9084      9086
      9082      9081      9084      9087      9083      9081      9084      9085
      9083      9081      9084      9086      9083      9081      9084      9087
      9084      9087      9090      9091      9084      9087      9090      9092
      9084      9087      9090      9093      9085      9084      9087      9088
      9085      9084      9087      9089      9085      9084      9087      9090
      9086      9084      9087      9088      9086      9084      9087      9089
      9086      9084      9087      9090      9087      9090      9093      9094
      9087      9090      9093      9095      9087      9090      9093      9096
      9088      9087      9090      9091      9088      9087      9090      9092
      9088      9087      9090      9093      9089      9087      9090      9091
      9089      9087      9090      9092      9089      9087      9090      9093
      9090      9093      9096      9097      9090      9093      9096      9098
      9090      9093      9096      9099      9091      9090      9093      9094
      9091      9090      9093      9095      9091      9090      9093      9096
      9092      9090      9093      9094      9092      9090      9093      9095
      9092      9090      9093      9096      9093      9096      9099      9100
      9093      9096      9099      9101      9093      9096      9099      9102
      9094      9093      9096      9097      9094      9093      9096      9098
      9094      9093      9096      9099      9095      9093      9096      9097
      9095      9093      9096      9098      9095      9093      9096      9099
      9096      9099      9102      9103      9096      9099      9102      9104
      9096      9099      9102      9105      9097      9096      9099      9100
      9097      9096      9099      9101      9097      9096      9099      9102
      9098      9096      9099      9100      9098      9096      9099      9101
      9098      9096      9099      9102      9100      9099      9102      9103
      9100      9099      9102      9104      9100      9099      9102      9105
      9101      9099      9102      9103      9101      9099      9102      9104
      9101      9099      9102      9105      9106      9110      9112      9113
      9106      9110      9112      9114      9106      9110      9115      9116
      9106      9110      9115      9117      9106      9110      9115      9121
      9107      9106      9110      9111      9107      9106      9110      9112
      9107      9106      9110      9115      9108      9106      9110      9111
      9108      9106      9110      9112      9108      9106      9110      9115
      9109      9106      9110      9111      9109      9106      9110      9112
      9109      9106      9110      9115      9110      9115      9121      9118
      9111      9110      9112      9113      9111      9110      9112      9114
      9111      9110      9115      9116      9111      9110      9115      9117
      9111      9110      9115      9121      9112      9110      9115      9116
      9112      9110      9115      9117      9112      9110      9115      9121
      9113      9112      9110      9115      9114      9112      9110      9115
      9115      9121      9118      9119      9115      9121      9118      9120
      9115      9121      9118      9122      9116      9115      9121      9118
      9117      9115      9121      9118      9118      9122      9123      9124
      9118      9122      9123      9125      9118      9122      9123      9126
      9119      9118      9122      9123      9120      9118      9122      9123
      9121      9118      9122      9123      9122      9123      9126      9127
      9122      9123      9126      9128      9122      9123      9126      9134
      9123      9126      9128      9129      9123      9126      9134      9135
      9123      9126      9134      9136      9123      9126      9134      9137
      9124      9123      9126      9127      9124      9123      9126      9128
      9124      9123      9126      9134      9125      9123      9126      9127
      9125      9123      9126      9128      9125      9123      9126      9134
      9126      9128      9129      9130      9126      9128      9129      9131
      9126      9134      9137      9138      9127      9126      9128      9129
      9127      9126      9134      9135      9127      9126      9134      9136
      9127      9126      9134      9137      9128      9126      9134      9135
      9128      9126      9134      9136      9128      9126      9134      9137
      9128      9129      9131      9132      9128      9129      9131      9133
      9128      9129      9131      9143      9129      9128      9126      9134
      9129      9131      9143      9144      9129      9131      9143      9145
      9129      9131      9143      9146      9130      9129      9131      9132
      9130      9129      9131      9133      9130      9129      9131      9143
      9131      9143      9146      9147      9131      9143      9146      9148
      9131      9143      9146      9149      9132      9131      9143      9144
      9132      9131      9143      9145      9132      9131      9143      9146
      9133      9131      9143      9144      9133      9131      9143      9145
      9133      9131      9143      9146      9134      9137      9138      9139
      9134      9137      9138      9140      9135      9134      9137      9138
      9136      9134      9137      9138      9137      9138      9140      9141
      9137      9138      9140      9142      9137      9138      9140      9190
      9138      9140      9190      9191      9138      9140      9190      9192
      9138      9140      9190      9193      9139      9138      9140      9141
      9139      9138      9140      9142      9139      9138      9140      9190
      9140      9190      9193      9194      9140      9190      9193      9195
      9140      9190      9193      9196      9141      9140      9190      9191
      9141      9140      9190      9192      9141      9140      9190      9193
      9142      9140      9190      9191      9142      9140      9190      9192
      9142      9140      9190      9193      9143      9146      9149      9150
      9143      9146      9149      9151      9143      9146      9149      9152
      9144      9143      9146      9147      9144      9143      9146      9148
      9144      9143      9146      9149      9145      9143      9146      9147
      9145      9143      9146      9148      9145      9143      9146      9149
      9146      9149      9152      9153      9146      9149      9152      9154
      9146      9149      9152      9155      9147      9146      9149      9150
      9147      9146      9149      9151      9147      9146      9149      9152
      9148      9146      9149      9150      9148      9146      9149      9151
      9148      9146      9149      9152      9149      9152      9155      9156
      9149      9152      9155      9157      9149      9152      9155      9158
      9150      9149      9152      9153      9150      9149      9152      9154
      9150      9149      9152      9155      9151      9149      9152      9153
      9151      9149      9152      9154      9151      9149      9152      9155
      9152      9155      9158      9159      9152      9155      9158      9160
      9152      9155      9158      9161      9153      9152      9155      9156
      9153      9152      9155      9157      9153      9152      9155      9158
      9154      9152      9155      9156      9154      9152      9155      9157
      9154      9152      9155      9158      9155      9158      9161      9162
      9155      9158      9161      9163      9156      9155      9158      9159
      9156      9155      9158      9160      9156      9155      9158      9161
      9157      9155      9158      9159      9157      9155      9158      9160
      9157      9155      9158      9161      9158      9161      9163      9164
      9158      9161      9163      9165      9159      9158      9161      9162
      9159      9158      9161      9163      9160      9158      9161      9162
      9160      9158      9161      9163      9161      9163      9165      9166
      9161      9163      9165      9167      9161      9163      9165      9168
      9162      9161      9163      9164      9162      9161      9163      9165
      9163      9165      9168      9169      9163      9165      9168      9170
      9163      9165      9168      9171      9164      9163      9165      9166
      9164      9163      9165      9167      9164      9163      9165      9168
      9165      9168      9171      9172      9165      9168      9171      9173
      9165      9168      9171      9174      9166      9165      9168      9169
      9166      9165      9168      9170      9166      9165      9168      9171
      9167      9165      9168      9169      9167      9165      9168      9170
      9167      9165      9168      9171      9168      9171      9174      9175
      9168      9171      9174      9176      9168      9171      9174      9177
      9169      9168      9171      9172      9169      9168      9171      9173
      9169      9168      9171      9174      9170      9168      9171      9172
      9170      9168      9171      9173      9170      9168      9171      9174
      9171      9174      9177      9178      9171      9174      9177      9179
      9171      9174      9177      9180      9172      9171      9174      9175
      9172      9171      9174      9176      9172      9171      9174      9177
      9173      9171      9174      9175      9173      9171      9174      9176
      9173      9171      9174      9177      9174      9177      9180      9181
      9174      9177      9180      9182      9174      9177      9180      9183
      9175      9174      9177      9178      9175      9174      9177      9179
      9175      9174      9177      9180      9176      9174      9177      9178
      9176      9174      9177      9179      9176      9174      9177      9180
      9177      9180      9183      9184      9177      9180      9183      9185
      9177      9180      9183      9186      9178      9177      9180      9181
      9178      9177      9180      9182      9178      9177      9180      9183
      9179      9177      9180      9181      9179      9177      9180      9182
      9179      9177      9180      9183      9180      9183      9186      9187
      9180      9183      9186      9188      9180      9183      9186      9189
      9181      9180      9183      9184      9181      9180      9183      9185
      9181      9180      9183      9186      9182      9180      9183      9184
      9182      9180      9183      9185      9182      9180      9183      9186
      9184      9183      9186      9187      9184      9183      9186      9188
      9184      9183      9186      9189      9185      9183      9186      9187
      9185      9183      9186      9188      9185      9183      9186      9189
      9190      9193      9196      9197      9190      9193      9196      9198
      9190      9193      9196      9199      9191      9190      9193      9194
      9191      9190      9193      9195      9191      9190      9193      9196
      9192      9190      9193      9194      9192      9190      9193      9195
      9192      9190      9193      9196      9193      9196      9199      9200
      9193      9196      9199      9201      9193      9196      9199      9202
      9194      9193      9196      9197      9194      9193      9196      9198
      9194      9193      9196      9199      9195      9193      9196      9197
      9195      9193      9196      9198      9195      9193      9196      9199
      9196      9199      9202      9203      9196      9199      9202      9204
      9196      9199      9202      9205      9197      9196      9199      9200
      9197      9196      9199      9201      9197      9196      9199      9202
      9198      9196      9199      9200      9198      9196      9199      9201
      9198      9196      9199      9202      9199      9202      9205      9206
      9199      9202      9205      9207      9199      9202      9205      9208
      9200      9199      9202      9203      9200      9199      9202      9204
      9200      9199      9202      9205      9201      9199      9202      9203
      9201      9199      9202      9204      9201      9199      9202      9205
      9202      9205      9208      9209      9202      9205      9208      9210
      9202      9205      9208      9211      9203      9202      9205      9206
      9203      9202      9205      9207      9203      9202      9205      9208
      9204      9202      9205      9206      9204      9202      9205      9207
      9204      9202      9205      9208      9205      9208      9211      9212
      9205      9208      9211      9213      9205      9208      9211      9214
      9206      9205      9208      9209      9206      9205      9208      9210
      9206      9205      9208      9211      9207      9205      9208      9209
      9207      9205      9208      9210      9207      9205      9208      9211
      9208      9211      9214      9215      9208      9211      9214      9216
      9208      9211      9214      9217      9209      9208      9211      9212
      9209      9208      9211      9213      9209      9208      9211      9214
      9210      9208      9211      9212      9210      9208      9211      9213
      9210      9208      9211      9214      9211      9214      9217      9218
      9211      9214      9217      9219      9211      9214      9217      9220
      9212      9211      9214      9215      9212      9211      9214      9216
      9212      9211      9214      9217      9213      9211      9214      9215
      9213      9211      9214      9216      9213      9211      9214      9217
      9214      9217      9220      9221      9214      9217      9220      9222
      9214      9217      9220      9223      9215      9214      9217      9218
      9215      9214      9217      9219      9215      9214      9217      9220
      9216      9214      9217      9218      9216      9214      9217      9219
      9216      9214      9217      9220      9217      9220      9223      9224
      9217      9220      9223      9225      9217      9220      9223      9226
      9218      9217      9220      9221      9218      9217      9220      9222
      9218      9217      9220      9223      9219      9217      9220      9221
      9219      9217      9220      9222      9219      9217      9220      9223
      9220      9223      9226      9227      9220      9223      9226      9228
      9220      9223      9226      9229      9221      9220      9223      9224
      9221      9220      9223      9225      9221      9220      9223      9226
      9222      9220      9223      9224      9222      9220      9223      9225
      9222      9220      9223      9226      9223      9226      9229      9230
      9223      9226      9229      9231      9223      9226      9229      9232
      9224      9223      9226      9227      9224      9223      9226      9228
      9224      9223      9226      9229      9225      9223      9226      9227
      9225      9223      9226      9228      9225      9223      9226      9229
      9227      9226      9229      9230      9227      9226      9229      9231
      9227      9226      9229      9232      9228      9226      9229      9230
      9228      9226      9229      9231      9228      9226      9229      9232
     14489     14490     14505     14506     14489     14490     14505     14507
     14489     14490     14505     14511     14490     14489     14493     14494
     14490     14489     14493     14495     14490     14489     14493     14496
     14490     14489     14497     14498     14490     14489     14497     14499
     14490     14489     14497     14500     14490     14489     14501     14502
     14490     14489     14501     14503     14490     14489     14501     14504
     14490     14505     14511     14508     14491     14490     14489     14493
     14491     14490     14489     14497     14491     14490     14489     14501
     14491     14490     14505     14506     14491     14490     14505     14507
     14491     14490     14505     14511     14492     14490     14489     14493
     14492     14490     14489     14497     14492     14490     14489     14501
     14492     14490     14505     14506     14492     14490     14505     14507
     14492     14490     14505     14511     14493     14489     14490     14505
     14493     14489     14497     14498     14493     14489     14497     14499
     14493     14489     14497     14500     14493     14489     14501     14502
     14493     14489     14501     14503     14493     14489     14501     14504
     14494     14493     14489     14497     14494     14493     14489     14501
     14495     14493     14489     14497     14495     14493     14489     14501
     14496     14493     14489     14497     14496     14493     14489     14501
     14497     14489     14490     14505     14497     14489     14501     14502
     14497     14489     14501     14503     14497     14489     14501     14504
     14498     14497     14489     14501     14499     14497     14489     14501
     14500     14497     14489     14501     14501     14489     14490     14505
     14505     14511     14508     14509     14505     14511     14508     14510
     14505     14511     14508     14512     14506     14505     14511     14508
     14507     14505     14511     14508     14508     14512     14513     14514
     14508     14512     14513     14515     14508     14512     14513     14516
     14509     14508     14512     14513     14510     14508     14512     14513
     14511     14508     14512     14513     14512     14513     14516     14517
     14512     14513     14516     14518     14512     14513     14516     14524
     14513     14516     14518     14519     14513     14516     14524     14525
     14513     14516     14524     14526     14513     14516     14524     14527
     14514     14513     14516     14517     14514     14513     14516     14518
     14514     14513     14516     14524     14515     14513     14516     14517
     14515     14513     14516     14518     14515     14513     14516     14524
     14516     14518     14519     14520     14516     14518     14519     14521
     14516     14524     14527     14528     14517     14516     14518     14519
     14517     14516     14524     14525     14517     14516     14524     14526
     14517     14516     14524     14527     14518     14516     14524     14525
     14518     14516     14524     14526     14518     14516     14524     14527
     14518     14519     14521     14522     14518     14519     14521     14523
     14518     14519     14521     14533     14519     14518     14516     14524
     14519     14521     14533     14534     14519     14521     14533     14535
     14519     14521     14533     14536     14520     14519     14521     14522
     14520     14519     14521     14523     14520     14519     14521     14533
     14521     14533     14536     14537     14521     14533     14536     14538
     14521     14533     14536     14539     14522     14521     14533     14534
     14522     14521     14533     14535     14522     14521     14533     14536
     14523     14521     14533     14534     14523     14521     14533     14535
     14523     14521     14533     14536     14524     14527     14528     14529
     14524     14527     14528     14530     14525     14524     14527     14528
     14526     14524     14527     14528     14527     14528     14530     14531
     14527     14528     14530     14532     14527     14528     14530     14580
     14528     14530     14580     14581     14528     14530     14580     14582
     14528     14530     14580     14583     14529     14528     14530     14531
     14529     14528     14530     14532     14529     14528     14530     14580
     14530     14580     14583     14584     14530     14580     14583     14585
     14530     14580     14583     14586     14531     14530     14580     14581
     14531     14530     14580     14582     14531     14530     14580     14583
     14532     14530     14580     14581     14532     14530     14580     14582
     14532     14530     14580     14583     14533     14536     14539     14540
     14533     14536     14539     14541     14533     14536     14539     14542
     14534     14533     14536     14537     14534     14533     14536     14538
     14534     14533     14536     14539     14535     14533     14536     14537
     14535     14533     14536     14538     14535     14533     14536     14539
     14536     14539     14542     14543     14536     14539     14542     14544
     14536     14539     14542     14545     14537     14536     14539     14540
     14537     14536     14539     14541     14537     14536     14539     14542
     14538     14536     14539     14540     14538     14536     14539     14541
     14538     14536     14539     14542     14539     14542     14545     14546
     14539     14542     14545     14547     14539     14542     14545     14548
     14540     14539     14542     14543     14540     14539     14542     14544
     14540     14539     14542     14545     14541     14539     14542     14543
     14541     14539     14542     14544     14541     14539     14542     14545
     14542     14545     14548     14549     14542     14545     14548     14550
     14542     14545     14548     14551     14543     14542     14545     14546
     14543     14542     14545     14547     14543     14542     14545     14548
     14544     14542     14545     14546     14544     14542     14545     14547
     14544     14542     14545     14548     14545     14548     14551     14552
     14545     14548     14551     14553     14546     14545     14548     14549
     14546     14545     14548     14550     14546     14545     14548     14551
     14547     14545     14548     14549     14547     14545     14548     14550
     14547     14545     14548     14551     14548     14551     14553     14554
     14548     14551     14553     14555     14549     14548     14551     14552
     14549     14548     14551     14553     14550     14548     14551     14552
     14550     14548     14551     14553     14551     14553     14555     14556
     14551     14553     14555     14557     14551     14553     14555     14558
     14552     14551     14553     14554     14552     14551     14553     14555
     14553     14555     14558     14559     14553     14555     14558     14560
     14553     14555     14558     14561     14554     14553     14555     14556
     14554     14553     14555     14557     14554     14553     14555     14558
     14555     14558     14561     14562     14555     14558     14561     14563
     14555     14558     14561     14564     14556     14555     14558     14559
     14556     14555     14558     14560     14556     14555     14558     14561
     14557     14555     14558     14559     14557     14555     14558     14560
     14557     14555     14558     14561     14558     14561     14564     14565
     14558     14561     14564     14566     14558     14561     14564     14567
     14559     14558     14561     14562     14559     14558     14561     14563
     14559     14558     14561     14564     14560     14558     14561     14562
     14560     14558     14561     14563     14560     14558     14561     14564
     14561     14564     14567     14568     14561     14564     14567     14569
     14561     14564     14567     14570     14562     14561     14564     14565
     14562     14561     14564     14566     14562     14561     14564     14567
     14563     14561     14564     14565     14563     14561     14564     14566
     14563     14561     14564     14567     14564     14567     14570     14571
     14564     14567     14570     14572     14564     14567     14570     14573
     14565     14564     14567     14568     14565     14564     14567     14569
     14565     14564     14567     14570     14566     14564     14567     14568
     14566     14564     14567     14569     14566     14564     14567     14570
     14567     14570     14573     14574     14567     14570     14573     14575
     14567     14570     14573     14576     14568     14567     14570     14571
     14568     14567     14570     14572     14568     14567     14570     14573
     14569     14567     14570     14571     14569     14567     14570     14572
     14569     14567     14570     14573     14570     14573     14576     14577
     14570     14573     14576     14578     14570     14573     14576     14579
     14571     14570     14573     14574     14571     14570     14573     14575
     14571     14570     14573     14576     14572     14570     14573     14574
     14572     14570     14573     14575     14572     14570     14573     14576
     14574     14573     14576     14577     14574     14573     14576     14578
     14574     14573     14576     14579     14575     14573     14576     14577
     14575     14573     14576     14578     14575     14573     14576     14579
     14580     14583     14586     14587     14580     14583     14586     14588
     14580     14583     14586     14589     14581     14580     14583     14584
     14581     14580     14583     14585     14581     14580     14583     14586
     14582     14580     14583     14584     14582     14580     14583     14585
     14582     14580     14583     14586     14583     14586     14589     14590
     14583     14586     14589     14591     14583     14586     14589     14592
     14584     14583     14586     14587     14584     14583     14586     14588
     14584     14583     14586     14589     14585     14583     14586     14587
     14585     14583     14586     14588     14585     14583     14586     14589
     14586     14589     14592     14593     14586     14589     14592     14594
     14586     14589     14592     14595     14587     14586     14589     14590
     14587     14586     14589     14591     14587     14586     14589     14592
     14588     14586     14589     14590     14588     14586     14589     14591
     14588     14586     14589     14592     14589     14592     14595     14596
     14589     14592     14595     14597     14589     14592     14595     14598
     14590     14589     14592     14593     14590     14589     14592     14594
     14590     14589     14592     14595     14591     14589     14592     14593
     14591     14589     14592     14594     14591     14589     14592     14595
     14592     14595     14598     14599     14592     14595     14598     14600
     14592     14595     14598     14601     14593     14592     14595     14596
     14593     14592     14595     14597     14593     14592     14595     14598
     14594     14592     14595     14596     14594     14592     14595     14597
     14594     14592     14595     14598     14595     14598     14601     14602
     14595     14598     14601     14603     14595     14598     14601     14604
     14596     14595     14598     14599     14596     14595     14598     14600
     14596     14595     14598     14601     14597     14595     14598     14599
     14597     14595     14598     14600     14597     14595     14598     14601
     14598     14601     14604     14605     14598     14601     14604     14606
     14598     14601     14604     14607     14599     14598     14601     14602
     14599     14598     14601     14603     14599     14598     14601     14604
     14600     14598     14601     14602     14600     14598     14601     14603
     14600     14598     14601     14604     14601     14604     14607     14608
     14601     14604     14607     14609     14601     14604     14607     14610
     14602     14601     14604     14605     14602     14601     14604     14606
     14602     14601     14604     14607     14603     14601     14604     14605
     14603     14601     14604     14606     14603     14601     14604     14607
     14604     14607     14610     14611     14604     14607     14610     14612
     14604     14607     14610     14613     14605     14604     14607     14608
     14605     14604     14607     14609     14605     14604     14607     14610
     14606     14604     14607     14608     14606     14604     14607     14609
     14606     14604     14607     14610     14607     14610     14613     14614
     14607     14610     14613     14615     14607     14610     14613     14616
     14608     14607     14610     14611     14608     14607     14610     14612
     14608     14607     14610     14613     14609     14607     14610     14611
     14609     14607     14610     14612     14609     14607     14610     14613
     14610     14613     14616     14617     14610     14613     14616     14618
     14610     14613     14616     14619     14611     14610     14613     14614
     14611     14610     14613     14615     14611     14610     14613     14616
     14612     14610     14613     14614     14612     14610     14613     14615
     14612     14610     14613     14616     14613     14616     14619     14620
     14613     14616     14619     14621     14613     14616     14619     14622
     14614     14613     14616     14617     14614     14613     14616     14618
     14614     14613     14616     14619     14615     14613     14616     14617
     14615     14613     14616     14618     14615     14613     14616     14619
     14617     14616     14619     14620     14617     14616     14619     14621
     14617     14616     14619     14622     14618     14616     14619     14620
     14618     14616     14619     14621     14618     14616     14619     14622
     14623     14624     14639     14640     14623     14624     14639     14641
     14623     14624     14639     14645     14624     14623     14627     14628
     14624     14623     14627     14629     14624     14623     14627     14630
     14624     14623     14631     14632     14624     14623     14631     14633
     14624     14623     14631     14634     14624     14623     14635     14636
     14624     14623     14635     14637     14624     14623     14635     14638
     14624     14639     14645     14642     14625     14624     14623     14627
     14625     14624     14623     14631     14625     14624     14623     14635
     14625     14624     14639     14640     14625     14624     14639     14641
     14625     14624     14639     14645     14626     14624     14623     14627
     14626     14624     14623     14631     14626     14624     14623     14635
     14626     14624     14639     14640     14626     14624     14639     14641
     14626     14624     14639     14645     14627     14623     14624     14639
     14627     14623     14631     14632     14627     14623     14631     14633
     14627     14623     14631     14634     14627     14623     14635     14636
     14627     14623     14635     14637     14627     14623     14635     14638
     14628     14627     14623     14631     14628     14627     14623     14635
     14629     14627     14623     14631     14629     14627     14623     14635
     14630     14627     14623     14631     14630     14627     14623     14635
     14631     14623     14624     14639     14631     14623     14635     14636
     14631     14623     14635     14637     14631     14623     14635     14638
     14632     14631     14623     14635     14633     14631     14623     14635
     14634     14631     14623     14635     14635     14623     14624     14639
     14639     14645     14642     14643     14639     14645     14642     14644
     14639     14645     14642     14646     14640     14639     14645     14642
     14641     14639     14645     14642     14642     14646     14647     14648
     14642     14646     14647     14649     14642     14646     14647     14650
     14643     14642     14646     14647     14644     14642     14646     14647
     14645     14642     14646     14647     14646     14647     14650     14651
     14646     14647     14650     14652     14646     14647     14650     14658
     14647     14650     14652     14653     14647     14650     14658     14659
     14647     14650     14658     14660     14647     14650     14658     14661
     14648     14647     14650     14651     14648     14647     14650     14652
     14648     14647     14650     14658     14649     14647     14650     14651
     14649     14647     14650     14652     14649     14647     14650     14658
     14650     14652     14653     14654     14650     14652     14653     14655
     14650     14658     14661     14662     14651     14650     14652     14653
     14651     14650     14658     14659     14651     14650     14658     14660
     14651     14650     14658     14661     14652     14650     14658     14659
     14652     14650     14658     14660     14652     14650     14658     14661
     14652     14653     14655     14656     14652     14653     14655     14657
     14652     14653     14655     14667     14653     14652     14650     14658
     14653     14655     14667     14668     14653     14655     14667     14669
     14653     14655     14667     14670     14654     14653     14655     14656
     14654     14653     14655     14657     14654     14653     14655     14667
     14655     14667     14670     14671     14655     14667     14670     14672
     14655     14667     14670     14673     14656     14655     14667     14668
     14656     14655     14667     14669     14656     14655     14667     14670
     14657     14655     14667     14668     14657     14655     14667     14669
     14657     14655     14667     14670     14658     14661     14662     14663
     14658     14661     14662     14664     14659     14658     14661     14662
     14660     14658     14661     14662     14661     14662     14664     14665
     14661     14662     14664     14666     14661     14662     14664     14714
     14662     14664     14714     14715     14662     14664     14714     14716
     14662     14664     14714     14717     14663     14662     14664     14665
     14663     14662     14664     14666     14663     14662     14664     14714
     14664     14714     14717     14718     14664     14714     14717     14719
     14664     14714     14717     14720     14665     14664     14714     14715
     14665     14664     14714     14716     14665     14664     14714     14717
     14666     14664     14714     14715     14666     14664     14714     14716
     14666     14664     14714     14717     14667     14670     14673     14674
     14667     14670     14673     14675     14667     14670     14673     14676
     14668     14667     14670     14671     14668     14667     14670     14672
     14668     14667     14670     14673     14669     14667     14670     14671
     14669     14667     14670     14672     14669     14667     14670     14673
     14670     14673     14676     14677     14670     14673     14676     14678
     14670     14673     14676     14679     14671     14670     14673     14674
     14671     14670     14673     14675     14671     14670     14673     14676
     14672     14670     14673     14674     14672     14670     14673     14675
     14672     14670     14673     14676     14673     14676     14679     14680
     14673     14676     14679     14681     14673     14676     14679     14682
     14674     14673     14676     14677     14674     14673     14676     14678
     14674     14673     14676     14679     14675     14673     14676     14677
     14675     14673     14676     14678     14675     14673     14676     14679
     14676     14679     14682     14683     14676     14679     14682     14684
     14676     14679     14682     14685     14677     14676     14679     14680
     14677     14676     14679     14681     14677     14676     14679     14682
     14678     14676     14679     14680     14678     14676     14679     14681
     14678     14676     14679     14682     14679     14682     14685     14686
     14679     14682     14685     14687     14680     14679     14682     14683
     14680     14679     14682     14684     14680     14679     14682     14685
     14681     14679     14682     14683     14681     14679     14682     14684
     14681     14679     14682     14685     14682     14685     14687     14688
     14682     14685     14687     14689     14683     14682     14685     14686
     14683     14682     14685     14687     14684     14682     14685     14686
     14684     14682     14685     14687     14685     14687     14689     14690
     14685     14687     14689     14691     14685     14687     14689     14692
     14686     14685     14687     14688     14686     14685     14687     14689
     14687     14689     14692     14693     14687     14689     14692     14694
     14687     14689     14692     14695     14688     14687     14689     14690
     14688     14687     14689     14691     14688     14687     14689     14692
     14689     14692     14695     14696     14689     14692     14695     14697
     14689     14692     14695     14698     14690     14689     14692     14693
     14690     14689     14692     14694     14690     14689     14692     14695
     14691     14689     14692     14693     14691     14689     14692     14694
     14691     14689     14692     14695     14692     14695     14698     14699
     14692     14695     14698     14700     14692     14695     14698     14701
     14693     14692     14695     14696     14693     14692     14695     14697
     14693     14692     14695     14698     14694     14692     14695     14696
     14694     14692     14695     14697     14694     14692     14695     14698
     14695     14698     14701     14702     14695     14698     14701     14703
     14695     14698     14701     14704     14696     14695     14698     14699
     14696     14695     14698     14700     14696     14695     14698     14701
     14697     14695     14698     14699     14697     14695     14698     14700
     14697     14695     14698     14701     14698     14701     14704     14705
     14698     14701     14704     14706     14698     14701     14704     14707
     14699     14698     14701     14702     14699     14698     14701     14703
     14699     14698     14701     14704     14700     14698     14701     14702
     14700     14698     14701     14703     14700     14698     14701     14704
     14701     14704     14707     14708     14701     14704     14707     14709
     14701     14704     14707     14710     14702     14701     14704     14705
     14702     14701     14704     14706     14702     14701     14704     14707
     14703     14701     14704     14705     14703     14701     14704     14706
     14703     14701     14704     14707     14704     14707     14710     14711
     14704     14707     14710     14712     14704     14707     14710     14713
     14705     14704     14707     14708     14705     14704     14707     14709
     14705     14704     14707     14710     14706     14704     14707     14708
     14706     14704     14707     14709     14706     14704     14707     14710
     14708     14707     14710     14711     14708     14707     14710     14712
     14708     14707     14710     14713     14709     14707     14710     14711
     14709     14707     14710     14712     14709     14707     14710     14713
     14714     14717     14720     14721     14714     14717     14720     14722
     14714     14717     14720     14723     14715     14714     14717     14718
     14715     14714     14717     14719     14715     14714     14717     14720
     14716     14714     14717     14718     14716     14714     14717     14719
     14716     14714     14717     14720     14717     14720     14723     14724
     14717     14720     14723     14725     14717     14720     14723     14726
     14718     14717     14720     14721     14718     14717     14720     14722
     14718     14717     14720     14723     14719     14717     14720     14721
     14719     14717     14720     14722     14719     14717     14720     14723
     14720     14723     14726     14727     14720     14723     14726     14728
     14720     14723     14726     14729     14721     14720     14723     14724
     14721     14720     14723     14725     14721     14720     14723     14726
     14722     14720     14723     14724     14722     14720     14723     14725
     14722     14720     14723     14726     14723     14726     14729     14730
     14723     14726     14729     14731     14723     14726     14729     14732
     14724     14723     14726     14727     14724     14723     14726     14728
     14724     14723     14726     14729     14725     14723     14726     14727
     14725     14723     14726     14728     14725     14723     14726     14729
     14726     14729     14732     14733     14726     14729     14732     14734
     14726     14729     14732     14735     14727     14726     14729     14730
     14727     14726     14729     14731     14727     14726     14729     14732
     14728     14726     14729     14730     14728     14726     14729     14731
     14728     14726     14729     14732     14729     14732     14735     14736
     14729     14732     14735     14737     14729     14732     14735     14738
     14730     14729     14732     14733     14730     14729     14732     14734
     14730     14729     14732     14735     14731     14729     14732     14733
     14731     14729     14732     14734     14731     14729     14732     14735
     14732     14735     14738     14739     14732     14735     14738     14740
     14732     14735     14738     14741     14733     14732     14735     14736
     14733     14732     14735     14737     14733     14732     14735     14738
     14734     14732     14735     14736     14734     14732     14735     14737
     14734     14732     14735     14738     14735     14738     14741     14742
     14735     14738     14741     14743     14735     14738     14741     14744
     14736     14735     14738     14739     14736     14735     14738     14740
     14736     14735     14738     14741     14737     14735     14738     14739
     14737     14735     14738     14740     14737     14735     14738     14741
     14738     14741     14744     14745     14738     14741     14744     14746
     14738     14741     14744     14747     14739     14738     14741     14742
     14739     14738     14741     14743     14739     14738     14741     14744
     14740     14738     14741     14742     14740     14738     14741     14743
     14740     14738     14741     14744     14741     14744     14747     14748
     14741     14744     14747     14749     14741     14744     14747     14750
     14742     14741     14744     14745     14742     14741     14744     14746
     14742     14741     14744     14747     14743     14741     14744     14745
     14743     14741     14744     14746     14743     14741     14744     14747
     14744     14747     14750     14751     14744     14747     14750     14752
     14744     14747     14750     14753     14745     14744     14747     14748
     14745     14744     14747     14749     14745     14744     14747     14750
     14746     14744     14747     14748     14746     14744     14747     14749
     14746     14744     14747     14750     14747     14750     14753     14754
     14747     14750     14753     14755     14747     14750     14753     14756
     14748     14747     14750     14751     14748     14747     14750     14752
     14748     14747     14750     14753     14749     14747     14750     14751
     14749     14747     14750     14752     14749     14747     14750     14753
     14751     14750     14753     14754     14751     14750     14753     14755
     14751     14750     14753     14756     14752     14750     14753     14754
     14752     14750     14753     14755     14752     14750     14753     14756
      2971      2975      2978      2979      2971      2975      2978      2980
      2971      2975      2978      2985      2972      2971      2975      2976
      2972      2971      2975      2977      2972      2971      2975      2978
      2973      2971      2975      2976      2973      2971      2975      2977
      2973      2971      2975      2978      2974      2971      2975      2976
      2974      2971      2975      2977      2974      2971      2975      2978
      2975      2978      2985      2981      2976      2975      2978      2979
      2976      2975      2978      2980      2976      2975      2978      2985
      2977      2975      2978      2979      2977      2975      2978      2980
      2977      2975      2978      2985      2978      2985      2981      2982
      2978      2985      2981      2983      2978      2985      2981      2984
      2979      2978      2985      2981      2980      2978      2985      2981
      2981      2984      2986      2987      2981      2984      2986      2988
      2981      2984      2986      2989      2982      2981      2984      2986
      2983      2981      2984      2986      2984      2986      2989      2990
      2984      2986      2989      2991      2984      2986      2989      2997
      2985      2981      2984      2986      2986      2989      2991      2992
      2986      2989      2997      2998      2986      2989      2997      2999
      2986      2989      2997      3000      2987      2986      2989      2990
      2987      2986      2989      2991      2987      2986      2989      2997
      2988      2986      2989      2990      2988      2986      2989      2991
      2988      2986      2989      2997      2989      2991      2992      2993
      2989      2991      2992      2994      2989      2997      3000      3001
      2990      2989      2991      2992      2990      2989      2997      2998
      2990      2989      2997      2999      2990      2989      2997      3000
      2991      2989      2997      2998      2991      2989      2997      2999
      2991      2989      2997      3000      2991      2992      2994      2995
      2991      2992      2994      2996      2991      2992      2994      3006
      2992      2991      2989      2997      2992      2994      3006      3007
      2992      2994      3006      3008      2992      2994      3006      3009
      2993      2992      2994      2995      2993      2992      2994      2996
      2993      2992      2994      3006      2994      3006      3009      3010
      2994      3006      3009      3011      2994      3006      3009      3012
      2995      2994      3006      3007      2995      2994      3006      3008
      2995      2994      3006      3009      2996      2994      3006      3007
      2996      2994      3006      3008      2996      2994      3006      3009
      2997      3000      3001      3002      2997      3000      3001      3003
      2998      2997      3000      3001      2999      2997      3000      3001
      3000      3001      3003      3004      3000      3001      3003      3005
      3000      3001      3003      3053      3001      3003      3053      3054
      3001      3003      3053      3055      3001      3003      3053      3056
      3002      3001      3003      3004      3002      3001      3003      3005
      3002      3001      3003      3053      3003      3053      3056      3057
      3003      3053      3056      3058      3003      3053      3056      3059
      3004      3003      3053      3054      3004      3003      3053      3055
      3004      3003      3053      3056      3005      3003      3053      3054
      3005      3003      3053      3055      3005      3003      3053      3056
      3006      3009      3012      3013      3006      3009      3012      3014
      3006      3009      3012      3015      3007      3006      3009      3010
      3007      3006      3009      3011      3007      3006      3009      3012
      3008      3006      3009      3010      3008      3006      3009      3011
      3008      3006      3009      3012      3009      3012      3015      3016
      3009      3012      3015      3017      3009      3012      3015      3018
      3010      3009      3012      3013      3010      3009      3012      3014
      3010      3009      3012      3015      3011      3009      3012      3013
      3011      3009      3012      3014      3011      3009      3012      3015
      3012      3015      3018      3019      3012      3015      3018      3020
      3012      3015      3018      3021      3013      3012      3015      3016
      3013      3012      3015      3017      3013      3012      3015      3018
      3014      3012      3015      3016      3014      3012      3015      3017
      3014      3012      3015      3018      3015      3018      3021      3022
      3015      3018      3021      3023      3015      3018      3021      3024
      3016      3015      3018      3019      3016      3015      3018      3020
      3016      3015      3018      3021      3017      3015      3018      3019
      3017      3015      3018      3020      3017      3015      3018      3021
      3018      3021      3024      3025      3018      3021      3024      3026
      3019      3018      3021      3022      3019      3018      3021      3023
      3019      3018      3021      3024      3020      3018      3021      3022
      3020      3018      3021      3023      3020      3018      3021      3024
      3021      3024      3026      3027      3021      3024      3026      3028
      3022      3021      3024      3025      3022      3021      3024      3026
      3023      3021      3024      3025      3023      3021      3024      3026
      3024      3026      3028      3029      3024      3026      3028      3030
      3024      3026      3028      3031      3025      3024      3026      3027
      3025      3024      3026      3028      3026      3028      3031      3032
      3026      3028      3031      3033      3026      3028      3031      3034
      3027      3026      3028      3029      3027      3026      3028      3030
      3027      3026      3028      3031      3028      3031      3034      3035
      3028      3031      3034      3036      3028      3031      3034      3037
      3029      3028      3031      3032      3029      3028      3031      3033
      3029      3028      3031      3034      3030      3028      3031      3032
      3030      3028      3031      3033      3030      3028      3031      3034
      3031      3034      3037      3038      3031      3034      3037      3039
      3031      3034      3037      3040      3032      3031      3034      3035
      3032      3031      3034      3036      3032      3031      3034      3037
      3033      3031      3034      3035      3033      3031      3034      3036
      3033      3031      3034      3037      3034      3037      3040      3041
      3034      3037      3040      3042      3034      3037      3040      3043
      3035      3034      3037      3038      3035      3034      3037      3039
      3035      3034      3037      3040      3036      3034      3037      3038
      3036      3034      3037      3039      3036      3034      3037      3040
      3037      3040      3043      3044      3037      3040      3043      3045
      3037      3040      3043      3046      3038      3037      3040      3041
      3038      3037      3040      3042      3038      3037      3040      3043
      3039      3037      3040      3041      3039      3037      3040      3042
      3039      3037      3040      3043      3040      3043      3046      3047
      3040      3043      3046      3048      3040      3043      3046      3049
      3041      3040      3043      3044      3041      3040      3043      3045
      3041      3040      3043      3046      3042      3040      3043      3044
      3042      3040      3043      3045      3042      3040      3043      3046
      3043      3046      3049      3050      3043      3046      3049      3051
      3043      3046      3049      3052      3044      3043      3046      3047
      3044      3043      3046      3048      3044      3043      3046      3049
      3045      3043      3046      3047      3045      3043      3046      3048
      3045      3043      3046      3049      3047      3046      3049      3050
      3047      3046      3049      3051      3047      3046      3049      3052
      3048      3046      3049      3050      3048      3046      3049      3051
      3048      3046      3049      3052      3053      3056      3059      3060
      3053      3056      3059      3061      3053      3056      3059      3062
      3054      3053      3056      3057      3054      3053      3056      3058
      3054      3053      3056      3059      3055      3053      3056      3057
      3055      3053      3056      3058      3055      3053      3056      3059
      3056      3059      3062      3063      3056      3059      3062      3064
      3056      3059      3062      3065      3057      3056      3059      3060
      3057      3056      3059      3061      3057      3056      3059      3062
      3058      3056      3059      3060      3058      3056      3059      3061
      3058      3056      3059      3062      3059      3062      3065      3066
      3059      3062      3065      3067      3059      3062      3065      3068
      3060      3059      3062      3063      3060      3059      3062      3064
      3060      3059      3062      3065      3061      3059      3062      3063
      3061      3059      3062      3064      3061      3059      3062      3065
      3062      3065      3068      3069      3062      3065      3068      3070
      3062      3065      3068      3071      3063      3062      3065      3066
      3063      3062      3065      3067      3063      3062      3065      3068
      3064      3062      3065      3066      3064      3062      3065      3067
      3064      3062      3065      3068      3065      3068      3071      3072
      3065      3068      3071      3073      3065      3068      3071      3074
      3066      3065      3068      3069      3066      3065      3068      3070
      3066      3065      3068      3071      3067      3065      3068      3069
      3067      3065      3068      3070      3067      3065      3068      3071
      3068      3071      3074      3075      3068      3071      3074      3076
      3068      3071      3074      3077      3069      3068      3071      3072
      3069      3068      3071      3073      3069      3068      3071      3074
      3070      3068      3071      3072      3070      3068      3071      3073
      3070      3068      3071      3074      3071      3074      3077      3078
      3071      3074      3077      3079      3071      3074      3077      3080
      3072      3071      3074      3075      3072      3071      3074      3076
      3072      3071      3074      3077      3073      3071      3074      3075
      3073      3071      3074      3076      3073      3071      3074      3077
      3074      3077      3080      3081      3074      3077      3080      3082
      3074      3077      3080      3083      3075      3074      3077      3078
      3075      3074      3077      3079      3075      3074      3077      3080
      3076      3074      3077      3078      3076      3074      3077      3079
      3076      3074      3077      3080      3077      3080      3083      3084
      3077      3080      3083      3085      3077      3080      3083      3086
      3078      3077      3080      3081      3078      3077      3080      3082
      3078      3077      3080      3083      3079      3077      3080      3081
      3079      3077      3080      3082      3079      3077      3080      3083
      3080      3083      3086      3087      3080      3083      3086      3088
      3080      3083      3086      3089      3081      3080      3083      3084
      3081      3080      3083      3085      3081      3080      3083      3086
      3082      3080      3083      3084      3082      3080      3083      3085
      3082      3080      3083      3086      3083      3086      3089      3090
      3083      3086      3089      3091      3083      3086      3089      3092
      3084      3083      3086      3087      3084      3083      3086      3088
      3084      3083      3086      3089      3085      3083      3086      3087
      3085      3083      3086      3088      3085      3083      3086      3089
      3086      3089      3092      3093      3086      3089      3092      3094
      3086      3089      3092      3095      3087      3086      3089      3090
      3087      3086      3089      3091      3087      3086      3089      3092
      3088      3086      3089      3090      3088      3086      3089      3091
      3088      3086      3089      3092      3090      3089      3092      3093
      3090      3089      3092      3094      3090      3089      3092      3095
      3091      3089      3092      3093      3091      3089      3092      3094
      3091      3089      3092      3095       445       449       452       453
       445       449       452       483       445       491       488       483
       445       491       488       489       445       491       488       490
       446       445       447       448       446       445       449       450
       446       445       449       451       446       445       449       452
       446       445       491       488       446       445       491       492
       446       445       491       493       447       445       449       450
       447       445       449       451       447       445       449       452
       447       445       491       488       447       445       491       492
       447       445       491       493       448       447       445       449
       448       447       445       491       449       445       491       488
       449       445       491       492       449       445       491       493
       449       452       453       454       449       452       453       455
       449       452       483       481       449       452       483       484
       449       452       483       488       450       449       445       491
       450       449       452       453       450       449       452       483
       451       449       445       491       451       449       452       453
       451       449       452       483       452       449       445       491
       452       453       455       456       452       453       455       457
       452       453       455       458       452       483       481       458
       452       483       481       478       452       483       481       482
       452       483       484       485       452       483       484       486
       452       483       484       487       452       483       488       489
       452       483       488       490       452       483       488       491
       453       452       483       481       453       452       483       484
       453       452       483       488       453       455       458       459
       453       455       458       460       453       455       458       481
       454       453       452       483       454       453       455       456
       454       453       455       457       454       453       455       458
       455       453       452       483       455       458       460       461
       455       458       460       462       455       458       460       470
       455       458       481       478       455       458       481       482
       455       458       481       483       456       455       458       459
       456       455       458       460       456       455       458       481
       457       455       458       459       457       455       458       460
       457       455       458       481       458       460       462       463
       458       460       462       464       458       460       462       465
       458       460       470       468       458       460       470       471
       458       460       470       475       458       481       478       475
       458       481       478       479       458       481       478       480
       458       481       483       484       458       481       483       488
       459       458       460       461       459       458       460       462
       459       458       460       470       459       458       481       478
       459       458       481       482       459       458       481       483
       460       458       481       478       460       458       481       482
       460       458       481       483       460       462       465       466
       460       462       465       467       460       462       465       468
       460       470       468       465       460       470       468       469
       460       470       468       494       460       470       471       472
       460       470       471       473       460       470       471       474
       460       470       475       476       460       470       475       477
       460       470       475       478       461       460       458       481
       461       460       462       463       461       460       462       464
       461       460       462       465       461       460       470       468
       461       460       470       471       461       460       470       475
       462       460       458       481       462       460       470       468
       462       460       470       471       462       460       470       475
       462       465       468       469       462       465       468       470
       462       465       468       494       463       462       460       470
       463       462       465       466       463       462       465       467
       463       462       465       468       464       462       460       470
       464       462       465       466       464       462       465       467
       464       462       465       468       465       462       460       470
       465       468       470       471       465       468       470       475
       465       468       494       495       465       468       494       496
       465       468       494       500       466       465       468       469
       466       465       468       470       466       465       468       494
       467       465       468       469       467       465       468       470
       467       465       468       494       468       470       471       472
       468       470       471       473       468       470       471       474
       468       470       475       476       468       470       475       477
       468       470       475       478       468       494       496       497
       468       494       496       498       468       494       496       499
       468       494       500       501       468       494       500       502
       468       494       500       503       469       468       470       471
       469       468       470       475       469       468       494       495
       469       468       494       496       469       468       494       500
       470       460       458       481       470       468       494       495
       470       468       494       496       470       468       494       500
       470       475       478       479       470       475       478       480
       470       475       478       481       471       470       468       494
       471       470       475       476       471       470       475       477
       471       470       475       478       472       471       470       475
       473       471       470       475       474       471       470       475
       475       470       468       494       475       478       481       482
       475       478       481       483       476       475       478       479
       476       475       478       480       476       475       478       481
       477       475       478       479       477       475       478       480
       477       475       478       481       478       481       483       484
       478       481       483       488       479       478       481       482
       479       478       481       483       480       478       481       482
       480       478       481       483       481       483       484       485
       481       483       484       486       481       483       484       487
       481       483       488       489       481       483       488       490
       481       483       488       491       482       481       483       484
       482       481       483       488       483       488       491       492
       483       488       491       493       484       483       488       489
       484       483       488       490       484       483       488       491
       485       484       483       488       486       484       483       488
       487       484       483       488       489       488       491       492
       489       488       491       493       490       488       491       492
       490       488       491       493       494       500       503       504
       494       500       503       505       494       500       503       506
       495       494       496       497       495       494       496       498
       495       494       496       499       495       494       500       501
       495       494       500       502       495       494       500       503
       496       494       500       501       496       494       500       502
       496       494       500       503       497       496       494       500
       498       496       494       500       499       496       494       500
       500       503       506       507       500       503       506       508
       500       503       506       509       501       500       503       504
       501       500       503       505       501       500       503       506
       502       500       503       504       502       500       503       505
       502       500       503       506       503       506       509       510
       503       506       509       511       503       506       509       515
       504       503       506       507       504       503       506       508
       504       503       506       509       505       503       506       507
       505       503       506       508       505       503       506       509
       506       509       511       512       506       509       511       513
       506       509       511       514       506       509       515       516
       506       509       515       517       506       509       515       518
       507       506       509       510       507       506       509       511
       507       506       509       515       508       506       509       510
       508       506       509       511       508       506       509       515
       510       509       511       512       510       509       511       513
       510       509       511       514       510       509       515       516
       510       509       515       517       510       509       515       518
       511       509       515       516       511       509       515       517
       511       509       515       518       512       511       509       515
       513       511       509       515       514       511       509       515
      3096      3100      3103      3104      3096      3100      3103      3105
      3096      3100      3103      3110      3097      3096      3100      3101
      3097      3096      3100      3102      3097      3096      3100      3103
      3098      3096      3100      3101      3098      3096      3100      3102
      3098      3096      3100      3103      3099      3096      3100      3101
      3099      3096      3100      3102      3099      3096      3100      3103
      3100      3103      3110      3106      3101      3100      3103      3104
      3101      3100      3103      3105      3101      3100      3103      3110
      3102      3100      3103      3104      3102      3100      3103      3105
      3102      3100      3103      3110      3103      3110      3106      3107
      3103      3110      3106      3108      3103      3110      3106      3109
      3104      3103      3110      3106      3105      3103      3110      3106
      3106      3109      3111      3112      3106      3109      3111      3113
      3106      3109      3111      3114      3107      3106      3109      3111
      3108      3106      3109      3111      3109      3111      3114      3115
      3109      3111      3114      3116      3109      3111      3114      3122
      3110      3106      3109      3111      3111      3114      3116      3117
      3111      3114      3122      3123      3111      3114      3122      3124
      3111      3114      3122      3125      3112      3111      3114      3115
      3112      3111      3114      3116      3112      3111      3114      3122
      3113      3111      3114      3115      3113      3111      3114      3116
      3113      3111      3114      3122      3114      3116      3117      3118
      3114      3116      3117      3119      3114      3122      3125      3126
      3115      3114      3116      3117      3115      3114      3122      3123
      3115      3114      3122      3124      3115      3114      3122      3125
      3116      3114      3122      3123      3116      3114      3122      3124
      3116      3114      3122      3125      3116      3117      3119      3120
      3116      3117      3119      3121      3116      3117      3119      3131
      3117      3116      3114      3122      3117      3119      3131      3132
      3117      3119      3131      3133      3117      3119      3131      3134
      3118      3117      3119      3120      3118      3117      3119      3121
      3118      3117      3119      3131      3119      3131      3134      3135
      3119      3131      3134      3136      3119      3131      3134      3137
      3120      3119      3131      3132      3120      3119      3131      3133
      3120      3119      3131      3134      3121      3119      3131      3132
      3121      3119      3131      3133      3121      3119      3131      3134
      3122      3125      3126      3127      3122      3125      3126      3128
      3123      3122      3125      3126      3124      3122      3125      3126
      3125      3126      3128      3129      3125      3126      3128      3130
      3125      3126      3128      3178      3126      3128      3178      3179
      3126      3128      3178      3180      3126      3128      3178      3181
      3127      3126      3128      3129      3127      3126      3128      3130
      3127      3126      3128      3178      3128      3178      3181      3182
      3128      3178      3181      3183      3128      3178      3181      3184
      3129      3128      3178      3179      3129      3128      3178      3180
      3129      3128      3178      3181      3130      3128      3178      3179
      3130      3128      3178      3180      3130      3128      3178      3181
      3131      3134      3137      3138      3131      3134      3137      3139
      3131      3134      3137      3140      3132      3131      3134      3135
      3132      3131      3134      3136      3132      3131      3134      3137
      3133      3131      3134      3135      3133      3131      3134      3136
      3133      3131      3134      3137      3134      3137      3140      3141
      3134      3137      3140      3142      3134      3137      3140      3143
      3135      3134      3137      3138      3135      3134      3137      3139
      3135      3134      3137      3140      3136      3134      3137      3138
      3136      3134      3137      3139      3136      3134      3137      3140
      3137      3140      3143      3144      3137      3140      3143      3145
      3137      3140      3143      3146      3138      3137      3140      3141
      3138      3137      3140      3142      3138      3137      3140      3143
      3139      3137      3140      3141      3139      3137      3140      3142
      3139      3137      3140      3143      3140      3143      3146      3147
      3140      3143      3146      3148      3140      3143      3146      3149
      3141      3140      3143      3144      3141      3140      3143      3145
      3141      3140      3143      3146      3142      3140      3143      3144
      3142      3140      3143      3145      3142      3140      3143      3146
      3143      3146      3149      3150      3143      3146      3149      3151
      3144      3143      3146      3147      3144      3143      3146      3148
      3144      3143      3146      3149      3145      3143      3146      3147
      3145      3143      3146      3148      3145      3143      3146      3149
      3146      3149      3151      3152      3146      3149      3151      3153
      3147      3146      3149      3150      3147      3146      3149      3151
      3148      3146      3149      3150      3148      3146      3149      3151
      3149      3151      3153      3154      3149      3151      3153      3155
      3149      3151      3153      3156      3150      3149      3151      3152
      3150      3149      3151      3153      3151      3153      3156      3157
      3151      3153      3156      3158      3151      3153      3156      3159
      3152      3151      3153      3154      3152      3151      3153      3155
      3152      3151      3153      3156      3153      3156      3159      3160
      3153      3156      3159      3161      3153      3156      3159      3162
      3154      3153      3156      3157      3154      3153      3156      3158
      3154      3153      3156      3159      3155      3153      3156      3157
      3155      3153      3156      3158      3155      3153      3156      3159
      3156      3159      3162      3163      3156      3159      3162      3164
      3156      3159      3162      3165      3157      3156      3159      3160
      3157      3156      3159      3161      3157      3156      3159      3162
      3158      3156      3159      3160      3158      3156      3159      3161
      3158      3156      3159      3162      3159      3162      3165      3166
      3159      3162      3165      3167      3159      3162      3165      3168
      3160      3159      3162      3163      3160      3159      3162      3164
      3160      3159      3162      3165      3161      3159      3162      3163
      3161      3159      3162      3164      3161      3159      3162      3165
      3162      3165      3168      3169      3162      3165      3168      3170
      3162      3165      3168      3171      3163      3162      3165      3166
      3163      3162      3165      3167      3163      3162      3165      3168
      3164      3162      3165      3166      3164      3162      3165      3167
      3164      3162      3165      3168      3165      3168      3171      3172
      3165      3168      3171      3173      3165      3168      3171      3174
      3166      3165      3168      3169      3166      3165      3168      3170
      3166      3165      3168      3171      3167      3165      3168      3169
      3167      3165      3168      3170      3167      3165      3168      3171
      3168      3171      3174      3175      3168      3171      3174      3176
      3168      3171      3174      3177      3169      3168      3171      3172
      3169      3168      3171      3173      3169      3168      3171      3174
      3170      3168      3171      3172      3170      3168      3171      3173
      3170      3168      3171      3174      3172      3171      3174      3175
      3172      3171      3174      3176      3172      3171      3174      3177
      3173      3171      3174      3175      3173      3171      3174      3176
      3173      3171      3174      3177      3178      3181      3184      3185
      3178      3181      3184      3186      3178      3181      3184      3187
      3179      3178      3181      3182      3179      3178      3181      3183
      3179      3178      3181      3184      3180      3178      3181      3182
      3180      3178      3181      3183      3180      3178      3181      3184
      3181      3184      3187      3188      3181      3184      3187      3189
      3181      3184      3187      3190      3182      3181      3184      3185
      3182      3181      3184      3186      3182      3181      3184      3187
      3183      3181      3184      3185      3183      3181      3184      3186
      3183      3181      3184      3187      3184      3187      3190      3191
      3184      3187      3190      3192      3184      3187      3190      3193
      3185      3184      3187      3188      3185      3184      3187      3189
      3185      3184      3187      3190      3186      3184      3187      3188
      3186      3184      3187      3189      3186      3184      3187      3190
      3187      3190      3193      3194      3187      3190      3193      3195
      3187      3190      3193      3196      3188      3187      3190      3191
      3188      3187      3190      3192      3188      3187      3190      3193
      3189      3187      3190      3191      3189      3187      3190      3192
      3189      3187      3190      3193      3190      3193      3196      3197
      3190      3193      3196      3198      3190      3193      3196      3199
      3191      3190      3193      3194      3191      3190      3193      3195
      3191      3190      3193      3196      3192      3190      3193      3194
      3192      3190      3193      3195      3192      3190      3193      3196
      3193      3196      3199      3200      3193      3196      3199      3201
      3193      3196      3199      3202      3194      3193      3196      3197
      3194      3193      3196      3198      3194      3193      3196      3199
      3195      3193      3196      3197      3195      3193      3196      3198
      3195      3193      3196      3199      3196      3199      3202      3203
      3196      3199      3202      3204      3196      3199      3202      3205
      3197      3196      3199      3200      3197      3196      3199      3201
      3197      3196      3199      3202      3198      3196      3199      3200
      3198      3196      3199      3201      3198      3196      3199      3202
      3199      3202      3205      3206      3199      3202      3205      3207
      3199      3202      3205      3208      3200      3199      3202      3203
      3200      3199      3202      3204      3200      3199      3202      3205
      3201      3199      3202      3203      3201      3199      3202      3204
      3201      3199      3202      3205      3202      3205      3208      3209
      3202      3205      3208      3210      3202      3205      3208      3211
      3203      3202      3205      3206      3203      3202      3205      3207
      3203      3202      3205      3208      3204      3202      3205      3206
      3204      3202      3205      3207      3204      3202      3205      3208
      3205      3208      3211      3212      3205      3208      3211      3213
      3205      3208      3211      3214      3206      3205      3208      3209
      3206      3205      3208      3210      3206      3205      3208      3211
      3207      3205      3208      3209      3207      3205      3208      3210
      3207      3205      3208      3211      3208      3211      3214      3215
      3208      3211      3214      3216      3208      3211      3214      3217
      3209      3208      3211      3212      3209      3208      3211      3213
      3209      3208      3211      3214      3210      3208      3211      3212
      3210      3208      3211      3213      3210      3208      3211      3214
      3211      3214      3217      3218      3211      3214      3217      3219
      3211      3214      3217      3220      3212      3211      3214      3215
      3212      3211      3214      3216      3212      3211      3214      3217
      3213      3211      3214      3215      3213      3211      3214      3216
      3213      3211      3214      3217      3215      3214      3217      3218
      3215      3214      3217      3219      3215      3214      3217      3220
      3216      3214      3217      3218      3216      3214      3217      3219
      3216      3214      3217      3220      9233      9237      9239      9240
      9233      9237      9239      9241      9233      9237      9242      9243
      9233      9237      9242      9244      9233      9237      9242      9248
      9234      9233      9237      9238      9234      9233      9237      9239
      9234      9233      9237      9242      9235      9233      9237      9238
      9235      9233      9237      9239      9235      9233      9237      9242
      9236      9233      9237      9238      9236      9233      9237      9239
      9236      9233      9237      9242      9237      9242      9248      9245
      9238      9237      9239      9240      9238      9237      9239      9241
      9238      9237      9242      9243      9238      9237      9242      9244
      9238      9237      9242      9248      9239      9237      9242      9243
      9239      9237      9242      9244      9239      9237      9242      9248
      9240      9239      9237      9242      9241      9239      9237      9242
      9242      9248      9245      9246      9242      9248      9245      9247
      9242      9248      9245      9249      9243      9242      9248      9245
      9244      9242      9248      9245      9245      9249      9250      9251
      9245      9249      9250      9252      9245      9249      9250      9253
      9246      9245      9249      9250      9247      9245      9249      9250
      9248      9245      9249      9250      9249      9250      9253      9254
      9249      9250      9253      9255      9249      9250      9253      9261
      9250      9253      9255      9256      9250      9253      9261      9262
      9250      9253      9261      9263      9250      9253      9261      9264
      9251      9250      9253      9254      9251      9250      9253      9255
      9251      9250      9253      9261      9252      9250      9253      9254
      9252      9250      9253      9255      9252      9250      9253      9261
      9253      9255      9256      9257      9253      9255      9256      9258
      9253      9261      9264      9265      9254      9253      9255      9256
      9254      9253      9261      9262      9254      9253      9261      9263
      9254      9253      9261      9264      9255      9253      9261      9262
      9255      9253      9261      9263      9255      9253      9261      9264
      9255      9256      9258      9259      9255      9256      9258      9260
      9255      9256      9258      9270      9256      9255      9253      9261
      9256      9258      9270      9271      9256      9258      9270      9272
      9256      9258      9270      9273      9257      9256      9258      9259
      9257      9256      9258      9260      9257      9256      9258      9270
      9258      9270      9273      9274      9258      9270      9273      9275
      9258      9270      9273      9276      9259      9258      9270      9271
      9259      9258      9270      9272      9259      9258      9270      9273
      9260      9258      9270      9271      9260      9258      9270      9272
      9260      9258      9270      9273      9261      9264      9265      9266
      9261      9264      9265      9267      9262      9261      9264      9265
      9263      9261      9264      9265      9264      9265      9267      9268
      9264      9265      9267      9269      9264      9265      9267      9317
      9265      9267      9317      9318      9265      9267      9317      9319
      9265      9267      9317      9320      9266      9265      9267      9268
      9266      9265      9267      9269      9266      9265      9267      9317
      9267      9317      9320      9321      9267      9317      9320      9322
      9267      9317      9320      9323      9268      9267      9317      9318
      9268      9267      9317      9319      9268      9267      9317      9320
      9269      9267      9317      9318      9269      9267      9317      9319
      9269      9267      9317      9320      9270      9273      9276      9277
      9270      9273      9276      9278      9270      9273      9276      9279
      9271      9270      9273      9274      9271      9270      9273      9275
      9271      9270      9273      9276      9272      9270      9273      9274
      9272      9270      9273      9275      9272      9270      9273      9276
      9273      9276      9279      9280      9273      9276      9279      9281
      9273      9276      9279      9282      9274      9273      9276      9277
      9274      9273      9276      9278      9274      9273      9276      9279
      9275      9273      9276      9277      9275      9273      9276      9278
      9275      9273      9276      9279      9276      9279      9282      9283
      9276      9279      9282      9284      9276      9279      9282      9285
      9277      9276      9279      9280      9277      9276      9279      9281
      9277      9276      9279      9282      9278      9276      9279      9280
      9278      9276      9279      9281      9278      9276      9279      9282
      9279      9282      9285      9286      9279      9282      9285      9287
      9279      9282      9285      9288      9280      9279      9282      9283
      9280      9279      9282      9284      9280      9279      9282      9285
      9281      9279      9282      9283      9281      9279      9282      9284
      9281      9279      9282      9285      9282      9285      9288      9289
      9282      9285      9288      9290      9283      9282      9285      9286
      9283      9282      9285      9287      9283      9282      9285      9288
      9284      9282      9285      9286      9284      9282      9285      9287
      9284      9282      9285      9288      9285      9288      9290      9291
      9285      9288      9290      9292      9286      9285      9288      9289
      9286      9285      9288      9290      9287      9285      9288      9289
      9287      9285      9288      9290      9288      9290      9292      9293
      9288      9290      9292      9294      9288      9290      9292      9295
      9289      9288      9290      9291      9289      9288      9290      9292
      9290      9292      9295      9296      9290      9292      9295      9297
      9290      9292      9295      9298      9291      9290      9292      9293
      9291      9290      9292      9294      9291      9290      9292      9295
      9292      9295      9298      9299      9292      9295      9298      9300
      9292      9295      9298      9301      9293      9292      9295      9296
      9293      9292      9295      9297      9293      9292      9295      9298
      9294      9292      9295      9296      9294      9292      9295      9297
      9294      9292      9295      9298      9295      9298      9301      9302
      9295      9298      9301      9303      9295      9298      9301      9304
      9296      9295      9298      9299      9296      9295      9298      9300
      9296      9295      9298      9301      9297      9295      9298      9299
      9297      9295      9298      9300      9297      9295      9298      9301
      9298      9301      9304      9305      9298      9301      9304      9306
      9298      9301      9304      9307      9299      9298      9301      9302
      9299      9298      9301      9303      9299      9298      9301      9304
      9300      9298      9301      9302      9300      9298      9301      9303
      9300      9298      9301      9304      9301      9304      9307      9308
      9301      9304      9307      9309      9301      9304      9307      9310
      9302      9301      9304      9305      9302      9301      9304      9306
      9302      9301      9304      9307      9303      9301      9304      9305
      9303      9301      9304      9306      9303      9301      9304      9307
      9304      9307      9310      9311      9304      9307      9310      9312
      9304      9307      9310      9313      9305      9304      9307      9308
      9305      9304      9307      9309      9305      9304      9307      9310
      9306      9304      9307      9308      9306      9304      9307      9309
      9306      9304      9307      9310      9307      9310      9313      9314
      9307      9310      9313      9315      9307      9310      9313      9316
      9308      9307      9310      9311      9308      9307      9310      9312
      9308      9307      9310      9313      9309      9307      9310      9311
      9309      9307      9310      9312      9309      9307      9310      9313
      9311      9310      9313      9314      9311      9310      9313      9315
      9311      9310      9313      9316      9312      9310      9313      9314
      9312      9310      9313      9315      9312      9310      9313      9316
      9317      9320      9323      9324      9317      9320      9323      9325
      9317      9320      9323      9326      9318      9317      9320      9321
      9318      9317      9320      9322      9318      9317      9320      9323
      9319      9317      9320      9321      9319      9317      9320      9322
      9319      9317      9320      9323      9320      9323      9326      9327
      9320      9323      9326      9328      9320      9323      9326      9329
      9321      9320      9323      9324      9321      9320      9323      9325
      9321      9320      9323      9326      9322      9320      9323      9324
      9322      9320      9323      9325      9322      9320      9323      9326
      9323      9326      9329      9330      9323      9326      9329      9331
      9323      9326      9329      9332      9324      9323      9326      9327
      9324      9323      9326      9328      9324      9323      9326      9329
      9325      9323      9326      9327      9325      9323      9326      9328
      9325      9323      9326      9329      9326      9329      9332      9333
      9326      9329      9332      9334      9326      9329      9332      9335
      9327      9326      9329      9330      9327      9326      9329      9331
      9327      9326      9329      9332      9328      9326      9329      9330
      9328      9326      9329      9331      9328      9326      9329      9332
      9329      9332      9335      9336      9329      9332      9335      9337
      9329      9332      9335      9338      9330      9329      9332      9333
      9330      9329      9332      9334      9330      9329      9332      9335
      9331      9329      9332      9333      9331      9329      9332      9334
      9331      9329      9332      9335      9332      9335      9338      9339
      9332      9335      9338      9340      9332      9335      9338      9341
      9333      9332      9335      9336      9333      9332      9335      9337
      9333      9332      9335      9338      9334      9332      9335      9336
      9334      9332      9335      9337      9334      9332      9335      9338
      9335      9338      9341      9342      9335      9338      9341      9343
      9335      9338      9341      9344      9336      9335      9338      9339
      9336      9335      9338      9340      9336      9335      9338      9341
      9337      9335      9338      9339      9337      9335      9338      9340
      9337      9335      9338      9341      9338      9341      9344      9345
      9338      9341      9344      9346      9338      9341      9344      9347
      9339      9338      9341      9342      9339      9338      9341      9343
      9339      9338      9341      9344      9340      9338      9341      9342
      9340      9338      9341      9343      9340      9338      9341      9344
      9341      9344      9347      9348      9341      9344      9347      9349
      9341      9344      9347      9350      9342      9341      9344      9345
      9342      9341      9344      9346      9342      9341      9344      9347
      9343      9341      9344      9345      9343      9341      9344      9346
      9343      9341      9344      9347      9344      9347      9350      9351
      9344      9347      9350      9352      9344      9347      9350      9353
      9345      9344      9347      9348      9345      9344      9347      9349
      9345      9344      9347      9350      9346      9344      9347      9348
      9346      9344      9347      9349      9346      9344      9347      9350
      9347      9350      9353      9354      9347      9350      9353      9355
      9347      9350      9353      9356      9348      9347      9350      9351
      9348      9347      9350      9352      9348      9347      9350      9353
      9349      9347      9350      9351      9349      9347      9350      9352
      9349      9347      9350      9353      9350      9353      9356      9357
      9350      9353      9356      9358      9350      9353      9356      9359
      9351      9350      9353      9354      9351      9350      9353      9355
      9351      9350      9353      9356      9352      9350      9353      9354
      9352      9350      9353      9355      9352      9350      9353      9356
      9354      9353      9356      9357      9354      9353      9356      9358
      9354      9353      9356      9359      9355      9353      9356      9357
      9355      9353      9356      9358      9355      9353      9356      9359
      3221      3225      3228      3229      3221      3225      3228      3230
      3221      3225      3228      3235      3222      3221      3225      3226
      3222      3221      3225      3227      3222      3221      3225      3228
      3223      3221      3225      3226      3223      3221      3225      3227
      3223      3221      3225      3228      3224      3221      3225      3226
      3224      3221      3225      3227      3224      3221      3225      3228
      3225      3228      3235      3231      3226      3225      3228      3229
      3226      3225      3228      3230      3226      3225      3228      3235
      3227      3225      3228      3229      3227      3225      3228      3230
      3227      3225      3228      3235      3228      3235      3231      3232
      3228      3235      3231      3233      3228      3235      3231      3234
      3229      3228      3235      3231      3230      3228      3235      3231
      3231      3234      3236      3237      3231      3234      3236      3238
      3231      3234      3236      3239      3232      3231      3234      3236
      3233      3231      3234      3236      3234      3236      3239      3240
      3234      3236      3239      3241      3234      3236      3239      3247
      3235      3231      3234      3236      3236      3239      3241      3242
      3236      3239      3247      3248      3236      3239      3247      3249
      3236      3239      3247      3250      3237      3236      3239      3240
      3237      3236      3239      3241      3237      3236      3239      3247
      3238      3236      3239      3240      3238      3236      3239      3241
      3238      3236      3239      3247      3239      3241      3242      3243
      3239      3241      3242      3244      3239      3247      3250      3251
      3240      3239      3241      3242      3240      3239      3247      3248
      3240      3239      3247      3249      3240      3239      3247      3250
      3241      3239      3247      3248      3241      3239      3247      3249
      3241      3239      3247      3250      3241      3242      3244      3245
      3241      3242      3244      3246      3241      3242      3244      3256
      3242      3241      3239      3247      3242      3244      3256      3257
      3242      3244      3256      3258      3242      3244      3256      3259
      3243      3242      3244      3245      3243      3242      3244      3246
      3243      3242      3244      3256      3244      3256      3259      3260
      3244      3256      3259      3261      3244      3256      3259      3262
      3245      3244      3256      3257      3245      3244      3256      3258
      3245      3244      3256      3259      3246      3244      3256      3257
      3246      3244      3256      3258      3246      3244      3256      3259
      3247      3250      3251      3252      3247      3250      3251      3253
      3248      3247      3250      3251      3249      3247      3250      3251
      3250      3251      3253      3254      3250      3251      3253      3255
      3250      3251      3253      3303      3251      3253      3303      3304
      3251      3253      3303      3305      3251      3253      3303      3306
      3252      3251      3253      3254      3252      3251      3253      3255
      3252      3251      3253      3303      3253      3303      3306      3307
      3253      3303      3306      3308      3253      3303      3306      3309
      3254      3253      3303      3304      3254      3253      3303      3305
      3254      3253      3303      3306      3255      3253      3303      3304
      3255      3253      3303      3305      3255      3253      3303      3306
      3256      3259      3262      3263      3256      3259      3262      3264
      3256      3259      3262      3265      3257      3256      3259      3260
      3257      3256      3259      3261      3257      3256      3259      3262
      3258      3256      3259      3260      3258      3256      3259      3261
      3258      3256      3259      3262      3259      3262      3265      3266
      3259      3262      3265      3267      3259      3262      3265      3268
      3260      3259      3262      3263      3260      3259      3262      3264
      3260      3259      3262      3265      3261      3259      3262      3263
      3261      3259      3262      3264      3261      3259      3262      3265
      3262      3265      3268      3269      3262      3265      3268      3270
      3262      3265      3268      3271      3263      3262      3265      3266
      3263      3262      3265      3267      3263      3262      3265      3268
      3264      3262      3265      3266      3264      3262      3265      3267
      3264      3262      3265      3268      3265      3268      3271      3272
      3265      3268      3271      3273      3265      3268      3271      3274
      3266      3265      3268      3269      3266      3265      3268      3270
      3266      3265      3268      3271      3267      3265      3268      3269
      3267      3265      3268      3270      3267      3265      3268      3271
      3268      3271      3274      3275      3268      3271      3274      3276
      3269      3268      3271      3272      3269      3268      3271      3273
      3269      3268      3271      3274      3270      3268      3271      3272
      3270      3268      3271      3273      3270      3268      3271      3274
      3271      3274      3276      3277      3271      3274      3276      3278
      3272      3271      3274      3275      3272      3271      3274      3276
      3273      3271      3274      3275      3273      3271      3274      3276
      3274      3276      3278      3279      3274      3276      3278      3280
      3274      3276      3278      3281      3275      3274      3276      3277
      3275      3274      3276      3278      3276      3278      3281      3282
      3276      3278      3281      3283      3276      3278      3281      3284
      3277      3276      3278      3279      3277      3276      3278      3280
      3277      3276      3278      3281      3278      3281      3284      3285
      3278      3281      3284      3286      3278      3281      3284      3287
      3279      3278      3281      3282      3279      3278      3281      3283
      3279      3278      3281      3284      3280      3278      3281      3282
      3280      3278      3281      3283      3280      3278      3281      3284
      3281      3284      3287      3288      3281      3284      3287      3289
      3281      3284      3287      3290      3282      3281      3284      3285
      3282      3281      3284      3286      3282      3281      3284      3287
      3283      3281      3284      3285      3283      3281      3284      3286
      3283      3281      3284      3287      3284      3287      3290      3291
      3284      3287      3290      3292      3284      3287      3290      3293
      3285      3284      3287      3288      3285      3284      3287      3289
      3285      3284      3287      3290      3286      3284      3287      3288
      3286      3284      3287      3289      3286      3284      3287      3290
      3287      3290      3293      3294      3287      3290      3293      3295
      3287      3290      3293      3296      3288      3287      3290      3291
      3288      3287      3290      3292      3288      3287      3290      3293
      3289      3287      3290      3291      3289      3287      3290      3292
      3289      3287      3290      3293      3290      3293      3296      3297
      3290      3293      3296      3298      3290      3293      3296      3299
      3291      3290      3293      3294      3291      3290      3293      3295
      3291      3290      3293      3296      3292      3290      3293      3294
      3292      3290      3293      3295      3292      3290      3293      3296
      3293      3296      3299      3300      3293      3296      3299      3301
      3293      3296      3299      3302      3294      3293      3296      3297
      3294      3293      3296      3298      3294      3293      3296      3299
      3295      3293      3296      3297      3295      3293      3296      3298
      3295      3293      3296      3299      3297      3296      3299      3300
      3297      3296      3299      3301      3297      3296      3299      3302
      3298      3296      3299      3300      3298      3296      3299      3301
      3298      3296      3299      3302      3303      3306      3309      3310
      3303      3306      3309      3311      3303      3306      3309      3312
      3304      3303      3306      3307      3304      3303      3306      3308
      3304      3303      3306      3309      3305      3303      3306      3307
      3305      3303      3306      3308      3305      3303      3306      3309
      3306      3309      3312      3313      3306      3309      3312      3314
      3306      3309      3312      3315      3307      3306      3309      3310
      3307      3306      3309      3311      3307      3306      3309      3312
      3308      3306      3309      3310      3308      3306      3309      3311
      3308      3306      3309      3312      3309      3312      3315      3316
      3309      3312      3315      3317      3309      3312      3315      3318
      3310      3309      3312      3313      3310      3309      3312      3314
      3310      3309      3312      3315      3311      3309      3312      3313
      3311      3309      3312      3314      3311      3309      3312      3315
      3312      3315      3318      3319      3312      3315      3318      3320
      3312      3315      3318      3321      3313      3312      3315      3316
      3313      3312      3315      3317      3313      3312      3315      3318
      3314      3312      3315      3316      3314      3312      3315      3317
      3314      3312      3315      3318      3315      3318      3321      3322
      3315      3318      3321      3323      3315      3318      3321      3324
      3316      3315      3318      3319      3316      3315      3318      3320
      3316      3315      3318      3321      3317      3315      3318      3319
      3317      3315      3318      3320      3317      3315      3318      3321
      3318      3321      3324      3325      3318      3321      3324      3326
      3318      3321      3324      3327      3319      3318      3321      3322
      3319      3318      3321      3323      3319      3318      3321      3324
      3320      3318      3321      3322      3320      3318      3321      3323
      3320      3318      3321      3324      3321      3324      3327      3328
      3321      3324      3327      3329      3321      3324      3327      3330
      3322      3321      3324      3325      3322      3321      3324      3326
      3322      3321      3324      3327      3323      3321      3324      3325
      3323      3321      3324      3326      3323      3321      3324      3327
      3324      3327      3330      3331      3324      3327      3330      3332
      3324      3327      3330      3333      3325      3324      3327      3328
      3325      3324      3327      3329      3325      3324      3327      3330
      3326      3324      3327      3328      3326      3324      3327      3329
      3326      3324      3327      3330      3327      3330      3333      3334
      3327      3330      3333      3335      3327      3330      3333      3336
      3328      3327      3330      3331      3328      3327      3330      3332
      3328      3327      3330      3333      3329      3327      3330      3331
      3329      3327      3330      3332      3329      3327      3330      3333
      3330      3333      3336      3337      3330      3333      3336      3338
      3330      3333      3336      3339      3331      3330      3333      3334
      3331      3330      3333      3335      3331      3330      3333      3336
      3332      3330      3333      3334      3332      3330      3333      3335
      3332      3330      3333      3336      3333      3336      3339      3340
      3333      3336      3339      3341      3333      3336      3339      3342
      3334      3333      3336      3337      3334      3333      3336      3338
      3334      3333      3336      3339      3335      3333      3336      3337
      3335      3333      3336      3338      3335      3333      3336      3339
      3336      3339      3342      3343      3336      3339      3342      3344
      3336      3339      3342      3345      3337      3336      3339      3340
      3337      3336      3339      3341      3337      3336      3339      3342
      3338      3336      3339      3340      3338      3336      3339      3341
      3338      3336      3339      3342      3340      3339      3342      3343
      3340      3339      3342      3344      3340      3339      3342      3345
      3341      3339      3342      3343      3341      3339      3342      3344
      3341      3339      3342      3345       519       523       526       527
       519       523       526       557       519       565       562       557
       519       565       562       563       519       565       562       564
       520       519       521       522       520       519       523       524
       520       519       523       525       520       519       523       526
       520       519       565       562       520       519       565       566
       520       519       565       567       521       519       523       524
       521       519       523       525       521       519       523       526
       521       519       565       562       521       519       565       566
       521       519       565       567       522       521       519       523
       522       521       519       565       523       519       565       562
       523       519       565       566       523       519       565       567
       523       526       527       528       523       526       527       529
       523       526       557       555       523       526       557       558
       523       526       557       562       524       523       519       565
       524       523       526       527       524       523       526       557
       525       523       519       565       525       523       526       527
       525       523       526       557       526       523       519       565
       526       527       529       530       526       527       529       531
       526       527       529       532       526       557       555       532
       526       557       555       552       526       557       555       556
       526       557       558       559       526       557       558       560
       526       557       558       561       526       557       562       563
       526       557       562       564       526       557       562       565
       527       526       557       555       527       526       557       558
       527       526       557       562       527       529       532       533
       527       529       532       534       527       529       532       555
       528       527       526       557       528       527       529       530
       528       527       529       531       528       527       529       532
       529       527       526       557       529       532       534       535
       529       532       534       536       529       532       534       544
       529       532       555       552       529       532       555       556
       529       532       555       557       530       529       532       533
       530       529       532       534       530       529       532       555
       531       529       532       533       531       529       532       534
       531       529       532       555       532       534       536       537
       532       534       536       538       532       534       536       539
       532       534       544       542       532       534       544       545
       532       534       544       549       532       555       552       549
       532       555       552       553       532       555       552       554
       532       555       557       558       532       555       557       562
       533       532       534       535       533       532       534       536
       533       532       534       544       533       532       555       552
       533       532       555       556       533       532       555       557
       534       532       555       552       534       532       555       556
       534       532       555       557       534       536       539       540
       534       536       539       541       534       536       539       542
       534       544       542       539       534       544       542       543
       534       544       542       568       534       544       545       546
       534       544       545       547       534       544       545       548
       534       544       549       550       534       544       549       551
       534       544       549       552       535       534       532       555
       535       534       536       537       535       534       536       538
       535       534       536       539       535       534       544       542
       535       534       544       545       535       534       544       549
       536       534       532       555       536       534       544       542
       536       534       544       545       536       534       544       549
       536       539       542       543       536       539       542       544
       536       539       542       568       537       536       534       544
       537       536       539       540       537       536       539       541
       537       536       539       542       538       536       534       544
       538       536       539       540       538       536       539       541
       538       536       539       542       539       536       534       544
       539       542       544       545       539       542       544       549
       539       542       568       569       539       542       568       570
       539       542       568       574       540       539       542       543
       540       539       542       544       540       539       542       568
       541       539       542       543       541       539       542       544
       541       539       542       568       542       544       545       546
       542       544       545       547       542       544       545       548
       542       544       549       550       542       544       549       551
       542       544       549       552       542       568       570       571
       542       568       570       572       542       568       570       573
       542       568       574       575       542       568       574       576
       542       568       574       577       543       542       544       545
       543       542       544       549       543       542       568       569
       543       542       568       570       543       542       568       574
       544       534       532       555       544       542       568       569
       544       542       568       570       544       542       568       574
       544       549       552       553       544       549       552       554
       544       549       552       555       545       544       542       568
       545       544       549       550       545       544       549       551
       545       544       549       552       546       545       544       549
       547       545       544       549       548       545       544       549
       549       544       542       568       549       552       555       556
       549       552       555       557       550       549       552       553
       550       549       552       554       550       549       552       555
       551       549       552       553       551       549       552       554
       551       549       552       555       552       555       557       558
       552       555       557       562       553       552       555       556
       553       552       555       557       554       552       555       556
       554       552       555       557       555       557       558       559
       555       557       558       560       555       557       558       561
       555       557       562       563       555       557       562       564
       555       557       562       565       556       555       557       558
       556       555       557       562       557       562       565       566
       557       562       565       567       558       557       562       563
       558       557       562       564       558       557       562       565
       559       558       557       562       560       558       557       562
       561       558       557       562       563       562       565       566
       563       562       565       567       564       562       565       566
       564       562       565       567       568       574       577       578
       568       574       577       579       568       574       577       580
       569       568       570       571       569       568       570       572
       569       568       570       573       569       568       574       575
       569       568       574       576       569       568       574       577
       570       568       574       575       570       568       574       576
       570       568       574       577       571       570       568       574
       572       570       568       574       573       570       568       574
       574       577       580       581       574       577       580       582
       574       577       580       583       575       574       577       578
       575       574       577       579       575       574       577       580
       576       574       577       578       576       574       577       579
       576       574       577       580       577       580       583       584
       577       580       583       585       577       580       583       589
       578       577       580       581       578       577       580       582
       578       577       580       583       579       577       580       581
       579       577       580       582       579       577       580       583
       580       583       585       586       580       583       585       587
       580       583       585       588       580       583       589       590
       580       583       589       591       580       583       589       592
       581       580       583       584       581       580       583       585
       581       580       583       589       582       580       583       584
       582       580       583       585       582       580       583       589
       584       583       585       586       584       583       585       587
       584       583       585       588       584       583       589       590
       584       583       589       591       584       583       589       592
       585       583       589       590       585       583       589       591
       585       583       589       592       586       585       583       589
       587       585       583       589       588       585       583       589
      3346      3350      3353      3354      3346      3350      3353      3355
      3346      3350      3353      3360      3347      3346      3350      3351
      3347      3346      3350      3352      3347      3346      3350      3353
      3348      3346      3350      3351      3348      3346      3350      3352
      3348      3346      3350      3353      3349      3346      3350      3351
      3349      3346      3350      3352      3349      3346      3350      3353
      3350      3353      3360      3356      3351      3350      3353      3354
      3351      3350      3353      3355      3351      3350      3353      3360
      3352      3350      3353      3354      3352      3350      3353      3355
      3352      3350      3353      3360      3353      3360      3356      3357
      3353      3360      3356      3358      3353      3360      3356      3359
      3354      3353      3360      3356      3355      3353      3360      3356
      3356      3359      3361      3362      3356      3359      3361      3363
      3356      3359      3361      3364      3357      3356      3359      3361
      3358      3356      3359      3361      3359      3361      3364      3365
      3359      3361      3364      3366      3359      3361      3364      3372
      3360      3356      3359      3361      3361      3364      3366      3367
      3361      3364      3372      3373      3361      3364      3372      3374
      3361      3364      3372      3375      3362      3361      3364      3365
      3362      3361      3364      3366      3362      3361      3364      3372
      3363      3361      3364      3365      3363      3361      3364      3366
      3363      3361      3364      3372      3364      3366      3367      3368
      3364      3366      3367      3369      3364      3372      3375      3376
      3365      3364      3366      3367      3365      3364      3372      3373
      3365      3364      3372      3374      3365      3364      3372      3375
      3366      3364      3372      3373      3366      3364      3372      3374
      3366      3364      3372      3375      3366      3367      3369      3370
      3366      3367      3369      3371      3366      3367      3369      3381
      3367      3366      3364      3372      3367      3369      3381      3382
      3367      3369      3381      3383      3367      3369      3381      3384
      3368      3367      3369      3370      3368      3367      3369      3371
      3368      3367      3369      3381      3369      3381      3384      3385
      3369      3381      3384      3386      3369      3381      3384      3387
      3370      3369      3381      3382      3370      3369      3381      3383
      3370      3369      3381      3384      3371      3369      3381      3382
      3371      3369      3381      3383      3371      3369      3381      3384
      3372      3375      3376      3377      3372      3375      3376      3378
      3373      3372      3375      3376      3374      3372      3375      3376
      3375      3376      3378      3379      3375      3376      3378      3380
      3375      3376      3378      3428      3376      3378      3428      3429
      3376      3378      3428      3430      3376      3378      3428      3431
      3377      3376      3378      3379      3377      3376      3378      3380
      3377      3376      3378      3428      3378      3428      3431      3432
      3378      3428      3431      3433      3378      3428      3431      3434
      3379      3378      3428      3429      3379      3378      3428      3430
      3379      3378      3428      3431      3380      3378      3428      3429
      3380      3378      3428      3430      3380      3378      3428      3431
      3381      3384      3387      3388      3381      3384      3387      3389
      3381      3384      3387      3390      3382      3381      3384      3385
      3382      3381      3384      3386      3382      3381      3384      3387
      3383      3381      3384      3385      3383      3381      3384      3386
      3383      3381      3384      3387      3384      3387      3390      3391
      3384      3387      3390      3392      3384      3387      3390      3393
      3385      3384      3387      3388      3385      3384      3387      3389
      3385      3384      3387      3390      3386      3384      3387      3388
      3386      3384      3387      3389      3386      3384      3387      3390
      3387      3390      3393      3394      3387      3390      3393      3395
      3387      3390      3393      3396      3388      3387      3390      3391
      3388      3387      3390      3392      3388      3387      3390      3393
      3389      3387      3390      3391      3389      3387      3390      3392
      3389      3387      3390      3393      3390      3393      3396      3397
      3390      3393      3396      3398      3390      3393      3396      3399
      3391      3390      3393      3394      3391      3390      3393      3395
      3391      3390      3393      3396      3392      3390      3393      3394
      3392      3390      3393      3395      3392      3390      3393      3396
      3393      3396      3399      3400      3393      3396      3399      3401
      3394      3393      3396      3397      3394      3393      3396      3398
      3394      3393      3396      3399      3395      3393      3396      3397
      3395      3393      3396      3398      3395      3393      3396      3399
      3396      3399      3401      3402      3396      3399      3401      3403
      3397      3396      3399      3400      3397      3396      3399      3401
      3398      3396      3399      3400      3398      3396      3399      3401
      3399      3401      3403      3404      3399      3401      3403      3405
      3399      3401      3403      3406      3400      3399      3401      3402
      3400      3399      3401      3403      3401      3403      3406      3407
      3401      3403      3406      3408      3401      3403      3406      3409
      3402      3401      3403      3404      3402      3401      3403      3405
      3402      3401      3403      3406      3403      3406      3409      3410
      3403      3406      3409      3411      3403      3406      3409      3412
      3404      3403      3406      3407      3404      3403      3406      3408
      3404      3403      3406      3409      3405      3403      3406      3407
      3405      3403      3406      3408      3405      3403      3406      3409
      3406      3409      3412      3413      3406      3409      3412      3414
      3406      3409      3412      3415      3407      3406      3409      3410
      3407      3406      3409      3411      3407      3406      3409      3412
      3408      3406      3409      3410      3408      3406      3409      3411
      3408      3406      3409      3412      3409      3412      3415      3416
      3409      3412      3415      3417      3409      3412      3415      3418
      3410      3409      3412      3413      3410      3409      3412      3414
      3410      3409      3412      3415      3411      3409      3412      3413
      3411      3409      3412      3414      3411      3409      3412      3415
      3412      3415      3418      3419      3412      3415      3418      3420
      3412      3415      3418      3421      3413      3412      3415      3416
      3413      3412      3415      3417      3413      3412      3415      3418
      3414      3412      3415      3416      3414      3412      3415      3417
      3414      3412      3415      3418      3415      3418      3421      3422
      3415      3418      3421      3423      3415      3418      3421      3424
      3416      3415      3418      3419      3416      3415      3418      3420
      3416      3415      3418      3421      3417      3415      3418      3419
      3417      3415      3418      3420      3417      3415      3418      3421
      3418      3421      3424      3425      3418      3421      3424      3426
      3418      3421      3424      3427      3419      3418      3421      3422
      3419      3418      3421      3423      3419      3418      3421      3424
      3420      3418      3421      3422      3420      3418      3421      3423
      3420      3418      3421      3424      3422      3421      3424      3425
      3422      3421      3424      3426      3422      3421      3424      3427
      3423      3421      3424      3425      3423      3421      3424      3426
      3423      3421      3424      3427      3428      3431      3434      3435
      3428      3431      3434      3436      3428      3431      3434      3437
      3429      3428      3431      3432      3429      3428      3431      3433
      3429      3428      3431      3434      3430      3428      3431      3432
      3430      3428      3431      3433      3430      3428      3431      3434
      3431      3434      3437      3438      3431      3434      3437      3439
      3431      3434      3437      3440      3432      3431      3434      3435
      3432      3431      3434      3436      3432      3431      3434      3437
      3433      3431      3434      3435      3433      3431      3434      3436
      3433      3431      3434      3437      3434      3437      3440      3441
      3434      3437      3440      3442      3434      3437      3440      3443
      3435      3434      3437      3438      3435      3434      3437      3439
      3435      3434      3437      3440      3436      3434      3437      3438
      3436      3434      3437      3439      3436      3434      3437      3440
      3437      3440      3443      3444      3437      3440      3443      3445
      3437      3440      3443      3446      3438      3437      3440      3441
      3438      3437      3440      3442      3438      3437      3440      3443
      3439      3437      3440      3441      3439      3437      3440      3442
      3439      3437      3440      3443      3440      3443      3446      3447
      3440      3443      3446      3448      3440      3443      3446      3449
      3441      3440      3443      3444      3441      3440      3443      3445
      3441      3440      3443      3446      3442      3440      3443      3444
      3442      3440      3443      3445      3442      3440      3443      3446
      3443      3446      3449      3450      3443      3446      3449      3451
      3443      3446      3449      3452      3444      3443      3446      3447
      3444      3443      3446      3448      3444      3443      3446      3449
      3445      3443      3446      3447      3445      3443      3446      3448
      3445      3443      3446      3449      3446      3449      3452      3453
      3446      3449      3452      3454      3446      3449      3452      3455
      3447      3446      3449      3450      3447      3446      3449      3451
      3447      3446      3449      3452      3448      3446      3449      3450
      3448      3446      3449      3451      3448      3446      3449      3452
      3449      3452      3455      3456      3449      3452      3455      3457
      3449      3452      3455      3458      3450      3449      3452      3453
      3450      3449      3452      3454      3450      3449      3452      3455
      3451      3449      3452      3453      3451      3449      3452      3454
      3451      3449      3452      3455      3452      3455      3458      3459
      3452      3455      3458      3460      3452      3455      3458      3461
      3453      3452      3455      3456      3453      3452      3455      3457
      3453      3452      3455      3458      3454      3452      3455      3456
      3454      3452      3455      3457      3454      3452      3455      3458
      3455      3458      3461      3462      3455      3458      3461      3463
      3455      3458      3461      3464      3456      3455      3458      3459
      3456      3455      3458      3460      3456      3455      3458      3461
      3457      3455      3458      3459      3457      3455      3458      3460
      3457      3455      3458      3461      3458      3461      3464      3465
      3458      3461      3464      3466      3458      3461      3464      3467
      3459      3458      3461      3462      3459      3458      3461      3463
      3459      3458      3461      3464      3460      3458      3461      3462
      3460      3458      3461      3463      3460      3458      3461      3464
      3461      3464      3467      3468      3461      3464      3467      3469
      3461      3464      3467      3470      3462      3461      3464      3465
      3462      3461      3464      3466      3462      3461      3464      3467
      3463      3461      3464      3465      3463      3461      3464      3466
      3463      3461      3464      3467      3465      3464      3467      3468
      3465      3464      3467      3469      3465      3464      3467      3470
      3466      3464      3467      3468      3466      3464      3467      3469
      3466      3464      3467      3470     14757     14758     14773     14774
     14757     14758     14773     14775     14757     14758     14773     14779
     14758     14757     14761     14762     14758     14757     14761     14763
     14758     14757     14761     14764     14758     14757     14765     14766
     14758     14757     14765     14767     14758     14757     14765     14768
     14758     14757     14769     14770     14758     14757     14769     14771
     14758     14757     14769     14772     14758     14773     14779     14776
     14759     14758     14757     14761     14759     14758     14757     14765
     14759     14758     14757     14769     14759     14758     14773     14774
     14759     14758     14773     14775     14759     14758     14773     14779
     14760     14758     14757     14761     14760     14758     14757     14765
     14760     14758     14757     14769     14760     14758     14773     14774
     14760     14758     14773     14775     14760     14758     14773     14779
     14761     14757     14758     14773     14761     14757     14765     14766
     14761     14757     14765     14767     14761     14757     14765     14768
     14761     14757     14769     14770     14761     14757     14769     14771
     14761     14757     14769     14772     14762     14761     14757     14765
     14762     14761     14757     14769     14763     14761     14757     14765
     14763     14761     14757     14769     14764     14761     14757     14765
     14764     14761     14757     14769     14765     14757     14758     14773
     14765     14757     14769     14770     14765     14757     14769     14771
     14765     14757     14769     14772     14766     14765     14757     14769
     14767     14765     14757     14769     14768     14765     14757     14769
     14769     14757     14758     14773     14773     14779     14776     14777
     14773     14779     14776     14778     14773     14779     14776     14780
     14774     14773     14779     14776     14775     14773     14779     14776
     14776     14780     14781     14782     14776     14780     14781     14783
     14776     14780     14781     14784     14777     14776     14780     14781
     14778     14776     14780     14781     14779     14776     14780     14781
     14780     14781     14784     14785     14780     14781     14784     14786
     14780     14781     14784     14792     14781     14784     14786     14787
     14781     14784     14792     14793     14781     14784     14792     14794
     14781     14784     14792     14795     14782     14781     14784     14785
     14782     14781     14784     14786     14782     14781     14784     14792
     14783     14781     14784     14785     14783     14781     14784     14786
     14783     14781     14784     14792     14784     14786     14787     14788
     14784     14786     14787     14789     14784     14792     14795     14796
     14785     14784     14786     14787     14785     14784     14792     14793
     14785     14784     14792     14794     14785     14784     14792     14795
     14786     14784     14792     14793     14786     14784     14792     14794
     14786     14784     14792     14795     14786     14787     14789     14790
     14786     14787     14789     14791     14786     14787     14789     14801
     14787     14786     14784     14792     14787     14789     14801     14802
     14787     14789     14801     14803     14787     14789     14801     14804
     14788     14787     14789     14790     14788     14787     14789     14791
     14788     14787     14789     14801     14789     14801     14804     14805
     14789     14801     14804     14806     14789     14801     14804     14807
     14790     14789     14801     14802     14790     14789     14801     14803
     14790     14789     14801     14804     14791     14789     14801     14802
     14791     14789     14801     14803     14791     14789     14801     14804
     14792     14795     14796     14797     14792     14795     14796     14798
     14793     14792     14795     14796     14794     14792     14795     14796
     14795     14796     14798     14799     14795     14796     14798     14800
     14795     14796     14798     14848     14796     14798     14848     14849
     14796     14798     14848     14850     14796     14798     14848     14851
     14797     14796     14798     14799     14797     14796     14798     14800
     14797     14796     14798     14848     14798     14848     14851     14852
     14798     14848     14851     14853     14798     14848     14851     14854
     14799     14798     14848     14849     14799     14798     14848     14850
     14799     14798     14848     14851     14800     14798     14848     14849
     14800     14798     14848     14850     14800     14798     14848     14851
     14801     14804     14807     14808     14801     14804     14807     14809
     14801     14804     14807     14810     14802     14801     14804     14805
     14802     14801     14804     14806     14802     14801     14804     14807
     14803     14801     14804     14805     14803     14801     14804     14806
     14803     14801     14804     14807     14804     14807     14810     14811
     14804     14807     14810     14812     14804     14807     14810     14813
     14805     14804     14807     14808     14805     14804     14807     14809
     14805     14804     14807     14810     14806     14804     14807     14808
     14806     14804     14807     14809     14806     14804     14807     14810
     14807     14810     14813     14814     14807     14810     14813     14815
     14807     14810     14813     14816     14808     14807     14810     14811
     14808     14807     14810     14812     14808     14807     14810     14813
     14809     14807     14810     14811     14809     14807     14810     14812
     14809     14807     14810     14813     14810     14813     14816     14817
     14810     14813     14816     14818     14810     14813     14816     14819
     14811     14810     14813     14814     14811     14810     14813     14815
     14811     14810     14813     14816     14812     14810     14813     14814
     14812     14810     14813     14815     14812     14810     14813     14816
     14813     14816     14819     14820     14813     14816     14819     14821
     14814     14813     14816     14817     14814     14813     14816     14818
     14814     14813     14816     14819     14815     14813     14816     14817
     14815     14813     14816     14818     14815     14813     14816     14819
     14816     14819     14821     14822     14816     14819     14821     14823
     14817     14816     14819     14820     14817     14816     14819     14821
     14818     14816     14819     14820     14818     14816     14819     14821
     14819     14821     14823     14824     14819     14821     14823     14825
     14819     14821     14823     14826     14820     14819     14821     14822
     14820     14819     14821     14823     14821     14823     14826     14827
     14821     14823     14826     14828     14821     14823     14826     14829
     14822     14821     14823     14824     14822     14821     14823     14825
     14822     14821     14823     14826     14823     14826     14829     14830
     14823     14826     14829     14831     14823     14826     14829     14832
     14824     14823     14826     14827     14824     14823     14826     14828
     14824     14823     14826     14829     14825     14823     14826     14827
     14825     14823     14826     14828     14825     14823     14826     14829
     14826     14829     14832     14833     14826     14829     14832     14834
     14826     14829     14832     14835     14827     14826     14829     14830
     14827     14826     14829     14831     14827     14826     14829     14832
     14828     14826     14829     14830     14828     14826     14829     14831
     14828     14826     14829     14832     14829     14832     14835     14836
     14829     14832     14835     14837     14829     14832     14835     14838
     14830     14829     14832     14833     14830     14829     14832     14834
     14830     14829     14832     14835     14831     14829     14832     14833
     14831     14829     14832     14834     14831     14829     14832     14835
     14832     14835     14838     14839     14832     14835     14838     14840
     14832     14835     14838     14841     14833     14832     14835     14836
     14833     14832     14835     14837     14833     14832     14835     14838
     14834     14832     14835     14836     14834     14832     14835     14837
     14834     14832     14835     14838     14835     14838     14841     14842
     14835     14838     14841     14843     14835     14838     14841     14844
     14836     14835     14838     14839     14836     14835     14838     14840
     14836     14835     14838     14841     14837     14835     14838     14839
     14837     14835     14838     14840     14837     14835     14838     14841
     14838     14841     14844     14845     14838     14841     14844     14846
     14838     14841     14844     14847     14839     14838     14841     14842
     14839     14838     14841     14843     14839     14838     14841     14844
     14840     14838     14841     14842     14840     14838     14841     14843
     14840     14838     14841     14844     14842     14841     14844     14845
     14842     14841     14844     14846     14842     14841     14844     14847
     14843     14841     14844     14845     14843     14841     14844     14846
     14843     14841     14844     14847     14848     14851     14854     14855
     14848     14851     14854     14856     14848     14851     14854     14857
     14849     14848     14851     14852     14849     14848     14851     14853
     14849     14848     14851     14854     14850     14848     14851     14852
     14850     14848     14851     14853     14850     14848     14851     14854
     14851     14854     14857     14858     14851     14854     14857     14859
     14851     14854     14857     14860     14852     14851     14854     14855
     14852     14851     14854     14856     14852     14851     14854     14857
     14853     14851     14854     14855     14853     14851     14854     14856
     14853     14851     14854     14857     14854     14857     14860     14861
     14854     14857     14860     14862     14854     14857     14860     14863
     14855     14854     14857     14858     14855     14854     14857     14859
     14855     14854     14857     14860     14856     14854     14857     14858
     14856     14854     14857     14859     14856     14854     14857     14860
     14857     14860     14863     14864     14857     14860     14863     14865
     14857     14860     14863     14866     14858     14857     14860     14861
     14858     14857     14860     14862     14858     14857     14860     14863
     14859     14857     14860     14861     14859     14857     14860     14862
     14859     14857     14860     14863     14860     14863     14866     14867
     14860     14863     14866     14868     14860     14863     14866     14869
     14861     14860     14863     14864     14861     14860     14863     14865
     14861     14860     14863     14866     14862     14860     14863     14864
     14862     14860     14863     14865     14862     14860     14863     14866
     14863     14866     14869     14870     14863     14866     14869     14871
     14863     14866     14869     14872     14864     14863     14866     14867
     14864     14863     14866     14868     14864     14863     14866     14869
     14865     14863     14866     14867     14865     14863     14866     14868
     14865     14863     14866     14869     14866     14869     14872     14873
     14866     14869     14872     14874     14866     14869     14872     14875
     14867     14866     14869     14870     14867     14866     14869     14871
     14867     14866     14869     14872     14868     14866     14869     14870
     14868     14866     14869     14871     14868     14866     14869     14872
     14869     14872     14875     14876     14869     14872     14875     14877
     14869     14872     14875     14878     14870     14869     14872     14873
     14870     14869     14872     14874     14870     14869     14872     14875
     14871     14869     14872     14873     14871     14869     14872     14874
     14871     14869     14872     14875     14872     14875     14878     14879
     14872     14875     14878     14880     14872     14875     14878     14881
     14873     14872     14875     14876     14873     14872     14875     14877
     14873     14872     14875     14878     14874     14872     14875     14876
     14874     14872     14875     14877     14874     14872     14875     14878
     14875     14878     14881     14882     14875     14878     14881     14883
     14875     14878     14881     14884     14876     14875     14878     14879
     14876     14875     14878     14880     14876     14875     14878     14881
     14877     14875     14878     14879     14877     14875     14878     14880
     14877     14875     14878     14881     14878     14881     14884     14885
     14878     14881     14884     14886     14878     14881     14884     14887
     14879     14878     14881     14882     14879     14878     14881     14883
     14879     14878     14881     14884     14880     14878     14881     14882
     14880     14878     14881     14883     14880     14878     14881     14884
     14881     14884     14887     14888     14881     14884     14887     14889
     14881     14884     14887     14890     14882     14881     14884     14885
     14882     14881     14884     14886     14882     14881     14884     14887
     14883     14881     14884     14885     14883     14881     14884     14886
     14883     14881     14884     14887     14885     14884     14887     14888
     14885     14884     14887     14889     14885     14884     14887     14890
     14886     14884     14887     14888     14886     14884     14887     14889
     14886     14884     14887     14890     14891     14892     14907     14908
     14891     14892     14907     14909     14891     14892     14907     14913
     14892     14891     14895     14896     14892     14891     14895     14897
     14892     14891     14895     14898     14892     14891     14899     14900
     14892     14891     14899     14901     14892     14891     14899     14902
     14892     14891     14903     14904     14892     14891     14903     14905
     14892     14891     14903     14906     14892     14907     14913     14910
     14893     14892     14891     14895     14893     14892     14891     14899
     14893     14892     14891     14903     14893     14892     14907     14908
     14893     14892     14907     14909     14893     14892     14907     14913
     14894     14892     14891     14895     14894     14892     14891     14899
     14894     14892     14891     14903     14894     14892     14907     14908
     14894     14892     14907     14909     14894     14892     14907     14913
     14895     14891     14892     14907     14895     14891     14899     14900
     14895     14891     14899     14901     14895     14891     14899     14902
     14895     14891     14903     14904     14895     14891     14903     14905
     14895     14891     14903     14906     14896     14895     14891     14899
     14896     14895     14891     14903     14897     14895     14891     14899
     14897     14895     14891     14903     14898     14895     14891     14899
     14898     14895     14891     14903     14899     14891     14892     14907
     14899     14891     14903     14904     14899     14891     14903     14905
     14899     14891     14903     14906     14900     14899     14891     14903
     14901     14899     14891     14903     14902     14899     14891     14903
     14903     14891     14892     14907     14907     14913     14910     14911
     14907     14913     14910     14912     14907     14913     14910     14914
     14908     14907     14913     14910     14909     14907     14913     14910
     14910     14914     14915     14916     14910     14914     14915     14917
     14910     14914     14915     14918     14911     14910     14914     14915
     14912     14910     14914     14915     14913     14910     14914     14915
     14914     14915     14918     14919     14914     14915     14918     14920
     14914     14915     14918     14926     14915     14918     14920     14921
     14915     14918     14926     14927     14915     14918     14926     14928
     14915     14918     14926     14929     14916     14915     14918     14919
     14916     14915     14918     14920     14916     14915     14918     14926
     14917     14915     14918     14919     14917     14915     14918     14920
     14917     14915     14918     14926     14918     14920     14921     14922
     14918     14920     14921     14923     14918     14926     14929     14930
     14919     14918     14920     14921     14919     14918     14926     14927
     14919     14918     14926     14928     14919     14918     14926     14929
     14920     14918     14926     14927     14920     14918     14926     14928
     14920     14918     14926     14929     14920     14921     14923     14924
     14920     14921     14923     14925     14920     14921     14923     14935
     14921     14920     14918     14926     14921     14923     14935     14936
     14921     14923     14935     14937     14921     14923     14935     14938
     14922     14921     14923     14924     14922     14921     14923     14925
     14922     14921     14923     14935     14923     14935     14938     14939
     14923     14935     14938     14940     14923     14935     14938     14941
     14924     14923     14935     14936     14924     14923     14935     14937
     14924     14923     14935     14938     14925     14923     14935     14936
     14925     14923     14935     14937     14925     14923     14935     14938
     14926     14929     14930     14931     14926     14929     14930     14932
     14927     14926     14929     14930     14928     14926     14929     14930
     14929     14930     14932     14933     14929     14930     14932     14934
     14929     14930     14932     14982     14930     14932     14982     14983
     14930     14932     14982     14984     14930     14932     14982     14985
     14931     14930     14932     14933     14931     14930     14932     14934
     14931     14930     14932     14982     14932     14982     14985     14986
     14932     14982     14985     14987     14932     14982     14985     14988
     14933     14932     14982     14983     14933     14932     14982     14984
     14933     14932     14982     14985     14934     14932     14982     14983
     14934     14932     14982     14984     14934     14932     14982     14985
     14935     14938     14941     14942     14935     14938     14941     14943
     14935     14938     14941     14944     14936     14935     14938     14939
     14936     14935     14938     14940     14936     14935     14938     14941
     14937     14935     14938     14939     14937     14935     14938     14940
     14937     14935     14938     14941     14938     14941     14944     14945
     14938     14941     14944     14946     14938     14941     14944     14947
     14939     14938     14941     14942     14939     14938     14941     14943
     14939     14938     14941     14944     14940     14938     14941     14942
     14940     14938     14941     14943     14940     14938     14941     14944
     14941     14944     14947     14948     14941     14944     14947     14949
     14941     14944     14947     14950     14942     14941     14944     14945
     14942     14941     14944     14946     14942     14941     14944     14947
     14943     14941     14944     14945     14943     14941     14944     14946
     14943     14941     14944     14947     14944     14947     14950     14951
     14944     14947     14950     14952     14944     14947     14950     14953
     14945     14944     14947     14948     14945     14944     14947     14949
     14945     14944     14947     14950     14946     14944     14947     14948
     14946     14944     14947     14949     14946     14944     14947     14950
     14947     14950     14953     14954     14947     14950     14953     14955
     14948     14947     14950     14951     14948     14947     14950     14952
     14948     14947     14950     14953     14949     14947     14950     14951
     14949     14947     14950     14952     14949     14947     14950     14953
     14950     14953     14955     14956     14950     14953     14955     14957
     14951     14950     14953     14954     14951     14950     14953     14955
     14952     14950     14953     14954     14952     14950     14953     14955
     14953     14955     14957     14958     14953     14955     14957     14959
     14953     14955     14957     14960     14954     14953     14955     14956
     14954     14953     14955     14957     14955     14957     14960     14961
     14955     14957     14960     14962     14955     14957     14960     14963
     14956     14955     14957     14958     14956     14955     14957     14959
     14956     14955     14957     14960     14957     14960     14963     14964
     14957     14960     14963     14965     14957     14960     14963     14966
     14958     14957     14960     14961     14958     14957     14960     14962
     14958     14957     14960     14963     14959     14957     14960     14961
     14959     14957     14960     14962     14959     14957     14960     14963
     14960     14963     14966     14967     14960     14963     14966     14968
     14960     14963     14966     14969     14961     14960     14963     14964
     14961     14960     14963     14965     14961     14960     14963     14966
     14962     14960     14963     14964     14962     14960     14963     14965
     14962     14960     14963     14966     14963     14966     14969     14970
     14963     14966     14969     14971     14963     14966     14969     14972
     14964     14963     14966     14967     14964     14963     14966     14968
     14964     14963     14966     14969     14965     14963     14966     14967
     14965     14963     14966     14968     14965     14963     14966     14969
     14966     14969     14972     14973     14966     14969     14972     14974
     14966     14969     14972     14975     14967     14966     14969     14970
     14967     14966     14969     14971     14967     14966     14969     14972
     14968     14966     14969     14970     14968     14966     14969     14971
     14968     14966     14969     14972     14969     14972     14975     14976
     14969     14972     14975     14977     14969     14972     14975     14978
     14970     14969     14972     14973     14970     14969     14972     14974
     14970     14969     14972     14975     14971     14969     14972     14973
     14971     14969     14972     14974     14971     14969     14972     14975
     14972     14975     14978     14979     14972     14975     14978     14980
     14972     14975     14978     14981     14973     14972     14975     14976
     14973     14972     14975     14977     14973     14972     14975     14978
     14974     14972     14975     14976     14974     14972     14975     14977
     14974     14972     14975     14978     14976     14975     14978     14979
     14976     14975     14978     14980     14976     14975     14978     14981
     14977     14975     14978     14979     14977     14975     14978     14980
     14977     14975     14978     14981     14982     14985     14988     14989
     14982     14985     14988     14990     14982     14985     14988     14991
     14983     14982     14985     14986     14983     14982     14985     14987
     14983     14982     14985     14988     14984     14982     14985     14986
     14984     14982     14985     14987     14984     14982     14985     14988
     14985     14988     14991     14992     14985     14988     14991     14993
     14985     14988     14991     14994     14986     14985     14988     14989
     14986     14985     14988     14990     14986     14985     14988     14991
     14987     14985     14988     14989     14987     14985     14988     14990
     14987     14985     14988     14991     14988     14991     14994     14995
     14988     14991     14994     14996     14988     14991     14994     14997
     14989     14988     14991     14992     14989     14988     14991     14993
     14989     14988     14991     14994     14990     14988     14991     14992
     14990     14988     14991     14993     14990     14988     14991     14994
     14991     14994     14997     14998     14991     14994     14997     14999
     14991     14994     14997     15000     14992     14991     14994     14995
     14992     14991     14994     14996     14992     14991     14994     14997
     14993     14991     14994     14995     14993     14991     14994     14996
     14993     14991     14994     14997     14994     14997     15000     15001
     14994     14997     15000     15002     14994     14997     15000     15003
     14995     14994     14997     14998     14995     14994     14997     14999
     14995     14994     14997     15000     14996     14994     14997     14998
     14996     14994     14997     14999     14996     14994     14997     15000
     14997     15000     15003     15004     14997     15000     15003     15005
     14997     15000     15003     15006     14998     14997     15000     15001
     14998     14997     15000     15002     14998     14997     15000     15003
     14999     14997     15000     15001     14999     14997     15000     15002
     14999     14997     15000     15003     15000     15003     15006     15007
     15000     15003     15006     15008     15000     15003     15006     15009
     15001     15000     15003     15004     15001     15000     15003     15005
     15001     15000     15003     15006     15002     15000     15003     15004
     15002     15000     15003     15005     15002     15000     15003     15006
     15003     15006     15009     15010     15003     15006     15009     15011
     15003     15006     15009     15012     15004     15003     15006     15007
     15004     15003     15006     15008     15004     15003     15006     15009
     15005     15003     15006     15007     15005     15003     15006     15008
     15005     15003     15006     15009     15006     15009     15012     15013
     15006     15009     15012     15014     15006     15009     15012     15015
     15007     15006     15009     15010     15007     15006     15009     15011
     15007     15006     15009     15012     15008     15006     15009     15010
     15008     15006     15009     15011     15008     15006     15009     15012
     15009     15012     15015     15016     15009     15012     15015     15017
     15009     15012     15015     15018     15010     15009     15012     15013
     15010     15009     15012     15014     15010     15009     15012     15015
     15011     15009     15012     15013     15011     15009     15012     15014
     15011     15009     15012     15015     15012     15015     15018     15019
     15012     15015     15018     15020     15012     15015     15018     15021
     15013     15012     15015     15016     15013     15012     15015     15017
     15013     15012     15015     15018     15014     15012     15015     15016
     15014     15012     15015     15017     15014     15012     15015     15018
     15015     15018     15021     15022     15015     15018     15021     15023
     15015     15018     15021     15024     15016     15015     15018     15019
     15016     15015     15018     15020     15016     15015     15018     15021
     15017     15015     15018     15019     15017     15015     15018     15020
     15017     15015     15018     15021     15019     15018     15021     15022
     15019     15018     15021     15023     15019     15018     15021     15024
     15020     15018     15021     15022     15020     15018     15021     15023
     15020     15018     15021     15024     15025     15026     15041     15042
     15025     15026     15041     15043     15025     15026     15041     15047
     15026     15025     15029     15030     15026     15025     15029     15031
     15026     15025     15029     15032     15026     15025     15033     15034
     15026     15025     15033     15035     15026     15025     15033     15036
     15026     15025     15037     15038     15026     15025     15037     15039
     15026     15025     15037     15040     15026     15041     15047     15044
     15027     15026     15025     15029     15027     15026     15025     15033
     15027     15026     15025     15037     15027     15026     15041     15042
     15027     15026     15041     15043     15027     15026     15041     15047
     15028     15026     15025     15029     15028     15026     15025     15033
     15028     15026     15025     15037     15028     15026     15041     15042
     15028     15026     15041     15043     15028     15026     15041     15047
     15029     15025     15026     15041     15029     15025     15033     15034
     15029     15025     15033     15035     15029     15025     15033     15036
     15029     15025     15037     15038     15029     15025     15037     15039
     15029     15025     15037     15040     15030     15029     15025     15033
     15030     15029     15025     15037     15031     15029     15025     15033
     15031     15029     15025     15037     15032     15029     15025     15033
     15032     15029     15025     15037     15033     15025     15026     15041
     15033     15025     15037     15038     15033     15025     15037     15039
     15033     15025     15037     15040     15034     15033     15025     15037
     15035     15033     15025     15037     15036     15033     15025     15037
     15037     15025     15026     15041     15041     15047     15044     15045
     15041     15047     15044     15046     15041     15047     15044     15048
     15042     15041     15047     15044     15043     15041     15047     15044
     15044     15048     15049     15050     15044     15048     15049     15051
     15044     15048     15049     15052     15045     15044     15048     15049
     15046     15044     15048     15049     15047     15044     15048     15049
     15048     15049     15052     15053     15048     15049     15052     15054
     15048     15049     15052     15060     15049     15052     15054     15055
     15049     15052     15060     15061     15049     15052     15060     15062
     15049     15052     15060     15063     15050     15049     15052     15053
     15050     15049     15052     15054     15050     15049     15052     15060
     15051     15049     15052     15053     15051     15049     15052     15054
     15051     15049     15052     15060     15052     15054     15055     15056
     15052     15054     15055     15057     15052     15060     15063     15064
     15053     15052     15054     15055     15053     15052     15060     15061
     15053     15052     15060     15062     15053     15052     15060     15063
     15054     15052     15060     15061     15054     15052     15060     15062
     15054     15052     15060     15063     15054     15055     15057     15058
     15054     15055     15057     15059     15054     15055     15057     15069
     15055     15054     15052     15060     15055     15057     15069     15070
     15055     15057     15069     15071     15055     15057     15069     15072
     15056     15055     15057     15058     15056     15055     15057     15059
     15056     15055     15057     15069     15057     15069     15072     15073
     15057     15069     15072     15074     15057     15069     15072     15075
     15058     15057     15069     15070     15058     15057     15069     15071
     15058     15057     15069     15072     15059     15057     15069     15070
     15059     15057     15069     15071     15059     15057     15069     15072
     15060     15063     15064     15065     15060     15063     15064     15066
     15061     15060     15063     15064     15062     15060     15063     15064
     15063     15064     15066     15067     15063     15064     15066     15068
     15063     15064     15066     15116     15064     15066     15116     15117
     15064     15066     15116     15118     15064     15066     15116     15119
     15065     15064     15066     15067     15065     15064     15066     15068
     15065     15064     15066     15116     15066     15116     15119     15120
     15066     15116     15119     15121     15066     15116     15119     15122
     15067     15066     15116     15117     15067     15066     15116     15118
     15067     15066     15116     15119     15068     15066     15116     15117
     15068     15066     15116     15118     15068     15066     15116     15119
     15069     15072     15075     15076     15069     15072     15075     15077
     15069     15072     15075     15078     15070     15069     15072     15073
     15070     15069     15072     15074     15070     15069     15072     15075
     15071     15069     15072     15073     15071     15069     15072     15074
     15071     15069     15072     15075     15072     15075     15078     15079
     15072     15075     15078     15080     15072     15075     15078     15081
     15073     15072     15075     15076     15073     15072     15075     15077
     15073     15072     15075     15078     15074     15072     15075     15076
     15074     15072     15075     15077     15074     15072     15075     15078
     15075     15078     15081     15082     15075     15078     15081     15083
     15075     15078     15081     15084     15076     15075     15078     15079
     15076     15075     15078     15080     15076     15075     15078     15081
     15077     15075     15078     15079     15077     15075     15078     15080
     15077     15075     15078     15081     15078     15081     15084     15085
     15078     15081     15084     15086     15078     15081     15084     15087
     15079     15078     15081     15082     15079     15078     15081     15083
     15079     15078     15081     15084     15080     15078     15081     15082
     15080     15078     15081     15083     15080     15078     15081     15084
     15081     15084     15087     15088     15081     15084     15087     15089
     15082     15081     15084     15085     15082     15081     15084     15086
     15082     15081     15084     15087     15083     15081     15084     15085
     15083     15081     15084     15086     15083     15081     15084     15087
     15084     15087     15089     15090     15084     15087     15089     15091
     15085     15084     15087     15088     15085     15084     15087     15089
     15086     15084     15087     15088     15086     15084     15087     15089
     15087     15089     15091     15092     15087     15089     15091     15093
     15087     15089     15091     15094     15088     15087     15089     15090
     15088     15087     15089     15091     15089     15091     15094     15095
     15089     15091     15094     15096     15089     15091     15094     15097
     15090     15089     15091     15092     15090     15089     15091     15093
     15090     15089     15091     15094     15091     15094     15097     15098
     15091     15094     15097     15099     15091     15094     15097     15100
     15092     15091     15094     15095     15092     15091     15094     15096
     15092     15091     15094     15097     15093     15091     15094     15095
     15093     15091     15094     15096     15093     15091     15094     15097
     15094     15097     15100     15101     15094     15097     15100     15102
     15094     15097     15100     15103     15095     15094     15097     15098
     15095     15094     15097     15099     15095     15094     15097     15100
     15096     15094     15097     15098     15096     15094     15097     15099
     15096     15094     15097     15100     15097     15100     15103     15104
     15097     15100     15103     15105     15097     15100     15103     15106
     15098     15097     15100     15101     15098     15097     15100     15102
     15098     15097     15100     15103     15099     15097     15100     15101
     15099     15097     15100     15102     15099     15097     15100     15103
     15100     15103     15106     15107     15100     15103     15106     15108
     15100     15103     15106     15109     15101     15100     15103     15104
     15101     15100     15103     15105     15101     15100     15103     15106
     15102     15100     15103     15104     15102     15100     15103     15105
     15102     15100     15103     15106     15103     15106     15109     15110
     15103     15106     15109     15111     15103     15106     15109     15112
     15104     15103     15106     15107     15104     15103     15106     15108
     15104     15103     15106     15109     15105     15103     15106     15107
     15105     15103     15106     15108     15105     15103     15106     15109
     15106     15109     15112     15113     15106     15109     15112     15114
     15106     15109     15112     15115     15107     15106     15109     15110
     15107     15106     15109     15111     15107     15106     15109     15112
     15108     15106     15109     15110     15108     15106     15109     15111
     15108     15106     15109     15112     15110     15109     15112     15113
     15110     15109     15112     15114     15110     15109     15112     15115
     15111     15109     15112     15113     15111     15109     15112     15114
     15111     15109     15112     15115     15116     15119     15122     15123
     15116     15119     15122     15124     15116     15119     15122     15125
     15117     15116     15119     15120     15117     15116     15119     15121
     15117     15116     15119     15122     15118     15116     15119     15120
     15118     15116     15119     15121     15118     15116     15119     15122
     15119     15122     15125     15126     15119     15122     15125     15127
     15119     15122     15125     15128     15120     15119     15122     15123
     15120     15119     15122     15124     15120     15119     15122     15125
     15121     15119     15122     15123     15121     15119     15122     15124
     15121     15119     15122     15125     15122     15125     15128     15129
     15122     15125     15128     15130     15122     15125     15128     15131
     15123     15122     15125     15126     15123     15122     15125     15127
     15123     15122     15125     15128     15124     15122     15125     15126
     15124     15122     15125     15127     15124     15122     15125     15128
     15125     15128     15131     15132     15125     15128     15131     15133
     15125     15128     15131     15134     15126     15125     15128     15129
     15126     15125     15128     15130     15126     15125     15128     15131
     15127     15125     15128     15129     15127     15125     15128     15130
     15127     15125     15128     15131     15128     15131     15134     15135
     15128     15131     15134     15136     15128     15131     15134     15137
     15129     15128     15131     15132     15129     15128     15131     15133
     15129     15128     15131     15134     15130     15128     15131     15132
     15130     15128     15131     15133     15130     15128     15131     15134
     15131     15134     15137     15138     15131     15134     15137     15139
     15131     15134     15137     15140     15132     15131     15134     15135
     15132     15131     15134     15136     15132     15131     15134     15137
     15133     15131     15134     15135     15133     15131     15134     15136
     15133     15131     15134     15137     15134     15137     15140     15141
     15134     15137     15140     15142     15134     15137     15140     15143
     15135     15134     15137     15138     15135     15134     15137     15139
     15135     15134     15137     15140     15136     15134     15137     15138
     15136     15134     15137     15139     15136     15134     15137     15140
     15137     15140     15143     15144     15137     15140     15143     15145
     15137     15140     15143     15146     15138     15137     15140     15141
     15138     15137     15140     15142     15138     15137     15140     15143
     15139     15137     15140     15141     15139     15137     15140     15142
     15139     15137     15140     15143     15140     15143     15146     15147
     15140     15143     15146     15148     15140     15143     15146     15149
     15141     15140     15143     15144     15141     15140     15143     15145
     15141     15140     15143     15146     15142     15140     15143     15144
     15142     15140     15143     15145     15142     15140     15143     15146
     15143     15146     15149     15150     15143     15146     15149     15151
     15143     15146     15149     15152     15144     15143     15146     15147
     15144     15143     15146     15148     15144     15143     15146     15149
     15145     15143     15146     15147     15145     15143     15146     15148
     15145     15143     15146     15149     15146     15149     15152     15153
     15146     15149     15152     15154     15146     15149     15152     15155
     15147     15146     15149     15150     15147     15146     15149     15151
     15147     15146     15149     15152     15148     15146     15149     15150
     15148     15146     15149     15151     15148     15146     15149     15152
     15149     15152     15155     15156     15149     15152     15155     15157
     15149     15152     15155     15158     15150     15149     15152     15153
     15150     15149     15152     15154     15150     15149     15152     15155
     15151     15149     15152     15153     15151     15149     15152     15154
     15151     15149     15152     15155     15153     15152     15155     15156
     15153     15152     15155     15157     15153     15152     15155     15158
     15154     15152     15155     15156     15154     15152     15155     15157
     15154     15152     15155     15158      9360      9364      9366      9367
      9360      9364      9366      9368      9360      9364      9369      9370
      9360      9364      9369      9371      9360      9364      9369      9375
      9361      9360      9364      9365      9361      9360      9364      9366
      9361      9360      9364      9369      9362      9360      9364      9365
      9362      9360      9364      9366      9362      9360      9364      9369
      9363      9360      9364      9365      9363      9360      9364      9366
      9363      9360      9364      9369      9364      9369      9375      9372
      9365      9364      9366      9367      9365      9364      9366      9368
      9365      9364      9369      9370      9365      9364      9369      9371
      9365      9364      9369      9375      9366      9364      9369      9370
      9366      9364      9369      9371      9366      9364      9369      9375
      9367      9366      9364      9369      9368      9366      9364      9369
      9369      9375      9372      9373      9369      9375      9372      9374
      9369      9375      9372      9376      9370      9369      9375      9372
      9371      9369      9375      9372      9372      9376      9377      9378
      9372      9376      9377      9379      9372      9376      9377      9380
      9373      9372      9376      9377      9374      9372      9376      9377
      9375      9372      9376      9377      9376      9377      9380      9381
      9376      9377      9380      9382      9376      9377      9380      9388
      9377      9380      9382      9383      9377      9380      9388      9389
      9377      9380      9388      9390      9377      9380      9388      9391
      9378      9377      9380      9381      9378      9377      9380      9382
      9378      9377      9380      9388      9379      9377      9380      9381
      9379      9377      9380      9382      9379      9377      9380      9388
      9380      9382      9383      9384      9380      9382      9383      9385
      9380      9388      9391      9392      9381      9380      9382      9383
      9381      9380      9388      9389      9381      9380      9388      9390
      9381      9380      9388      9391      9382      9380      9388      9389
      9382      9380      9388      9390      9382      9380      9388      9391
      9382      9383      9385      9386      9382      9383      9385      9387
      9382      9383      9385      9397      9383      9382      9380      9388
      9383      9385      9397      9398      9383      9385      9397      9399
      9383      9385      9397      9400      9384      9383      9385      9386
      9384      9383      9385      9387      9384      9383      9385      9397
      9385      9397      9400      9401      9385      9397      9400      9402
      9385      9397      9400      9403      9386      9385      9397      9398
      9386      9385      9397      9399      9386      9385      9397      9400
      9387      9385      9397      9398      9387      9385      9397      9399
      9387      9385      9397      9400      9388      9391      9392      9393
      9388      9391      9392      9394      9389      9388      9391      9392
      9390      9388      9391      9392      9391      9392      9394      9395
      9391      9392      9394      9396      9391      9392      9394      9444
      9392      9394      9444      9445      9392      9394      9444      9446
      9392      9394      9444      9447      9393      9392      9394      9395
      9393      9392      9394      9396      9393      9392      9394      9444
      9394      9444      9447      9448      9394      9444      9447      9449
      9394      9444      9447      9450      9395      9394      9444      9445
      9395      9394      9444      9446      9395      9394      9444      9447
      9396      9394      9444      9445      9396      9394      9444      9446
      9396      9394      9444      9447      9397      9400      9403      9404
      9397      9400      9403      9405      9397      9400      9403      9406
      9398      9397      9400      9401      9398      9397      9400      9402
      9398      9397      9400      9403      9399      9397      9400      9401
      9399      9397      9400      9402      9399      9397      9400      9403
      9400      9403      9406      9407      9400      9403      9406      9408
      9400      9403      9406      9409      9401      9400      9403      9404
      9401      9400      9403      9405      9401      9400      9403      9406
      9402      9400      9403      9404      9402      9400      9403      9405
      9402      9400      9403      9406      9403      9406      9409      9410
      9403      9406      9409      9411      9403      9406      9409      9412
      9404      9403      9406      9407      9404      9403      9406      9408
      9404      9403      9406      9409      9405      9403      9406      9407
      9405      9403      9406      9408      9405      9403      9406      9409
      9406      9409      9412      9413      9406      9409      9412      9414
      9406      9409      9412      9415      9407      9406      9409      9410
      9407      9406      9409      9411      9407      9406      9409      9412
      9408      9406      9409      9410      9408      9406      9409      9411
      9408      9406      9409      9412      9409      9412      9415      9416
      9409      9412      9415      9417      9410      9409      9412      9413
      9410      9409      9412      9414      9410      9409      9412      9415
      9411      9409      9412      9413      9411      9409      9412      9414
      9411      9409      9412      9415      9412      9415      9417      9418
      9412      9415      9417      9419      9413      9412      9415      9416
      9413      9412      9415      9417      9414      9412      9415      9416
      9414      9412      9415      9417      9415      9417      9419      9420
      9415      9417      9419      9421      9415      9417      9419      9422
      9416      9415      9417      9418      9416      9415      9417      9419
      9417      9419      9422      9423      9417      9419      9422      9424
      9417      9419      9422      9425      9418      9417      9419      9420
      9418      9417      9419      9421      9418      9417      9419      9422
      9419      9422      9425      9426      9419      9422      9425      9427
      9419      9422      9425      9428      9420      9419      9422      9423
      9420      9419      9422      9424      9420      9419      9422      9425
      9421      9419      9422      9423      9421      9419      9422      9424
      9421      9419      9422      9425      9422      9425      9428      9429
      9422      9425      9428      9430      9422      9425      9428      9431
      9423      9422      9425      9426      9423      9422      9425      9427
      9423      9422      9425      9428      9424      9422      9425      9426
      9424      9422      9425      9427      9424      9422      9425      9428
      9425      9428      9431      9432      9425      9428      9431      9433
      9425      9428      9431      9434      9426      9425      9428      9429
      9426      9425      9428      9430      9426      9425      9428      9431
      9427      9425      9428      9429      9427      9425      9428      9430
      9427      9425      9428      9431      9428      9431      9434      9435
      9428      9431      9434      9436      9428      9431      9434      9437
      9429      9428      9431      9432      9429      9428      9431      9433
      9429      9428      9431      9434      9430      9428      9431      9432
      9430      9428      9431      9433      9430      9428      9431      9434
      9431      9434      9437      9438      9431      9434      9437      9439
      9431      9434      9437      9440      9432      9431      9434      9435
      9432      9431      9434      9436      9432      9431      9434      9437
      9433      9431      9434      9435      9433      9431      9434      9436
      9433      9431      9434      9437      9434      9437      9440      9441
      9434      9437      9440      9442      9434      9437      9440      9443
      9435      9434      9437      9438      9435      9434      9437      9439
      9435      9434      9437      9440      9436      9434      9437      9438
      9436      9434      9437      9439      9436      9434      9437      9440
      9438      9437      9440      9441      9438      9437      9440      9442
      9438      9437      9440      9443      9439      9437      9440      9441
      9439      9437      9440      9442      9439      9437      9440      9443
      9444      9447      9450      9451      9444      9447      9450      9452
      9444      9447      9450      9453      9445      9444      9447      9448
      9445      9444      9447      9449      9445      9444      9447      9450
      9446      9444      9447      9448      9446      9444      9447      9449
      9446      9444      9447      9450      9447      9450      9453      9454
      9447      9450      9453      9455      9447      9450      9453      9456
      9448      9447      9450      9451      9448      9447      9450      9452
      9448      9447      9450      9453      9449      9447      9450      9451
      9449      9447      9450      9452      9449      9447      9450      9453
      9450      9453      9456      9457      9450      9453      9456      9458
      9450      9453      9456      9459      9451      9450      9453      9454
      9451      9450      9453      9455      9451      9450      9453      9456
      9452      9450      9453      9454      9452      9450      9453      9455
      9452      9450      9453      9456      9453      9456      9459      9460
      9453      9456      9459      9461      9453      9456      9459      9462
      9454      9453      9456      9457      9454      9453      9456      9458
      9454      9453      9456      9459      9455      9453      9456      9457
      9455      9453      9456      9458      9455      9453      9456      9459
      9456      9459      9462      9463      9456      9459      9462      9464
      9456      9459      9462      9465      9457      9456      9459      9460
      9457      9456      9459      9461      9457      9456      9459      9462
      9458      9456      9459      9460      9458      9456      9459      9461
      9458      9456      9459      9462      9459      9462      9465      9466
      9459      9462      9465      9467      9459      9462      9465      9468
      9460      9459      9462      9463      9460      9459      9462      9464
      9460      9459      9462      9465      9461      9459      9462      9463
      9461      9459      9462      9464      9461      9459      9462      9465
      9462      9465      9468      9469      9462      9465      9468      9470
      9462      9465      9468      9471      9463      9462      9465      9466
      9463      9462      9465      9467      9463      9462      9465      9468
      9464      9462      9465      9466      9464      9462      9465      9467
      9464      9462      9465      9468      9465      9468      9471      9472
      9465      9468      9471      9473      9465      9468      9471      9474
      9466      9465      9468      9469      9466      9465      9468      9470
      9466      9465      9468      9471      9467      9465      9468      9469
      9467      9465      9468      9470      9467      9465      9468      9471
      9468      9471      9474      9475      9468      9471      9474      9476
      9468      9471      9474      9477      9469      9468      9471      9472
      9469      9468      9471      9473      9469      9468      9471      9474
      9470      9468      9471      9472      9470      9468      9471      9473
      9470      9468      9471      9474      9471      9474      9477      9478
      9471      9474      9477      9479      9471      9474      9477      9480
      9472      9471      9474      9475      9472      9471      9474      9476
      9472      9471      9474      9477      9473      9471      9474      9475
      9473      9471      9474      9476      9473      9471      9474      9477
      9474      9477      9480      9481      9474      9477      9480      9482
      9474      9477      9480      9483      9475      9474      9477      9478
      9475      9474      9477      9479      9475      9474      9477      9480
      9476      9474      9477      9478      9476      9474      9477      9479
      9476      9474      9477      9480      9477      9480      9483      9484
      9477      9480      9483      9485      9477      9480      9483      9486
      9478      9477      9480      9481      9478      9477      9480      9482
      9478      9477      9480      9483      9479      9477      9480      9481
      9479      9477      9480      9482      9479      9477      9480      9483
      9481      9480      9483      9484      9481      9480      9483      9485
      9481      9480      9483      9486      9482      9480      9483      9484
      9482      9480      9483      9485      9482      9480      9483      9486
       593       597       600       601       593       597       600       631
       593       639       636       631       593       639       636       637
       593       639       636       638       594       593       595       596
       594       593       597       598       594       593       597       599
       594       593       597       600       594       593       639       636
       594       593       639       640       594       593       639       641
       595       593       597       598       595       593       597       599
       595       593       597       600       595       593       639       636
       595       593       639       640       595       593       639       641
       596       595       593       597       596       595       593       639
       597       593       639       636       597       593       639       640
       597       593       639       641       597       600       601       602
       597       600       601       603       597       600       631       629
       597       600       631       632       597       600       631       636
       598       597       593       639       598       597       600       601
       598       597       600       631       599       597       593       639
       599       597       600       601       599       597       600       631
       600       597       593       639       600       601       603       604
       600       601       603       605       600       601       603       606
       600       631       629       606       600       631       629       626
       600       631       629       630       600       631       632       633
       600       631       632       634       600       631       632       635
       600       631       636       637       600       631       636       638
       600       631       636       639       601       600       631       629
       601       600       631       632       601       600       631       636
       601       603       606       607       601       603       606       608
       601       603       606       629       602       601       600       631
       602       601       603       604       602       601       603       605
       602       601       603       606       603       601       600       631
       603       606       608       609       603       606       608       610
       603       606       608       618       603       606       629       626
       603       606       629       630       603       606       629       631
       604       603       606       607       604       603       606       608
       604       603       606       629       605       603       606       607
       605       603       606       608       605       603       606       629
       606       608       610       611       606       608       610       612
       606       608       610       613       606       608       618       616
       606       608       618       619       606       608       618       623
       606       629       626       623       606       629       626       627
       606       629       626       628       606       629       631       632
       606       629       631       636       607       606       608       609
       607       606       608       610       607       606       608       618
       607       606       629       626       607       606       629       630
       607       606       629       631       608       606       629       626
       608       606       629       630       608       606       629       631
       608       610       613       614       608       610       613       615
       608       610       613       616       608       618       616       613
       608       618       616       617       608       618       616       642
       608       618       619       620       608       618       619       621
       608       618       619       622       608       618       623       624
       608       618       623       625       608       618       623       626
       609       608       606       629       609       608       610       611
       609       608       610       612       609       608       610       613
       609       608       618       616       609       608       618       619
       609       608       618       623       610       608       606       629
       610       608       618       616       610       608       618       619
       610       608       618       623       610       613       616       617
       610       613       616       618       610       613       616       642
       611       610       608       618       611       610       613       614
       611       610       613       615       611       610       613       616
       612       610       608       618       612       610       613       614
       612       610       613       615       612       610       613       616
       613       610       608       618       613       616       618       619
       613       616       618       623       613       616       642       643
       613       616       642       644       613       616       642       648
       614       613       616       617       614       613       616       618
       614       613       616       642       615       613       616       617
       615       613       616       618       615       613       616       642
       616       618       619       620       616       618       619       621
       616       618       619       622       616       618       623       624
       616       618       623       625       616       618       623       626
       616       642       644       645       616       642       644       646
       616       642       644       647       616       642       648       649
       616       642       648       650       616       642       648       651
       617       616       618       619       617       616       618       623
       617       616       642       643       617       616       642       644
       617       616       642       648       618       608       606       629
       618       616       642       643       618       616       642       644
       618       616       642       648       618       623       626       627
       618       623       626       628       618       623       626       629
       619       618       616       642       619       618       623       624
       619       618       623       625       619       618       623       626
       620       619       618       623       621       619       618       623
       622       619       618       623       623       618       616       642
       623       626       629       630       623       626       629       631
       624       623       626       627       624       623       626       628
       624       623       626       629       625       623       626       627
       625       623       626       628       625       623       626       629
       626       629       631       632       626       629       631       636
       627       626       629       630       627       626       629       631
       628       626       629       630       628       626       629       631
       629       631       632       633       629       631       632       634
       629       631       632       635       629       631       636       637
       629       631       636       638       629       631       636       639
       630       629       631       632       630       629       631       636
       631       636       639       640       631       636       639       641
       632       631       636       637       632       631       636       638
       632       631       636       639       633       632       631       636
       634       632       631       636       635       632       631       636
       637       636       639       640       637       636       639       641
       638       636       639       640       638       636       639       641
       642       648       651       652       642       648       651       653
       642       648       651       654       643       642       644       645
       643       642       644       646       643       642       644       647
       643       642       648       649       643       642       648       650
       643       642       648       651       644       642       648       649
       644       642       648       650       644       642       648       651
       645       644       642       648       646       644       642       648
       647       644       642       648       648       651       654       655
       648       651       654       656       648       651       654       657
       649       648       651       652       649       648       651       653
       649       648       651       654       650       648       651       652
       650       648       651       653       650       648       651       654
       651       654       657       658       651       654       657       659
       651       654       657       663       652       651       654       655
       652       651       654       656       652       651       654       657
       653       651       654       655       653       651       654       656
       653       651       654       657       654       657       659       660
       654       657       659       661       654       657       659       662
       654       657       663       664       654       657       663       665
       654       657       663       666       655       654       657       658
       655       654       657       659       655       654       657       663
       656       654       657       658       656       654       657       659
       656       654       657       663       658       657       659       660
       658       657       659       661       658       657       659       662
       658       657       663       664       658       657       663       665
       658       657       663       666       659       657       663       664
       659       657       663       665       659       657       663       666
       660       659       657       663       661       659       657       663
       662       659       657       663     23215     23228     23231     23232
     23215     23228     23231     23233     23215     23228     23231     23238
     23216     23215     23220     23221     23216     23215     23220     23222
     23216     23215     23220     23223     23216     23215     23224     23225
     23216     23215     23224     23226     23216     23215     23224     23227
     23216     23215     23228     23229     23216     23215     23228     23230
     23216     23215     23228     23231     23217     23216     23215     23220
     23217     23216     23215     23224     23217     23216     23215     23228
     23218     23216     23215     23220     23218     23216     23215     23224
     23218     23216     23215     23228     23219     23216     23215     23220
     23219     23216     23215     23224     23219     23216     23215     23228
     23220     23215     23224     23225     23220     23215     23224     23226
     23220     23215     23224     23227     23220     23215     23228     23229
     23220     23215     23228     23230     23220     23215     23228     23231
     23221     23220     23215     23224     23221     23220     23215     23228
     23222     23220     23215     23224     23222     23220     23215     23228
     23223     23220     23215     23224     23223     23220     23215     23228
     23224     23215     23228     23229     23224     23215     23228     23230
     23224     23215     23228     23231     23225     23224     23215     23228
     23226     23224     23215     23228     23227     23224     23215     23228
     23228     23231     23238     23234     23229     23228     23231     23232
     23229     23228     23231     23233     23229     23228     23231     23238
     23230     23228     23231     23232     23230     23228     23231     23233
     23230     23228     23231     23238     23231     23238     23234     23235
     23231     23238     23234     23236     23231     23238     23234     23237
     23232     23231     23238     23234     23233     23231     23238     23234
     23234     23237     23239     23240     23234     23237     23239     23241
     23234     23237     23239     23244     23235     23234     23237     23239
     23236     23234     23237     23239     23237     23239     23244     23242
     23237     23239     23244     23245     23237     23239     23244     23246
     23238     23234     23237     23239     23239     23244     23242     23243
     23239     23244     23242     23294     23239     23244     23246     23247
     23239     23244     23246     23248     23239     23244     23246     23250
     23240     23239     23244     23242     23240     23239     23244     23245
     23240     23239     23244     23246     23241     23239     23244     23242
     23241     23239     23244     23245     23241     23239     23244     23246
     23242     23244     23246     23247     23242     23244     23246     23248
     23242     23244     23246     23250     23242     23294     23296     23297
     23242     23294     23296     23298     23242     23294     23296     23299
     23243     23242     23244     23245     23243     23242     23244     23246
     23243     23242     23294     23295     23243     23242     23294     23296
     23244     23242     23294     23295     23244     23242     23294     23296
     23244     23246     23248     23249     23244     23246     23250     23251
     23244     23246     23250     23252     23245     23244     23242     23294
     23245     23244     23246     23247     23245     23244     23246     23248
     23245     23244     23246     23250     23246     23244     23242     23294
     23246     23250     23252     23253     23246     23250     23252     23254
     23247     23246     23248     23249     23247     23246     23250     23251
     23247     23246     23250     23252     23248     23246     23250     23251
     23248     23246     23250     23252     23249     23248     23246     23250
     23250     23252     23254     23255     23250     23252     23254     23256
     23250     23252     23254     23257     23251     23250     23252     23253
     23251     23250     23252     23254     23252     23254     23257     23258
     23252     23254     23257     23259     23252     23254     23257     23260
     23253     23252     23254     23255     23253     23252     23254     23256
     23253     23252     23254     23257     23254     23257     23260     23261
     23254     23257     23260     23262     23254     23257     23260     23263
     23255     23254     23257     23258     23255     23254     23257     23259
     23255     23254     23257     23260     23256     23254     23257     23258
     23256     23254     23257     23259     23256     23254     23257     23260
     23257     23260     23263     23264     23257     23260     23263     23265
     23257     23260     23263     23266     23258     23257     23260     23261
     23258     23257     23260     23262     23258     23257     23260     23263
     23259     23257     23260     23261     23259     23257     23260     23262
     23259     23257     23260     23263     23260     23263     23266     23267
     23260     23263     23266     23268     23260     23263     23266     23269
     23261     23260     23263     23264     23261     23260     23263     23265
     23261     23260     23263     23266     23262     23260     23263     23264
     23262     23260     23263     23265     23262     23260     23263     23266
     23263     23266     23269     23270     23263     23266     23269     23271
     23263     23266     23269     23272     23264     23263     23266     23267
     23264     23263     23266     23268     23264     23263     23266     23269
     23265     23263     23266     23267     23265     23263     23266     23268
     23265     23263     23266     23269     23266     23269     23272     23273
     23266     23269     23272     23274     23266     23269     23272     23275
     23267     23266     23269     23270     23267     23266     23269     23271
     23267     23266     23269     23272     23268     23266     23269     23270
     23268     23266     23269     23271     23268     23266     23269     23272
     23269     23272     23275     23276     23269     23272     23275     23277
     23269     23272     23275     23278     23270     23269     23272     23273
     23270     23269     23272     23274     23270     23269     23272     23275
     23271     23269     23272     23273     23271     23269     23272     23274
     23271     23269     23272     23275     23272     23275     23278     23279
     23272     23275     23278     23280     23272     23275     23278     23281
     23273     23272     23275     23276     23273     23272     23275     23277
     23273     23272     23275     23278     23274     23272     23275     23276
     23274     23272     23275     23277     23274     23272     23275     23278
     23275     23278     23281     23282     23275     23278     23281     23283
     23275     23278     23281     23284     23276     23275     23278     23279
     23276     23275     23278     23280     23276     23275     23278     23281
     23277     23275     23278     23279     23277     23275     23278     23280
     23277     23275     23278     23281     23278     23281     23284     23285
     23278     23281     23284     23286     23278     23281     23284     23287
     23279     23278     23281     23282     23279     23278     23281     23283
     23279     23278     23281     23284     23280     23278     23281     23282
     23280     23278     23281     23283     23280     23278     23281     23284
     23281     23284     23287     23288     23281     23284     23287     23289
     23281     23284     23287     23290     23282     23281     23284     23285
     23282     23281     23284     23286     23282     23281     23284     23287
     23283     23281     23284     23285     23283     23281     23284     23286
     23283     23281     23284     23287     23284     23287     23290     23291
     23284     23287     23290     23292     23284     23287     23290     23293
     23285     23284     23287     23288     23285     23284     23287     23289
     23285     23284     23287     23290     23286     23284     23287     23288
     23286     23284     23287     23289     23286     23284     23287     23290
     23288     23287     23290     23291     23288     23287     23290     23292
     23288     23287     23290     23293     23289     23287     23290     23291
     23289     23287     23290     23292     23289     23287     23290     23293
     23294     23296     23299     23300     23294     23296     23299     23301
     23294     23296     23299     23302     23295     23294     23296     23297
     23295     23294     23296     23298     23295     23294     23296     23299
     23296     23299     23302     23303     23296     23299     23302     23304
     23296     23299     23302     23305     23297     23296     23299     23300
     23297     23296     23299     23301     23297     23296     23299     23302
     23298     23296     23299     23300     23298     23296     23299     23301
     23298     23296     23299     23302     23299     23302     23305     23306
     23299     23302     23305     23307     23299     23302     23305     23308
     23300     23299     23302     23303     23300     23299     23302     23304
     23300     23299     23302     23305     23301     23299     23302     23303
     23301     23299     23302     23304     23301     23299     23302     23305
     23302     23305     23308     23309     23302     23305     23308     23310
     23302     23305     23308     23311     23303     23302     23305     23306
     23303     23302     23305     23307     23303     23302     23305     23308
     23304     23302     23305     23306     23304     23302     23305     23307
     23304     23302     23305     23308     23305     23308     23311     23312
     23305     23308     23311     23313     23305     23308     23311     23314
     23306     23305     23308     23309     23306     23305     23308     23310
     23306     23305     23308     23311     23307     23305     23308     23309
     23307     23305     23308     23310     23307     23305     23308     23311
     23308     23311     23314     23315     23308     23311     23314     23316
     23308     23311     23314     23317     23309     23308     23311     23312
     23309     23308     23311     23313     23309     23308     23311     23314
     23310     23308     23311     23312     23310     23308     23311     23313
     23310     23308     23311     23314     23311     23314     23317     23318
     23311     23314     23317     23319     23311     23314     23317     23320
     23312     23311     23314     23315     23312     23311     23314     23316
     23312     23311     23314     23317     23313     23311     23314     23315
     23313     23311     23314     23316     23313     23311     23314     23317
     23314     23317     23320     23321     23314     23317     23320     23322
     23314     23317     23320     23323     23315     23314     23317     23318
     23315     23314     23317     23319     23315     23314     23317     23320
     23316     23314     23317     23318     23316     23314     23317     23319
     23316     23314     23317     23320     23317     23320     23323     23324
     23317     23320     23323     23325     23317     23320     23323     23326
     23318     23317     23320     23321     23318     23317     23320     23322
     23318     23317     23320     23323     23319     23317     23320     23321
     23319     23317     23320     23322     23319     23317     23320     23323
     23320     23323     23326     23327     23320     23323     23326     23328
     23320     23323     23326     23329     23321     23320     23323     23324
     23321     23320     23323     23325     23321     23320     23323     23326
     23322     23320     23323     23324     23322     23320     23323     23325
     23322     23320     23323     23326     23323     23326     23329     23330
     23323     23326     23329     23331     23323     23326     23329     23332
     23324     23323     23326     23327     23324     23323     23326     23328
     23324     23323     23326     23329     23325     23323     23326     23327
     23325     23323     23326     23328     23325     23323     23326     23329
     23326     23329     23332     23333     23326     23329     23332     23334
     23326     23329     23332     23335     23327     23326     23329     23330
     23327     23326     23329     23331     23327     23326     23329     23332
     23328     23326     23329     23330     23328     23326     23329     23331
     23328     23326     23329     23332     23329     23332     23335     23336
     23329     23332     23335     23337     23329     23332     23335     23338
     23330     23329     23332     23333     23330     23329     23332     23334
     23330     23329     23332     23335     23331     23329     23332     23333
     23331     23329     23332     23334     23331     23329     23332     23335
     23332     23335     23338     23339     23332     23335     23338     23340
     23332     23335     23338     23341     23333     23332     23335     23336
     23333     23332     23335     23337     23333     23332     23335     23338
     23334     23332     23335     23336     23334     23332     23335     23337
     23334     23332     23335     23338     23336     23335     23338     23339
     23336     23335     23338     23340     23336     23335     23338     23341
     23337     23335     23338     23339     23337     23335     23338     23340
     23337     23335     23338     23341      9487      9491      9493      9494
      9487      9491      9493      9495      9487      9491      9496      9497
      9487      9491      9496      9498      9487      9491      9496      9502
      9488      9487      9491      9492      9488      9487      9491      9493
      9488      9487      9491      9496      9489      9487      9491      9492
      9489      9487      9491      9493      9489      9487      9491      9496
      9490      9487      9491      9492      9490      9487      9491      9493
      9490      9487      9491      9496      9491      9496      9502      9499
      9492      9491      9493      9494      9492      9491      9493      9495
      9492      9491      9496      9497      9492      9491      9496      9498
      9492      9491      9496      9502      9493      9491      9496      9497
      9493      9491      9496      9498      9493      9491      9496      9502
      9494      9493      9491      9496      9495      9493      9491      9496
      9496      9502      9499      9500      9496      9502      9499      9501
      9496      9502      9499      9503      9497      9496      9502      9499
      9498      9496      9502      9499      9499      9503      9504      9505
      9499      9503      9504      9506      9499      9503      9504      9507
      9500      9499      9503      9504      9501      9499      9503      9504
      9502      9499      9503      9504      9503      9504      9507      9508
      9503      9504      9507      9509      9503      9504      9507      9515
      9504      9507      9509      9510      9504      9507      9515      9516
      9504      9507      9515      9517      9504      9507      9515      9518
      9505      9504      9507      9508      9505      9504      9507      9509
      9505      9504      9507      9515      9506      9504      9507      9508
      9506      9504      9507      9509      9506      9504      9507      9515
      9507      9509      9510      9511      9507      9509      9510      9512
      9507      9515      9518      9519      9508      9507      9509      9510
      9508      9507      9515      9516      9508      9507      9515      9517
      9508      9507      9515      9518      9509      9507      9515      9516
      9509      9507      9515      9517      9509      9507      9515      9518
      9509      9510      9512      9513      9509      9510      9512      9514
      9509      9510      9512      9524      9510      9509      9507      9515
      9510      9512      9524      9525      9510      9512      9524      9526
      9510      9512      9524      9527      9511      9510      9512      9513
      9511      9510      9512      9514      9511      9510      9512      9524
      9512      9524      9527      9528      9512      9524      9527      9529
      9512      9524      9527      9530      9513      9512      9524      9525
      9513      9512      9524      9526      9513      9512      9524      9527
      9514      9512      9524      9525      9514      9512      9524      9526
      9514      9512      9524      9527      9515      9518      9519      9520
      9515      9518      9519      9521      9516      9515      9518      9519
      9517      9515      9518      9519      9518      9519      9521      9522
      9518      9519      9521      9523      9518      9519      9521      9571
      9519      9521      9571      9572      9519      9521      9571      9573
      9519      9521      9571      9574      9520      9519      9521      9522
      9520      9519      9521      9523      9520      9519      9521      9571
      9521      9571      9574      9575      9521      9571      9574      9576
      9521      9571      9574      9577      9522      9521      9571      9572
      9522      9521      9571      9573      9522      9521      9571      9574
      9523      9521      9571      9572      9523      9521      9571      9573
      9523      9521      9571      9574      9524      9527      9530      9531
      9524      9527      9530      9532      9524      9527      9530      9533
      9525      9524      9527      9528      9525      9524      9527      9529
      9525      9524      9527      9530      9526      9524      9527      9528
      9526      9524      9527      9529      9526      9524      9527      9530
      9527      9530      9533      9534      9527      9530      9533      9535
      9527      9530      9533      9536      9528      9527      9530      9531
      9528      9527      9530      9532      9528      9527      9530      9533
      9529      9527      9530      9531      9529      9527      9530      9532
      9529      9527      9530      9533      9530      9533      9536      9537
      9530      9533      9536      9538      9530      9533      9536      9539
      9531      9530      9533      9534      9531      9530      9533      9535
      9531      9530      9533      9536      9532      9530      9533      9534
      9532      9530      9533      9535      9532      9530      9533      9536
      9533      9536      9539      9540      9533      9536      9539      9541
      9533      9536      9539      9542      9534      9533      9536      9537
      9534      9533      9536      9538      9534      9533      9536      9539
      9535      9533      9536      9537      9535      9533      9536      9538
      9535      9533      9536      9539      9536      9539      9542      9543
      9536      9539      9542      9544      9537      9536      9539      9540
      9537      9536      9539      9541      9537      9536      9539      9542
      9538      9536      9539      9540      9538      9536      9539      9541
      9538      9536      9539      9542      9539      9542      9544      9545
      9539      9542      9544      9546      9540      9539      9542      9543
      9540      9539      9542      9544      9541      9539      9542      9543
      9541      9539      9542      9544      9542      9544      9546      9547
      9542      9544      9546      9548      9542      9544      9546      9549
      9543      9542      9544      9545      9543      9542      9544      9546
      9544      9546      9549      9550      9544      9546      9549      9551
      9544      9546      9549      9552      9545      9544      9546      9547
      9545      9544      9546      9548      9545      9544      9546      9549
      9546      9549      9552      9553      9546      9549      9552      9554
      9546      9549      9552      9555      9547      9546      9549      9550
      9547      9546      9549      9551      9547      9546      9549      9552
      9548      9546      9549      9550      9548      9546      9549      9551
      9548      9546      9549      9552      9549      9552      9555      9556
      9549      9552      9555      9557      9549      9552      9555      9558
      9550      9549      9552      9553      9550      9549      9552      9554
      9550      9549      9552      9555      9551      9549      9552      9553
      9551      9549      9552      9554      9551      9549      9552      9555
      9552      9555      9558      9559      9552      9555      9558      9560
      9552      9555      9558      9561      9553      9552      9555      9556
      9553      9552      9555      9557      9553      9552      9555      9558
      9554      9552      9555      9556      9554      9552      9555      9557
      9554      9552      9555      9558      9555      9558      9561      9562
      9555      9558      9561      9563      9555      9558      9561      9564
      9556      9555      9558      9559      9556      9555      9558      9560
      9556      9555      9558      9561      9557      9555      9558      9559
      9557      9555      9558      9560      9557      9555      9558      9561
      9558      9561      9564      9565      9558      9561      9564      9566
      9558      9561      9564      9567      9559      9558      9561      9562
      9559      9558      9561      9563      9559      9558      9561      9564
      9560      9558      9561      9562      9560      9558      9561      9563
      9560      9558      9561      9564      9561      9564      9567      9568
      9561      9564      9567      9569      9561      9564      9567      9570
      9562      9561      9564      9565      9562      9561      9564      9566
      9562      9561      9564      9567      9563      9561      9564      9565
      9563      9561      9564      9566      9563      9561      9564      9567
      9565      9564      9567      9568      9565      9564      9567      9569
      9565      9564      9567      9570      9566      9564      9567      9568
      9566      9564      9567      9569      9566      9564      9567      9570
      9571      9574      9577      9578      9571      9574      9577      9579
      9571      9574      9577      9580      9572      9571      9574      9575
      9572      9571      9574      9576      9572      9571      9574      9577
      9573      9571      9574      9575      9573      9571      9574      9576
      9573      9571      9574      9577      9574      9577      9580      9581
      9574      9577      9580      9582      9574      9577      9580      9583
      9575      9574      9577      9578      9575      9574      9577      9579
      9575      9574      9577      9580      9576      9574      9577      9578
      9576      9574      9577      9579      9576      9574      9577      9580
      9577      9580      9583      9584      9577      9580      9583      9585
      9577      9580      9583      9586      9578      9577      9580      9581
      9578      9577      9580      9582      9578      9577      9580      9583
      9579      9577      9580      9581      9579      9577      9580      9582
      9579      9577      9580      9583      9580      9583      9586      9587
      9580      9583      9586      9588      9580      9583      9586      9589
      9581      9580      9583      9584      9581      9580      9583      9585
      9581      9580      9583      9586      9582      9580      9583      9584
      9582      9580      9583      9585      9582      9580      9583      9586
      9583      9586      9589      9590      9583      9586      9589      9591
      9583      9586      9589      9592      9584      9583      9586      9587
      9584      9583      9586      9588      9584      9583      9586      9589
      9585      9583      9586      9587      9585      9583      9586      9588
      9585      9583      9586      9589      9586      9589      9592      9593
      9586      9589      9592      9594      9586      9589      9592      9595
      9587      9586      9589      9590      9587      9586      9589      9591
      9587      9586      9589      9592      9588      9586      9589      9590
      9588      9586      9589      9591      9588      9586      9589      9592
      9589      9592      9595      9596      9589      9592      9595      9597
      9589      9592      9595      9598      9590      9589      9592      9593
      9590      9589      9592      9594      9590      9589      9592      9595
      9591      9589      9592      9593      9591      9589      9592      9594
      9591      9589      9592      9595      9592      9595      9598      9599
      9592      9595      9598      9600      9592      9595      9598      9601
      9593      9592      9595      9596      9593      9592      9595      9597
      9593      9592      9595      9598      9594      9592      9595      9596
      9594      9592      9595      9597      9594      9592      9595      9598
      9595      9598      9601      9602      9595      9598      9601      9603
      9595      9598      9601      9604      9596      9595      9598      9599
      9596      9595      9598      9600      9596      9595      9598      9601
      9597      9595      9598      9599      9597      9595      9598      9600
      9597      9595      9598      9601      9598      9601      9604      9605
      9598      9601      9604      9606      9598      9601      9604      9607
      9599      9598      9601      9602      9599      9598      9601      9603
      9599      9598      9601      9604      9600      9598      9601      9602
      9600      9598      9601      9603      9600      9598      9601      9604
      9601      9604      9607      9608      9601      9604      9607      9609
      9601      9604      9607      9610      9602      9601      9604      9605
      9602      9601      9604      9606      9602      9601      9604      9607
      9603      9601      9604      9605      9603      9601      9604      9606
      9603      9601      9604      9607      9604      9607      9610      9611
      9604      9607      9610      9612      9604      9607      9610      9613
      9605      9604      9607      9608      9605      9604      9607      9609
      9605      9604      9607      9610      9606      9604      9607      9608
      9606      9604      9607      9609      9606      9604      9607      9610
      9608      9607      9610      9611      9608      9607      9610      9612
      9608      9607      9610      9613      9609      9607      9610      9611
      9609      9607      9610      9612      9609      9607      9610      9613
       667       671       674       675       667       671       674       705
       667       713       710       705       667       713       710       711
       667       713       710       712       668       667       669       670
       668       667       671       672       668       667       671       673
       668       667       671       674       668       667       713       710
       668       667       713       714       668       667       713       715
       669       667       671       672       669       667       671       673
       669       667       671       674       669       667       713       710
       669       667       713       714       669       667       713       715
       670       669       667       671       670       669       667       713
       671       667       713       710       671       667       713       714
       671       667       713       715       671       674       675       676
       671       674       675       677       671       674       705       703
       671       674       705       706       671       674       705       710
       672       671       667       713       672       671       674       675
       672       671       674       705       673       671       667       713
       673       671       674       675       673       671       674       705
       674       671       667       713       674       675       677       678
       674       675       677       679       674       675       677       680
       674       705       703       680       674       705       703       700
       674       705       703       704       674       705       706       707
       674       705       706       708       674       705       706       709
       674       705       710       711       674       705       710       712
       674       705       710       713       675       674       705       703
       675       674       705       706       675       674       705       710
       675       677       680       681       675       677       680       682
       675       677       680       703       676       675       674       705
       676       675       677       678       676       675       677       679
       676       675       677       680       677       675       674       705
       677       680       682       683       677       680       682       684
       677       680       682       692       677       680       703       700
       677       680       703       704       677       680       703       705
       678       677       680       681       678       677       680       682
       678       677       680       703       679       677       680       681
       679       677       680       682       679       677       680       703
       680       682       684       685       680       682       684       686
       680       682       684       687       680       682       692       690
       680       682       692       693       680       682       692       697
       680       703       700       697       680       703       700       701
       680       703       700       702       680       703       705       706
       680       703       705       710       681       680       682       683
       681       680       682       684       681       680       682       692
       681       680       703       700       681       680       703       704
       681       680       703       705       682       680       703       700
       682       680       703       704       682       680       703       705
       682       684       687       688       682       684       687       689
       682       684       687       690       682       692       690       687
       682       692       690       691       682       692       690       716
       682       692       693       694       682       692       693       695
       682       692       693       696       682       692       697       698
       682       692       697       699       682       692       697       700
       683       682       680       703       683       682       684       685
       683       682       684       686       683       682       684       687
       683       682       692       690       683       682       692       693
       683       682       692       697       684       682       680       703
       684       682       692       690       684       682       692       693
       684       682       692       697       684       687       690       691
       684       687       690       692       684       687       690       716
       685       684       682       692       685       684       687       688
       685       684       687       689       685       684       687       690
       686       684       682       692       686       684       687       688
       686       684       687       689       686       684       687       690
       687       684       682       692       687       690       692       693
       687       690       692       697       687       690       716       717
       687       690       716       718       687       690       716       722
       688       687       690       691       688       687       690       692
       688       687       690       716       689       687       690       691
       689       687       690       692       689       687       690       716
       690       692       693       694       690       692       693       695
       690       692       693       696       690       692       697       698
       690       692       697       699       690       692       697       700
       690       716       718       719       690       716       718       720
       690       716       718       721       690       716       722       723
       690       716       722       724       690       716       722       725
       691       690       692       693       691       690       692       697
       691       690       716       717       691       690       716       718
       691       690       716       722       692       682       680       703
       692       690       716       717       692       690       716       718
       692       690       716       722       692       697       700       701
       692       697       700       702       692       697       700       703
       693       692       690       716       693       692       697       698
       693       692       697       699       693       692       697       700
       694       693       692       697       695       693       692       697
       696       693       692       697       697       692       690       716
       697       700       703       704       697       700       703       705
       698       697       700       701       698       697       700       702
       698       697       700       703       699       697       700       701
       699       697       700       702       699       697       700       703
       700       703       705       706       700       703       705       710
       701       700       703       704       701       700       703       705
       702       700       703       704       702       700       703       705
       703       705       706       707       703       705       706       708
       703       705       706       709       703       705       710       711
       703       705       710       712       703       705       710       713
       704       703       705       706       704       703       705       710
       705       710       713       714       705       710       713       715
       706       705       710       711       706       705       710       712
       706       705       710       713       707       706       705       710
       708       706       705       710       709       706       705       710
       711       710       713       714       711       710       713       715
       712       710       713       714       712       710       713       715
       716       722       725       726       716       722       725       727
       716       722       725       728       717       716       718       719
       717       716       718       720       717       716       718       721
       717       716       722       723       717       716       722       724
       717       716       722       725       718       716       722       723
       718       716       722       724       718       716       722       725
       719       718       716       722       720       718       716       722
       721       718       716       722       722       725       728       729
       722       725       728       730       722       725       728       731
       723       722       725       726       723       722       725       727
       723       722       725       728       724       722       725       726
       724       722       725       727       724       722       725       728
       725       728       731       732       725       728       731       733
       725       728       731       737       726       725       728       729
       726       725       728       730       726       725       728       731
       727       725       728       729       727       725       728       730
       727       725       728       731       728       731       733       734
       728       731       733       735       728       731       733       736
       728       731       737       738       728       731       737       739
       728       731       737       740       729       728       731       732
       729       728       731       733       729       728       731       737
       730       728       731       732       730       728       731       733
       730       728       731       737       732       731       733       734
       732       731       733       735       732       731       733       736
       732       731       737       738       732       731       737       739
       732       731       737       740       733       731       737       738
       733       731       737       739       733       731       737       740
       734       733       731       737       735       733       731       737
       736       733       731       737     15159     15160     15175     15176
     15159     15160     15175     15177     15159     15160     15175     15181
     15160     15159     15163     15164     15160     15159     15163     15165
     15160     15159     15163     15166     15160     15159     15167     15168
     15160     15159     15167     15169     15160     15159     15167     15170
     15160     15159     15171     15172     15160     15159     15171     15173
     15160     15159     15171     15174     15160     15175     15181     15178
     15161     15160     15159     15163     15161     15160     15159     15167
     15161     15160     15159     15171     15161     15160     15175     15176
     15161     15160     15175     15177     15161     15160     15175     15181
     15162     15160     15159     15163     15162     15160     15159     15167
     15162     15160     15159     15171     15162     15160     15175     15176
     15162     15160     15175     15177     15162     15160     15175     15181
     15163     15159     15160     15175     15163     15159     15167     15168
     15163     15159     15167     15169     15163     15159     15167     15170
     15163     15159     15171     15172     15163     15159     15171     15173
     15163     15159     15171     15174     15164     15163     15159     15167
     15164     15163     15159     15171     15165     15163     15159     15167
     15165     15163     15159     15171     15166     15163     15159     15167
     15166     15163     15159     15171     15167     15159     15160     15175
     15167     15159     15171     15172     15167     15159     15171     15173
     15167     15159     15171     15174     15168     15167     15159     15171
     15169     15167     15159     15171     15170     15167     15159     15171
     15171     15159     15160     15175     15175     15181     15178     15179
     15175     15181     15178     15180     15175     15181     15178     15182
     15176     15175     15181     15178     15177     15175     15181     15178
     15178     15182     15183     15184     15178     15182     15183     15185
     15178     15182     15183     15186     15179     15178     15182     15183
     15180     15178     15182     15183     15181     15178     15182     15183
     15182     15183     15186     15187     15182     15183     15186     15188
     15182     15183     15186     15194     15183     15186     15188     15189
     15183     15186     15194     15195     15183     15186     15194     15196
     15183     15186     15194     15197     15184     15183     15186     15187
     15184     15183     15186     15188     15184     15183     15186     15194
     15185     15183     15186     15187     15185     15183     15186     15188
     15185     15183     15186     15194     15186     15188     15189     15190
     15186     15188     15189     15191     15186     15194     15197     15198
     15187     15186     15188     15189     15187     15186     15194     15195
     15187     15186     15194     15196     15187     15186     15194     15197
     15188     15186     15194     15195     15188     15186     15194     15196
     15188     15186     15194     15197     15188     15189     15191     15192
     15188     15189     15191     15193     15188     15189     15191     15203
     15189     15188     15186     15194     15189     15191     15203     15204
     15189     15191     15203     15205     15189     15191     15203     15206
     15190     15189     15191     15192     15190     15189     15191     15193
     15190     15189     15191     15203     15191     15203     15206     15207
     15191     15203     15206     15208     15191     15203     15206     15209
     15192     15191     15203     15204     15192     15191     15203     15205
     15192     15191     15203     15206     15193     15191     15203     15204
     15193     15191     15203     15205     15193     15191     15203     15206
     15194     15197     15198     15199     15194     15197     15198     15200
     15195     15194     15197     15198     15196     15194     15197     15198
     15197     15198     15200     15201     15197     15198     15200     15202
     15197     15198     15200     15250     15198     15200     15250     15251
     15198     15200     15250     15252     15198     15200     15250     15253
     15199     15198     15200     15201     15199     15198     15200     15202
     15199     15198     15200     15250     15200     15250     15253     15254
     15200     15250     15253     15255     15200     15250     15253     15256
     15201     15200     15250     15251     15201     15200     15250     15252
     15201     15200     15250     15253     15202     15200     15250     15251
     15202     15200     15250     15252     15202     15200     15250     15253
     15203     15206     15209     15210     15203     15206     15209     15211
     15203     15206     15209     15212     15204     15203     15206     15207
     15204     15203     15206     15208     15204     15203     15206     15209
     15205     15203     15206     15207     15205     15203     15206     15208
     15205     15203     15206     15209     15206     15209     15212     15213
     15206     15209     15212     15214     15206     15209     15212     15215
     15207     15206     15209     15210     15207     15206     15209     15211
     15207     15206     15209     15212     15208     15206     15209     15210
     15208     15206     15209     15211     15208     15206     15209     15212
     15209     15212     15215     15216     15209     15212     15215     15217
     15209     15212     15215     15218     15210     15209     15212     15213
     15210     15209     15212     15214     15210     15209     15212     15215
     15211     15209     15212     15213     15211     15209     15212     15214
     15211     15209     15212     15215     15212     15215     15218     15219
     15212     15215     15218     15220     15212     15215     15218     15221
     15213     15212     15215     15216     15213     15212     15215     15217
     15213     15212     15215     15218     15214     15212     15215     15216
     15214     15212     15215     15217     15214     15212     15215     15218
     15215     15218     15221     15222     15215     15218     15221     15223
     15216     15215     15218     15219     15216     15215     15218     15220
     15216     15215     15218     15221     15217     15215     15218     15219
     15217     15215     15218     15220     15217     15215     15218     15221
     15218     15221     15223     15224     15218     15221     15223     15225
     15219     15218     15221     15222     15219     15218     15221     15223
     15220     15218     15221     15222     15220     15218     15221     15223
     15221     15223     15225     15226     15221     15223     15225     15227
     15221     15223     15225     15228     15222     15221     15223     15224
     15222     15221     15223     15225     15223     15225     15228     15229
     15223     15225     15228     15230     15223     15225     15228     15231
     15224     15223     15225     15226     15224     15223     15225     15227
     15224     15223     15225     15228     15225     15228     15231     15232
     15225     15228     15231     15233     15225     15228     15231     15234
     15226     15225     15228     15229     15226     15225     15228     15230
     15226     15225     15228     15231     15227     15225     15228     15229
     15227     15225     15228     15230     15227     15225     15228     15231
     15228     15231     15234     15235     15228     15231     15234     15236
     15228     15231     15234     15237     15229     15228     15231     15232
     15229     15228     15231     15233     15229     15228     15231     15234
     15230     15228     15231     15232     15230     15228     15231     15233
     15230     15228     15231     15234     15231     15234     15237     15238
     15231     15234     15237     15239     15231     15234     15237     15240
     15232     15231     15234     15235     15232     15231     15234     15236
     15232     15231     15234     15237     15233     15231     15234     15235
     15233     15231     15234     15236     15233     15231     15234     15237
     15234     15237     15240     15241     15234     15237     15240     15242
     15234     15237     15240     15243     15235     15234     15237     15238
     15235     15234     15237     15239     15235     15234     15237     15240
     15236     15234     15237     15238     15236     15234     15237     15239
     15236     15234     15237     15240     15237     15240     15243     15244
     15237     15240     15243     15245     15237     15240     15243     15246
     15238     15237     15240     15241     15238     15237     15240     15242
     15238     15237     15240     15243     15239     15237     15240     15241
     15239     15237     15240     15242     15239     15237     15240     15243
     15240     15243     15246     15247     15240     15243     15246     15248
     15240     15243     15246     15249     15241     15240     15243     15244
     15241     15240     15243     15245     15241     15240     15243     15246
     15242     15240     15243     15244     15242     15240     15243     15245
     15242     15240     15243     15246     15244     15243     15246     15247
     15244     15243     15246     15248     15244     15243     15246     15249
     15245     15243     15246     15247     15245     15243     15246     15248
     15245     15243     15246     15249     15250     15253     15256     15257
     15250     15253     15256     15258     15250     15253     15256     15259
     15251     15250     15253     15254     15251     15250     15253     15255
     15251     15250     15253     15256     15252     15250     15253     15254
     15252     15250     15253     15255     15252     15250     15253     15256
     15253     15256     15259     15260     15253     15256     15259     15261
     15253     15256     15259     15262     15254     15253     15256     15257
     15254     15253     15256     15258     15254     15253     15256     15259
     15255     15253     15256     15257     15255     15253     15256     15258
     15255     15253     15256     15259     15256     15259     15262     15263
     15256     15259     15262     15264     15256     15259     15262     15265
     15257     15256     15259     15260     15257     15256     15259     15261
     15257     15256     15259     15262     15258     15256     15259     15260
     15258     15256     15259     15261     15258     15256     15259     15262
     15259     15262     15265     15266     15259     15262     15265     15267
     15259     15262     15265     15268     15260     15259     15262     15263
     15260     15259     15262     15264     15260     15259     15262     15265
     15261     15259     15262     15263     15261     15259     15262     15264
     15261     15259     15262     15265     15262     15265     15268     15269
     15262     15265     15268     15270     15262     15265     15268     15271
     15263     15262     15265     15266     15263     15262     15265     15267
     15263     15262     15265     15268     15264     15262     15265     15266
     15264     15262     15265     15267     15264     15262     15265     15268
     15265     15268     15271     15272     15265     15268     15271     15273
     15265     15268     15271     15274     15266     15265     15268     15269
     15266     15265     15268     15270     15266     15265     15268     15271
     15267     15265     15268     15269     15267     15265     15268     15270
     15267     15265     15268     15271     15268     15271     15274     15275
     15268     15271     15274     15276     15268     15271     15274     15277
     15269     15268     15271     15272     15269     15268     15271     15273
     15269     15268     15271     15274     15270     15268     15271     15272
     15270     15268     15271     15273     15270     15268     15271     15274
     15271     15274     15277     15278     15271     15274     15277     15279
     15271     15274     15277     15280     15272     15271     15274     15275
     15272     15271     15274     15276     15272     15271     15274     15277
     15273     15271     15274     15275     15273     15271     15274     15276
     15273     15271     15274     15277     15274     15277     15280     15281
     15274     15277     15280     15282     15274     15277     15280     15283
     15275     15274     15277     15278     15275     15274     15277     15279
     15275     15274     15277     15280     15276     15274     15277     15278
     15276     15274     15277     15279     15276     15274     15277     15280
     15277     15280     15283     15284     15277     15280     15283     15285
     15277     15280     15283     15286     15278     15277     15280     15281
     15278     15277     15280     15282     15278     15277     15280     15283
     15279     15277     15280     15281     15279     15277     15280     15282
     15279     15277     15280     15283     15280     15283     15286     15287
     15280     15283     15286     15288     15280     15283     15286     15289
     15281     15280     15283     15284     15281     15280     15283     15285
     15281     15280     15283     15286     15282     15280     15283     15284
     15282     15280     15283     15285     15282     15280     15283     15286
     15283     15286     15289     15290     15283     15286     15289     15291
     15283     15286     15289     15292     15284     15283     15286     15287
     15284     15283     15286     15288     15284     15283     15286     15289
     15285     15283     15286     15287     15285     15283     15286     15288
     15285     15283     15286     15289     15287     15286     15289     15290
     15287     15286     15289     15291     15287     15286     15289     15292
     15288     15286     15289     15290     15288     15286     15289     15291
     15288     15286     15289     15292     15293     15294     15309     15310
     15293     15294     15309     15311     15293     15294     15309     15315
     15294     15293     15297     15298     15294     15293     15297     15299
     15294     15293     15297     15300     15294     15293     15301     15302
     15294     15293     15301     15303     15294     15293     15301     15304
     15294     15293     15305     15306     15294     15293     15305     15307
     15294     15293     15305     15308     15294     15309     15315     15312
     15295     15294     15293     15297     15295     15294     15293     15301
     15295     15294     15293     15305     15295     15294     15309     15310
     15295     15294     15309     15311     15295     15294     15309     15315
     15296     15294     15293     15297     15296     15294     15293     15301
     15296     15294     15293     15305     15296     15294     15309     15310
     15296     15294     15309     15311     15296     15294     15309     15315
     15297     15293     15294     15309     15297     15293     15301     15302
     15297     15293     15301     15303     15297     15293     15301     15304
     15297     15293     15305     15306     15297     15293     15305     15307
     15297     15293     15305     15308     15298     15297     15293     15301
     15298     15297     15293     15305     15299     15297     15293     15301
     15299     15297     15293     15305     15300     15297     15293     15301
     15300     15297     15293     15305     15301     15293     15294     15309
     15301     15293     15305     15306     15301     15293     15305     15307
     15301     15293     15305     15308     15302     15301     15293     15305
     15303     15301     15293     15305     15304     15301     15293     15305
     15305     15293     15294     15309     15309     15315     15312     15313
     15309     15315     15312     15314     15309     15315     15312     15316
     15310     15309     15315     15312     15311     15309     15315     15312
     15312     15316     15317     15318     15312     15316     15317     15319
     15312     15316     15317     15320     15313     15312     15316     15317
     15314     15312     15316     15317     15315     15312     15316     15317
     15316     15317     15320     15321     15316     15317     15320     15322
     15316     15317     15320     15328     15317     15320     15322     15323
     15317     15320     15328     15329     15317     15320     15328     15330
     15317     15320     15328     15331     15318     15317     15320     15321
     15318     15317     15320     15322     15318     15317     15320     15328
     15319     15317     15320     15321     15319     15317     15320     15322
     15319     15317     15320     15328     15320     15322     15323     15324
     15320     15322     15323     15325     15320     15328     15331     15332
     15321     15320     15322     15323     15321     15320     15328     15329
     15321     15320     15328     15330     15321     15320     15328     15331
     15322     15320     15328     15329     15322     15320     15328     15330
     15322     15320     15328     15331     15322     15323     15325     15326
     15322     15323     15325     15327     15322     15323     15325     15337
     15323     15322     15320     15328     15323     15325     15337     15338
     15323     15325     15337     15339     15323     15325     15337     15340
     15324     15323     15325     15326     15324     15323     15325     15327
     15324     15323     15325     15337     15325     15337     15340     15341
     15325     15337     15340     15342     15325     15337     15340     15343
     15326     15325     15337     15338     15326     15325     15337     15339
     15326     15325     15337     15340     15327     15325     15337     15338
     15327     15325     15337     15339     15327     15325     15337     15340
     15328     15331     15332     15333     15328     15331     15332     15334
     15329     15328     15331     15332     15330     15328     15331     15332
     15331     15332     15334     15335     15331     15332     15334     15336
     15331     15332     15334     15384     15332     15334     15384     15385
     15332     15334     15384     15386     15332     15334     15384     15387
     15333     15332     15334     15335     15333     15332     15334     15336
     15333     15332     15334     15384     15334     15384     15387     15388
     15334     15384     15387     15389     15334     15384     15387     15390
     15335     15334     15384     15385     15335     15334     15384     15386
     15335     15334     15384     15387     15336     15334     15384     15385
     15336     15334     15384     15386     15336     15334     15384     15387
     15337     15340     15343     15344     15337     15340     15343     15345
     15337     15340     15343     15346     15338     15337     15340     15341
     15338     15337     15340     15342     15338     15337     15340     15343
     15339     15337     15340     15341     15339     15337     15340     15342
     15339     15337     15340     15343     15340     15343     15346     15347
     15340     15343     15346     15348     15340     15343     15346     15349
     15341     15340     15343     15344     15341     15340     15343     15345
     15341     15340     15343     15346     15342     15340     15343     15344
     15342     15340     15343     15345     15342     15340     15343     15346
     15343     15346     15349     15350     15343     15346     15349     15351
     15343     15346     15349     15352     15344     15343     15346     15347
     15344     15343     15346     15348     15344     15343     15346     15349
     15345     15343     15346     15347     15345     15343     15346     15348
     15345     15343     15346     15349     15346     15349     15352     15353
     15346     15349     15352     15354     15346     15349     15352     15355
     15347     15346     15349     15350     15347     15346     15349     15351
     15347     15346     15349     15352     15348     15346     15349     15350
     15348     15346     15349     15351     15348     15346     15349     15352
     15349     15352     15355     15356     15349     15352     15355     15357
     15350     15349     15352     15353     15350     15349     15352     15354
     15350     15349     15352     15355     15351     15349     15352     15353
     15351     15349     15352     15354     15351     15349     15352     15355
     15352     15355     15357     15358     15352     15355     15357     15359
     15353     15352     15355     15356     15353     15352     15355     15357
     15354     15352     15355     15356     15354     15352     15355     15357
     15355     15357     15359     15360     15355     15357     15359     15361
     15355     15357     15359     15362     15356     15355     15357     15358
     15356     15355     15357     15359     15357     15359     15362     15363
     15357     15359     15362     15364     15357     15359     15362     15365
     15358     15357     15359     15360     15358     15357     15359     15361
     15358     15357     15359     15362     15359     15362     15365     15366
     15359     15362     15365     15367     15359     15362     15365     15368
     15360     15359     15362     15363     15360     15359     15362     15364
     15360     15359     15362     15365     15361     15359     15362     15363
     15361     15359     15362     15364     15361     15359     15362     15365
     15362     15365     15368     15369     15362     15365     15368     15370
     15362     15365     15368     15371     15363     15362     15365     15366
     15363     15362     15365     15367     15363     15362     15365     15368
     15364     15362     15365     15366     15364     15362     15365     15367
     15364     15362     15365     15368     15365     15368     15371     15372
     15365     15368     15371     15373     15365     15368     15371     15374
     15366     15365     15368     15369     15366     15365     15368     15370
     15366     15365     15368     15371     15367     15365     15368     15369
     15367     15365     15368     15370     15367     15365     15368     15371
     15368     15371     15374     15375     15368     15371     15374     15376
     15368     15371     15374     15377     15369     15368     15371     15372
     15369     15368     15371     15373     15369     15368     15371     15374
     15370     15368     15371     15372     15370     15368     15371     15373
     15370     15368     15371     15374     15371     15374     15377     15378
     15371     15374     15377     15379     15371     15374     15377     15380
     15372     15371     15374     15375     15372     15371     15374     15376
     15372     15371     15374     15377     15373     15371     15374     15375
     15373     15371     15374     15376     15373     15371     15374     15377
     15374     15377     15380     15381     15374     15377     15380     15382
     15374     15377     15380     15383     15375     15374     15377     15378
     15375     15374     15377     15379     15375     15374     15377     15380
     15376     15374     15377     15378     15376     15374     15377     15379
     15376     15374     15377     15380     15378     15377     15380     15381
     15378     15377     15380     15382     15378     15377     15380     15383
     15379     15377     15380     15381     15379     15377     15380     15382
     15379     15377     15380     15383     15384     15387     15390     15391
     15384     15387     15390     15392     15384     15387     15390     15393
     15385     15384     15387     15388     15385     15384     15387     15389
     15385     15384     15387     15390     15386     15384     15387     15388
     15386     15384     15387     15389     15386     15384     15387     15390
     15387     15390     15393     15394     15387     15390     15393     15395
     15387     15390     15393     15396     15388     15387     15390     15391
     15388     15387     15390     15392     15388     15387     15390     15393
     15389     15387     15390     15391     15389     15387     15390     15392
     15389     15387     15390     15393     15390     15393     15396     15397
     15390     15393     15396     15398     15390     15393     15396     15399
     15391     15390     15393     15394     15391     15390     15393     15395
     15391     15390     15393     15396     15392     15390     15393     15394
     15392     15390     15393     15395     15392     15390     15393     15396
     15393     15396     15399     15400     15393     15396     15399     15401
     15393     15396     15399     15402     15394     15393     15396     15397
     15394     15393     15396     15398     15394     15393     15396     15399
     15395     15393     15396     15397     15395     15393     15396     15398
     15395     15393     15396     15399     15396     15399     15402     15403
     15396     15399     15402     15404     15396     15399     15402     15405
     15397     15396     15399     15400     15397     15396     15399     15401
     15397     15396     15399     15402     15398     15396     15399     15400
     15398     15396     15399     15401     15398     15396     15399     15402
     15399     15402     15405     15406     15399     15402     15405     15407
     15399     15402     15405     15408     15400     15399     15402     15403
     15400     15399     15402     15404     15400     15399     15402     15405
     15401     15399     15402     15403     15401     15399     15402     15404
     15401     15399     15402     15405     15402     15405     15408     15409
     15402     15405     15408     15410     15402     15405     15408     15411
     15403     15402     15405     15406     15403     15402     15405     15407
     15403     15402     15405     15408     15404     15402     15405     15406
     15404     15402     15405     15407     15404     15402     15405     15408
     15405     15408     15411     15412     15405     15408     15411     15413
     15405     15408     15411     15414     15406     15405     15408     15409
     15406     15405     15408     15410     15406     15405     15408     15411
     15407     15405     15408     15409     15407     15405     15408     15410
     15407     15405     15408     15411     15408     15411     15414     15415
     15408     15411     15414     15416     15408     15411     15414     15417
     15409     15408     15411     15412     15409     15408     15411     15413
     15409     15408     15411     15414     15410     15408     15411     15412
     15410     15408     15411     15413     15410     15408     15411     15414
     15411     15414     15417     15418     15411     15414     15417     15419
     15411     15414     15417     15420     15412     15411     15414     15415
     15412     15411     15414     15416     15412     15411     15414     15417
     15413     15411     15414     15415     15413     15411     15414     15416
     15413     15411     15414     15417     15414     15417     15420     15421
     15414     15417     15420     15422     15414     15417     15420     15423
     15415     15414     15417     15418     15415     15414     15417     15419
     15415     15414     15417     15420     15416     15414     15417     15418
     15416     15414     15417     15419     15416     15414     15417     15420
     15417     15420     15423     15424     15417     15420     15423     15425
     15417     15420     15423     15426     15418     15417     15420     15421
     15418     15417     15420     15422     15418     15417     15420     15423
     15419     15417     15420     15421     15419     15417     15420     15422
     15419     15417     15420     15423     15421     15420     15423     15424
     15421     15420     15423     15425     15421     15420     15423     15426
     15422     15420     15423     15424     15422     15420     15423     15425
     15422     15420     15423     15426      3471      3475      3478      3479
      3471      3475      3478      3480      3471      3475      3478      3485
      3472      3471      3475      3476      3472      3471      3475      3477
      3472      3471      3475      3478      3473      3471      3475      3476
      3473      3471      3475      3477      3473      3471      3475      3478
      3474      3471      3475      3476      3474      3471      3475      3477
      3474      3471      3475      3478      3475      3478      3485      3481
      3476      3475      3478      3479      3476      3475      3478      3480
      3476      3475      3478      3485      3477      3475      3478      3479
      3477      3475      3478      3480      3477      3475      3478      3485
      3478      3485      3481      3482      3478      3485      3481      3483
      3478      3485      3481      3484      3479      3478      3485      3481
      3480      3478      3485      3481      3481      3484      3486      3487
      3481      3484      3486      3488      3481      3484      3486      3489
      3482      3481      3484      3486      3483      3481      3484      3486
      3484      3486      3489      3490      3484      3486      3489      3491
      3484      3486      3489      3497      3485      3481      3484      3486
      3486      3489      3491      3492      3486      3489      3497      3498
      3486      3489      3497      3499      3486      3489      3497      3500
      3487      3486      3489      3490      3487      3486      3489      3491
      3487      3486      3489      3497      3488      3486      3489      3490
      3488      3486      3489      3491      3488      3486      3489      3497
      3489      3491      3492      3493      3489      3491      3492      3494
      3489      3497      3500      3501      3490      3489      3491      3492
      3490      3489      3497      3498      3490      3489      3497      3499
      3490      3489      3497      3500      3491      3489      3497      3498
      3491      3489      3497      3499      3491      3489      3497      3500
      3491      3492      3494      3495      3491      3492      3494      3496
      3491      3492      3494      3506      3492      3491      3489      3497
      3492      3494      3506      3507      3492      3494      3506      3508
      3492      3494      3506      3509      3493      3492      3494      3495
      3493      3492      3494      3496      3493      3492      3494      3506
      3494      3506      3509      3510      3494      3506      3509      3511
      3494      3506      3509      3512      3495      3494      3506      3507
      3495      3494      3506      3508      3495      3494      3506      3509
      3496      3494      3506      3507      3496      3494      3506      3508
      3496      3494      3506      3509      3497      3500      3501      3502
      3497      3500      3501      3503      3498      3497      3500      3501
      3499      3497      3500      3501      3500      3501      3503      3504
      3500      3501      3503      3505      3500      3501      3503      3553
      3501      3503      3553      3554      3501      3503      3553      3555
      3501      3503      3553      3556      3502      3501      3503      3504
      3502      3501      3503      3505      3502      3501      3503      3553
      3503      3553      3556      3557      3503      3553      3556      3558
      3503      3553      3556      3559      3504      3503      3553      3554
      3504      3503      3553      3555      3504      3503      3553      3556
      3505      3503      3553      3554      3505      3503      3553      3555
      3505      3503      3553      3556      3506      3509      3512      3513
      3506      3509      3512      3514      3506      3509      3512      3515
      3507      3506      3509      3510      3507      3506      3509      3511
      3507      3506      3509      3512      3508      3506      3509      3510
      3508      3506      3509      3511      3508      3506      3509      3512
      3509      3512      3515      3516      3509      3512      3515      3517
      3509      3512      3515      3518      3510      3509      3512      3513
      3510      3509      3512      3514      3510      3509      3512      3515
      3511      3509      3512      3513      3511      3509      3512      3514
      3511      3509      3512      3515      3512      3515      3518      3519
      3512      3515      3518      3520      3512      3515      3518      3521
      3513      3512      3515      3516      3513      3512      3515      3517
      3513      3512      3515      3518      3514      3512      3515      3516
      3514      3512      3515      3517      3514      3512      3515      3518
      3515      3518      3521      3522      3515      3518      3521      3523
      3515      3518      3521      3524      3516      3515      3518      3519
      3516      3515      3518      3520      3516      3515      3518      3521
      3517      3515      3518      3519      3517      3515      3518      3520
      3517      3515      3518      3521      3518      3521      3524      3525
      3518      3521      3524      3526      3519      3518      3521      3522
      3519      3518      3521      3523      3519      3518      3521      3524
      3520      3518      3521      3522      3520      3518      3521      3523
      3520      3518      3521      3524      3521      3524      3526      3527
      3521      3524      3526      3528      3522      3521      3524      3525
      3522      3521      3524      3526      3523      3521      3524      3525
      3523      3521      3524      3526      3524      3526      3528      3529
      3524      3526      3528      3530      3524      3526      3528      3531
      3525      3524      3526      3527      3525      3524      3526      3528
      3526      3528      3531      3532      3526      3528      3531      3533
      3526      3528      3531      3534      3527      3526      3528      3529
      3527      3526      3528      3530      3527      3526      3528      3531
      3528      3531      3534      3535      3528      3531      3534      3536
      3528      3531      3534      3537      3529      3528      3531      3532
      3529      3528      3531      3533      3529      3528      3531      3534
      3530      3528      3531      3532      3530      3528      3531      3533
      3530      3528      3531      3534      3531      3534      3537      3538
      3531      3534      3537      3539      3531      3534      3537      3540
      3532      3531      3534      3535      3532      3531      3534      3536
      3532      3531      3534      3537      3533      3531      3534      3535
      3533      3531      3534      3536      3533      3531      3534      3537
      3534      3537      3540      3541      3534      3537      3540      3542
      3534      3537      3540      3543      3535      3534      3537      3538
      3535      3534      3537      3539      3535      3534      3537      3540
      3536      3534      3537      3538      3536      3534      3537      3539
      3536      3534      3537      3540      3537      3540      3543      3544
      3537      3540      3543      3545      3537      3540      3543      3546
      3538      3537      3540      3541      3538      3537      3540      3542
      3538      3537      3540      3543      3539      3537      3540      3541
      3539      3537      3540      3542      3539      3537      3540      3543
      3540      3543      3546      3547      3540      3543      3546      3548
      3540      3543      3546      3549      3541      3540      3543      3544
      3541      3540      3543      3545      3541      3540      3543      3546
      3542      3540      3543      3544      3542      3540      3543      3545
      3542      3540      3543      3546      3543      3546      3549      3550
      3543      3546      3549      3551      3543      3546      3549      3552
      3544      3543      3546      3547      3544      3543      3546      3548
      3544      3543      3546      3549      3545      3543      3546      3547
      3545      3543      3546      3548      3545      3543      3546      3549
      3547      3546      3549      3550      3547      3546      3549      3551
      3547      3546      3549      3552      3548      3546      3549      3550
      3548      3546      3549      3551      3548      3546      3549      3552
      3553      3556      3559      3560      3553      3556      3559      3561
      3553      3556      3559      3562      3554      3553      3556      3557
      3554      3553      3556      3558      3554      3553      3556      3559
      3555      3553      3556      3557      3555      3553      3556      3558
      3555      3553      3556      3559      3556      3559      3562      3563
      3556      3559      3562      3564      3556      3559      3562      3565
      3557      3556      3559      3560      3557      3556      3559      3561
      3557      3556      3559      3562      3558      3556      3559      3560
      3558      3556      3559      3561      3558      3556      3559      3562
      3559      3562      3565      3566      3559      3562      3565      3567
      3559      3562      3565      3568      3560      3559      3562      3563
      3560      3559      3562      3564      3560      3559      3562      3565
      3561      3559      3562      3563      3561      3559      3562      3564
      3561      3559      3562      3565      3562      3565      3568      3569
      3562      3565      3568      3570      3562      3565      3568      3571
      3563      3562      3565      3566      3563      3562      3565      3567
      3563      3562      3565      3568      3564      3562      3565      3566
      3564      3562      3565      3567      3564      3562      3565      3568
      3565      3568      3571      3572      3565      3568      3571      3573
      3565      3568      3571      3574      3566      3565      3568      3569
      3566      3565      3568      3570      3566      3565      3568      3571
      3567      3565      3568      3569      3567      3565      3568      3570
      3567      3565      3568      3571      3568      3571      3574      3575
      3568      3571      3574      3576      3568      3571      3574      3577
      3569      3568      3571      3572      3569      3568      3571      3573
      3569      3568      3571      3574      3570      3568      3571      3572
      3570      3568      3571      3573      3570      3568      3571      3574
      3571      3574      3577      3578      3571      3574      3577      3579
      3571      3574      3577      3580      3572      3571      3574      3575
      3572      3571      3574      3576      3572      3571      3574      3577
      3573      3571      3574      3575      3573      3571      3574      3576
      3573      3571      3574      3577      3574      3577      3580      3581
      3574      3577      3580      3582      3574      3577      3580      3583
      3575      3574      3577      3578      3575      3574      3577      3579
      3575      3574      3577      3580      3576      3574      3577      3578
      3576      3574      3577      3579      3576      3574      3577      3580
      3577      3580      3583      3584      3577      3580      3583      3585
      3577      3580      3583      3586      3578      3577      3580      3581
      3578      3577      3580      3582      3578      3577      3580      3583
      3579      3577      3580      3581      3579      3577      3580      3582
      3579      3577      3580      3583      3580      3583      3586      3587
      3580      3583      3586      3588      3580      3583      3586      3589
      3581      3580      3583      3584      3581      3580      3583      3585
      3581      3580      3583      3586      3582      3580      3583      3584
      3582      3580      3583      3585      3582      3580      3583      3586
      3583      3586      3589      3590      3583      3586      3589      3591
      3583      3586      3589      3592      3584      3583      3586      3587
      3584      3583      3586      3588      3584      3583      3586      3589
      3585      3583      3586      3587      3585      3583      3586      3588
      3585      3583      3586      3589      3586      3589      3592      3593
      3586      3589      3592      3594      3586      3589      3592      3595
      3587      3586      3589      3590      3587      3586      3589      3591
      3587      3586      3589      3592      3588      3586      3589      3590
      3588      3586      3589      3591      3588      3586      3589      3592
      3590      3589      3592      3593      3590      3589      3592      3594
      3590      3589      3592      3595      3591      3589      3592      3593
      3591      3589      3592      3594      3591      3589      3592      3595
      3596      3600      3603      3604      3596      3600      3603      3605
      3596      3600      3603      3610      3597      3596      3600      3601
      3597      3596      3600      3602      3597      3596      3600      3603
      3598      3596      3600      3601      3598      3596      3600      3602
      3598      3596      3600      3603      3599      3596      3600      3601
      3599      3596      3600      3602      3599      3596      3600      3603
      3600      3603      3610      3606      3601      3600      3603      3604
      3601      3600      3603      3605      3601      3600      3603      3610
      3602      3600      3603      3604      3602      3600      3603      3605
      3602      3600      3603      3610      3603      3610      3606      3607
      3603      3610      3606      3608      3603      3610      3606      3609
      3604      3603      3610      3606      3605      3603      3610      3606
      3606      3609      3611      3612      3606      3609      3611      3613
      3606      3609      3611      3614      3607      3606      3609      3611
      3608      3606      3609      3611      3609      3611      3614      3615
      3609      3611      3614      3616      3609      3611      3614      3622
      3610      3606      3609      3611      3611      3614      3616      3617
      3611      3614      3622      3623      3611      3614      3622      3624
      3611      3614      3622      3625      3612      3611      3614      3615
      3612      3611      3614      3616      3612      3611      3614      3622
      3613      3611      3614      3615      3613      3611      3614      3616
      3613      3611      3614      3622      3614      3616      3617      3618
      3614      3616      3617      3619      3614      3622      3625      3626
      3615      3614      3616      3617      3615      3614      3622      3623
      3615      3614      3622      3624      3615      3614      3622      3625
      3616      3614      3622      3623      3616      3614      3622      3624
      3616      3614      3622      3625      3616      3617      3619      3620
      3616      3617      3619      3621      3616      3617      3619      3631
      3617      3616      3614      3622      3617      3619      3631      3632
      3617      3619      3631      3633      3617      3619      3631      3634
      3618      3617      3619      3620      3618      3617      3619      3621
      3618      3617      3619      3631      3619      3631      3634      3635
      3619      3631      3634      3636      3619      3631      3634      3637
      3620      3619      3631      3632      3620      3619      3631      3633
      3620      3619      3631      3634      3621      3619      3631      3632
      3621      3619      3631      3633      3621      3619      3631      3634
      3622      3625      3626      3627      3622      3625      3626      3628
      3623      3622      3625      3626      3624      3622      3625      3626
      3625      3626      3628      3629      3625      3626      3628      3630
      3625      3626      3628      3678      3626      3628      3678      3679
      3626      3628      3678      3680      3626      3628      3678      3681
      3627      3626      3628      3629      3627      3626      3628      3630
      3627      3626      3628      3678      3628      3678      3681      3682
      3628      3678      3681      3683      3628      3678      3681      3684
      3629      3628      3678      3679      3629      3628      3678      3680
      3629      3628      3678      3681      3630      3628      3678      3679
      3630      3628      3678      3680      3630      3628      3678      3681
      3631      3634      3637      3638      3631      3634      3637      3639
      3631      3634      3637      3640      3632      3631      3634      3635
      3632      3631      3634      3636      3632      3631      3634      3637
      3633      3631      3634      3635      3633      3631      3634      3636
      3633      3631      3634      3637      3634      3637      3640      3641
      3634      3637      3640      3642      3634      3637      3640      3643
      3635      3634      3637      3638      3635      3634      3637      3639
      3635      3634      3637      3640      3636      3634      3637      3638
      3636      3634      3637      3639      3636      3634      3637      3640
      3637      3640      3643      3644      3637      3640      3643      3645
      3637      3640      3643      3646      3638      3637      3640      3641
      3638      3637      3640      3642      3638      3637      3640      3643
      3639      3637      3640      3641      3639      3637      3640      3642
      3639      3637      3640      3643      3640      3643      3646      3647
      3640      3643      3646      3648      3640      3643      3646      3649
      3641      3640      3643      3644      3641      3640      3643      3645
      3641      3640      3643      3646      3642      3640      3643      3644
      3642      3640      3643      3645      3642      3640      3643      3646
      3643      3646      3649      3650      3643      3646      3649      3651
      3644      3643      3646      3647      3644      3643      3646      3648
      3644      3643      3646      3649      3645      3643      3646      3647
      3645      3643      3646      3648      3645      3643      3646      3649
      3646      3649      3651      3652      3646      3649      3651      3653
      3647      3646      3649      3650      3647      3646      3649      3651
      3648      3646      3649      3650      3648      3646      3649      3651
      3649      3651      3653      3654      3649      3651      3653      3655
      3649      3651      3653      3656      3650      3649      3651      3652
      3650      3649      3651      3653      3651      3653      3656      3657
      3651      3653      3656      3658      3651      3653      3656      3659
      3652      3651      3653      3654      3652      3651      3653      3655
      3652      3651      3653      3656      3653      3656      3659      3660
      3653      3656      3659      3661      3653      3656      3659      3662
      3654      3653      3656      3657      3654      3653      3656      3658
      3654      3653      3656      3659      3655      3653      3656      3657
      3655      3653      3656      3658      3655      3653      3656      3659
      3656      3659      3662      3663      3656      3659      3662      3664
      3656      3659      3662      3665      3657      3656      3659      3660
      3657      3656      3659      3661      3657      3656      3659      3662
      3658      3656      3659      3660      3658      3656      3659      3661
      3658      3656      3659      3662      3659      3662      3665      3666
      3659      3662      3665      3667      3659      3662      3665      3668
      3660      3659      3662      3663      3660      3659      3662      3664
      3660      3659      3662      3665      3661      3659      3662      3663
      3661      3659      3662      3664      3661      3659      3662      3665
      3662      3665      3668      3669      3662      3665      3668      3670
      3662      3665      3668      3671      3663      3662      3665      3666
      3663      3662      3665      3667      3663      3662      3665      3668
      3664      3662      3665      3666      3664      3662      3665      3667
      3664      3662      3665      3668      3665      3668      3671      3672
      3665      3668      3671      3673      3665      3668      3671      3674
      3666      3665      3668      3669      3666      3665      3668      3670
      3666      3665      3668      3671      3667      3665      3668      3669
      3667      3665      3668      3670      3667      3665      3668      3671
      3668      3671      3674      3675      3668      3671      3674      3676
      3668      3671      3674      3677      3669      3668      3671      3672
      3669      3668      3671      3673      3669      3668      3671      3674
      3670      3668      3671      3672      3670      3668      3671      3673
      3670      3668      3671      3674      3672      3671      3674      3675
      3672      3671      3674      3676      3672      3671      3674      3677
      3673      3671      3674      3675      3673      3671      3674      3676
      3673      3671      3674      3677      3678      3681      3684      3685
      3678      3681      3684      3686      3678      3681      3684      3687
      3679      3678      3681      3682      3679      3678      3681      3683
      3679      3678      3681      3684      3680      3678      3681      3682
      3680      3678      3681      3683      3680      3678      3681      3684
      3681      3684      3687      3688      3681      3684      3687      3689
      3681      3684      3687      3690      3682      3681      3684      3685
      3682      3681      3684      3686      3682      3681      3684      3687
      3683      3681      3684      3685      3683      3681      3684      3686
      3683      3681      3684      3687      3684      3687      3690      3691
      3684      3687      3690      3692      3684      3687      3690      3693
      3685      3684      3687      3688      3685      3684      3687      3689
      3685      3684      3687      3690      3686      3684      3687      3688
      3686      3684      3687      3689      3686      3684      3687      3690
      3687      3690      3693      3694      3687      3690      3693      3695
      3687      3690      3693      3696      3688      3687      3690      3691
      3688      3687      3690      3692      3688      3687      3690      3693
      3689      3687      3690      3691      3689      3687      3690      3692
      3689      3687      3690      3693      3690      3693      3696      3697
      3690      3693      3696      3698      3690      3693      3696      3699
      3691      3690      3693      3694      3691      3690      3693      3695
      3691      3690      3693      3696      3692      3690      3693      3694
      3692      3690      3693      3695      3692      3690      3693      3696
      3693      3696      3699      3700      3693      3696      3699      3701
      3693      3696      3699      3702      3694      3693      3696      3697
      3694      3693      3696      3698      3694      3693      3696      3699
      3695      3693      3696      3697      3695      3693      3696      3698
      3695      3693      3696      3699      3696      3699      3702      3703
      3696      3699      3702      3704      3696      3699      3702      3705
      3697      3696      3699      3700      3697      3696      3699      3701
      3697      3696      3699      3702      3698      3696      3699      3700
      3698      3696      3699      3701      3698      3696      3699      3702
      3699      3702      3705      3706      3699      3702      3705      3707
      3699      3702      3705      3708      3700      3699      3702      3703
      3700      3699      3702      3704      3700      3699      3702      3705
      3701      3699      3702      3703      3701      3699      3702      3704
      3701      3699      3702      3705      3702      3705      3708      3709
      3702      3705      3708      3710      3702      3705      3708      3711
      3703      3702      3705      3706      3703      3702      3705      3707
      3703      3702      3705      3708      3704      3702      3705      3706
      3704      3702      3705      3707      3704      3702      3705      3708
      3705      3708      3711      3712      3705      3708      3711      3713
      3705      3708      3711      3714      3706      3705      3708      3709
      3706      3705      3708      3710      3706      3705      3708      3711
      3707      3705      3708      3709      3707      3705      3708      3710
      3707      3705      3708      3711      3708      3711      3714      3715
      3708      3711      3714      3716      3708      3711      3714      3717
      3709      3708      3711      3712      3709      3708      3711      3713
      3709      3708      3711      3714      3710      3708      3711      3712
      3710      3708      3711      3713      3710      3708      3711      3714
      3711      3714      3717      3718      3711      3714      3717      3719
      3711      3714      3717      3720      3712      3711      3714      3715
      3712      3711      3714      3716      3712      3711      3714      3717
      3713      3711      3714      3715      3713      3711      3714      3716
      3713      3711      3714      3717      3715      3714      3717      3718
      3715      3714      3717      3719      3715      3714      3717      3720
      3716      3714      3717      3718      3716      3714      3717      3719
      3716      3714      3717      3720     23342     23355     23358     23359
     23342     23355     23358     23360     23342     23355     23358     23365
     23343     23342     23347     23348     23343     23342     23347     23349
     23343     23342     23347     23350     23343     23342     23351     23352
     23343     23342     23351     23353     23343     23342     23351     23354
     23343     23342     23355     23356     23343     23342     23355     23357
     23343     23342     23355     23358     23344     23343     23342     23347
     23344     23343     23342     23351     23344     23343     23342     23355
     23345     23343     23342     23347     23345     23343     23342     23351
     23345     23343     23342     23355     23346     23343     23342     23347
     23346     23343     23342     23351     23346     23343     23342     23355
     23347     23342     23351     23352     23347     23342     23351     23353
     23347     23342     23351     23354     23347     23342     23355     23356
     23347     23342     23355     23357     23347     23342     23355     23358
     23348     23347     23342     23351     23348     23347     23342     23355
     23349     23347     23342     23351     23349     23347     23342     23355
     23350     23347     23342     23351     23350     23347     23342     23355
     23351     23342     23355     23356     23351     23342     23355     23357
     23351     23342     23355     23358     23352     23351     23342     23355
     23353     23351     23342     23355     23354     23351     23342     23355
     23355     23358     23365     23361     23356     23355     23358     23359
     23356     23355     23358     23360     23356     23355     23358     23365
     23357     23355     23358     23359     23357     23355     23358     23360
     23357     23355     23358     23365     23358     23365     23361     23362
     23358     23365     23361     23363     23358     23365     23361     23364
     23359     23358     23365     23361     23360     23358     23365     23361
     23361     23364     23366     23367     23361     23364     23366     23368
     23361     23364     23366     23371     23362     23361     23364     23366
     23363     23361     23364     23366     23364     23366     23371     23369
     23364     23366     23371     23372     23364     23366     23371     23373
     23365     23361     23364     23366     23366     23371     23369     23370
     23366     23371     23369     23421     23366     23371     23373     23374
     23366     23371     23373     23375     23366     23371     23373     23377
     23367     23366     23371     23369     23367     23366     23371     23372
     23367     23366     23371     23373     23368     23366     23371     23369
     23368     23366     23371     23372     23368     23366     23371     23373
     23369     23371     23373     23374     23369     23371     23373     23375
     23369     23371     23373     23377     23369     23421     23423     23424
     23369     23421     23423     23425     23369     23421     23423     23426
     23370     23369     23371     23372     23370     23369     23371     23373
     23370     23369     23421     23422     23370     23369     23421     23423
     23371     23369     23421     23422     23371     23369     23421     23423
     23371     23373     23375     23376     23371     23373     23377     23378
     23371     23373     23377     23379     23372     23371     23369     23421
     23372     23371     23373     23374     23372     23371     23373     23375
     23372     23371     23373     23377     23373     23371     23369     23421
     23373     23377     23379     23380     23373     23377     23379     23381
     23374     23373     23375     23376     23374     23373     23377     23378
     23374     23373     23377     23379     23375     23373     23377     23378
     23375     23373     23377     23379     23376     23375     23373     23377
     23377     23379     23381     23382     23377     23379     23381     23383
     23377     23379     23381     23384     23378     23377     23379     23380
     23378     23377     23379     23381     23379     23381     23384     23385
     23379     23381     23384     23386     23379     23381     23384     23387
     23380     23379     23381     23382     23380     23379     23381     23383
     23380     23379     23381     23384     23381     23384     23387     23388
     23381     23384     23387     23389     23381     23384     23387     23390
     23382     23381     23384     23385     23382     23381     23384     23386
     23382     23381     23384     23387     23383     23381     23384     23385
     23383     23381     23384     23386     23383     23381     23384     23387
     23384     23387     23390     23391     23384     23387     23390     23392
     23384     23387     23390     23393     23385     23384     23387     23388
     23385     23384     23387     23389     23385     23384     23387     23390
     23386     23384     23387     23388     23386     23384     23387     23389
     23386     23384     23387     23390     23387     23390     23393     23394
     23387     23390     23393     23395     23387     23390     23393     23396
     23388     23387     23390     23391     23388     23387     23390     23392
     23388     23387     23390     23393     23389     23387     23390     23391
     23389     23387     23390     23392     23389     23387     23390     23393
     23390     23393     23396     23397     23390     23393     23396     23398
     23390     23393     23396     23399     23391     23390     23393     23394
     23391     23390     23393     23395     23391     23390     23393     23396
     23392     23390     23393     23394     23392     23390     23393     23395
     23392     23390     23393     23396     23393     23396     23399     23400
     23393     23396     23399     23401     23393     23396     23399     23402
     23394     23393     23396     23397     23394     23393     23396     23398
     23394     23393     23396     23399     23395     23393     23396     23397
     23395     23393     23396     23398     23395     23393     23396     23399
     23396     23399     23402     23403     23396     23399     23402     23404
     23396     23399     23402     23405     23397     23396     23399     23400
     23397     23396     23399     23401     23397     23396     23399     23402
     23398     23396     23399     23400     23398     23396     23399     23401
     23398     23396     23399     23402     23399     23402     23405     23406
     23399     23402     23405     23407     23399     23402     23405     23408
     23400     23399     23402     23403     23400     23399     23402     23404
     23400     23399     23402     23405     23401     23399     23402     23403
     23401     23399     23402     23404     23401     23399     23402     23405
     23402     23405     23408     23409     23402     23405     23408     23410
     23402     23405     23408     23411     23403     23402     23405     23406
     23403     23402     23405     23407     23403     23402     23405     23408
     23404     23402     23405     23406     23404     23402     23405     23407
     23404     23402     23405     23408     23405     23408     23411     23412
     23405     23408     23411     23413     23405     23408     23411     23414
     23406     23405     23408     23409     23406     23405     23408     23410
     23406     23405     23408     23411     23407     23405     23408     23409
     23407     23405     23408     23410     23407     23405     23408     23411
     23408     23411     23414     23415     23408     23411     23414     23416
     23408     23411     23414     23417     23409     23408     23411     23412
     23409     23408     23411     23413     23409     23408     23411     23414
     23410     23408     23411     23412     23410     23408     23411     23413
     23410     23408     23411     23414     23411     23414     23417     23418
     23411     23414     23417     23419     23411     23414     23417     23420
     23412     23411     23414     23415     23412     23411     23414     23416
     23412     23411     23414     23417     23413     23411     23414     23415
     23413     23411     23414     23416     23413     23411     23414     23417
     23415     23414     23417     23418     23415     23414     23417     23419
     23415     23414     23417     23420     23416     23414     23417     23418
     23416     23414     23417     23419     23416     23414     23417     23420
     23421     23423     23426     23427     23421     23423     23426     23428
     23421     23423     23426     23429     23422     23421     23423     23424
     23422     23421     23423     23425     23422     23421     23423     23426
     23423     23426     23429     23430     23423     23426     23429     23431
     23423     23426     23429     23432     23424     23423     23426     23427
     23424     23423     23426     23428     23424     23423     23426     23429
     23425     23423     23426     23427     23425     23423     23426     23428
     23425     23423     23426     23429     23426     23429     23432     23433
     23426     23429     23432     23434     23426     23429     23432     23435
     23427     23426     23429     23430     23427     23426     23429     23431
     23427     23426     23429     23432     23428     23426     23429     23430
     23428     23426     23429     23431     23428     23426     23429     23432
     23429     23432     23435     23436     23429     23432     23435     23437
     23429     23432     23435     23438     23430     23429     23432     23433
     23430     23429     23432     23434     23430     23429     23432     23435
     23431     23429     23432     23433     23431     23429     23432     23434
     23431     23429     23432     23435     23432     23435     23438     23439
     23432     23435     23438     23440     23432     23435     23438     23441
     23433     23432     23435     23436     23433     23432     23435     23437
     23433     23432     23435     23438     23434     23432     23435     23436
     23434     23432     23435     23437     23434     23432     23435     23438
     23435     23438     23441     23442     23435     23438     23441     23443
     23435     23438     23441     23444     23436     23435     23438     23439
     23436     23435     23438     23440     23436     23435     23438     23441
     23437     23435     23438     23439     23437     23435     23438     23440
     23437     23435     23438     23441     23438     23441     23444     23445
     23438     23441     23444     23446     23438     23441     23444     23447
     23439     23438     23441     23442     23439     23438     23441     23443
     23439     23438     23441     23444     23440     23438     23441     23442
     23440     23438     23441     23443     23440     23438     23441     23444
     23441     23444     23447     23448     23441     23444     23447     23449
     23441     23444     23447     23450     23442     23441     23444     23445
     23442     23441     23444     23446     23442     23441     23444     23447
     23443     23441     23444     23445     23443     23441     23444     23446
     23443     23441     23444     23447     23444     23447     23450     23451
     23444     23447     23450     23452     23444     23447     23450     23453
     23445     23444     23447     23448     23445     23444     23447     23449
     23445     23444     23447     23450     23446     23444     23447     23448
     23446     23444     23447     23449     23446     23444     23447     23450
     23447     23450     23453     23454     23447     23450     23453     23455
     23447     23450     23453     23456     23448     23447     23450     23451
     23448     23447     23450     23452     23448     23447     23450     23453
     23449     23447     23450     23451     23449     23447     23450     23452
     23449     23447     23450     23453     23450     23453     23456     23457
     23450     23453     23456     23458     23450     23453     23456     23459
     23451     23450     23453     23454     23451     23450     23453     23455
     23451     23450     23453     23456     23452     23450     23453     23454
     23452     23450     23453     23455     23452     23450     23453     23456
     23453     23456     23459     23460     23453     23456     23459     23461
     23453     23456     23459     23462     23454     23453     23456     23457
     23454     23453     23456     23458     23454     23453     23456     23459
     23455     23453     23456     23457     23455     23453     23456     23458
     23455     23453     23456     23459     23456     23459     23462     23463
     23456     23459     23462     23464     23456     23459     23462     23465
     23457     23456     23459     23460     23457     23456     23459     23461
     23457     23456     23459     23462     23458     23456     23459     23460
     23458     23456     23459     23461     23458     23456     23459     23462
     23459     23462     23465     23466     23459     23462     23465     23467
     23459     23462     23465     23468     23460     23459     23462     23463
     23460     23459     23462     23464     23460     23459     23462     23465
     23461     23459     23462     23463     23461     23459     23462     23464
     23461     23459     23462     23465     23463     23462     23465     23466
     23463     23462     23465     23467     23463     23462     23465     23468
     23464     23462     23465     23466     23464     23462     23465     23467
     23464     23462     23465     23468     15427     15428     15443     15444
     15427     15428     15443     15445     15427     15428     15443     15449
     15428     15427     15431     15432     15428     15427     15431     15433
     15428     15427     15431     15434     15428     15427     15435     15436
     15428     15427     15435     15437     15428     15427     15435     15438
     15428     15427     15439     15440     15428     15427     15439     15441
     15428     15427     15439     15442     15428     15443     15449     15446
     15429     15428     15427     15431     15429     15428     15427     15435
     15429     15428     15427     15439     15429     15428     15443     15444
     15429     15428     15443     15445     15429     15428     15443     15449
     15430     15428     15427     15431     15430     15428     15427     15435
     15430     15428     15427     15439     15430     15428     15443     15444
     15430     15428     15443     15445     15430     15428     15443     15449
     15431     15427     15428     15443     15431     15427     15435     15436
     15431     15427     15435     15437     15431     15427     15435     15438
     15431     15427     15439     15440     15431     15427     15439     15441
     15431     15427     15439     15442     15432     15431     15427     15435
     15432     15431     15427     15439     15433     15431     15427     15435
     15433     15431     15427     15439     15434     15431     15427     15435
     15434     15431     15427     15439     15435     15427     15428     15443
     15435     15427     15439     15440     15435     15427     15439     15441
     15435     15427     15439     15442     15436     15435     15427     15439
     15437     15435     15427     15439     15438     15435     15427     15439
     15439     15427     15428     15443     15443     15449     15446     15447
     15443     15449     15446     15448     15443     15449     15446     15450
     15444     15443     15449     15446     15445     15443     15449     15446
     15446     15450     15451     15452     15446     15450     15451     15453
     15446     15450     15451     15454     15447     15446     15450     15451
     15448     15446     15450     15451     15449     15446     15450     15451
     15450     15451     15454     15455     15450     15451     15454     15456
     15450     15451     15454     15462     15451     15454     15456     15457
     15451     15454     15462     15463     15451     15454     15462     15464
     15451     15454     15462     15465     15452     15451     15454     15455
     15452     15451     15454     15456     15452     15451     15454     15462
     15453     15451     15454     15455     15453     15451     15454     15456
     15453     15451     15454     15462     15454     15456     15457     15458
     15454     15456     15457     15459     15454     15462     15465     15466
     15455     15454     15456     15457     15455     15454     15462     15463
     15455     15454     15462     15464     15455     15454     15462     15465
     15456     15454     15462     15463     15456     15454     15462     15464
     15456     15454     15462     15465     15456     15457     15459     15460
     15456     15457     15459     15461     15456     15457     15459     15471
     15457     15456     15454     15462     15457     15459     15471     15472
     15457     15459     15471     15473     15457     15459     15471     15474
     15458     15457     15459     15460     15458     15457     15459     15461
     15458     15457     15459     15471     15459     15471     15474     15475
     15459     15471     15474     15476     15459     15471     15474     15477
     15460     15459     15471     15472     15460     15459     15471     15473
     15460     15459     15471     15474     15461     15459     15471     15472
     15461     15459     15471     15473     15461     15459     15471     15474
     15462     15465     15466     15467     15462     15465     15466     15468
     15463     15462     15465     15466     15464     15462     15465     15466
     15465     15466     15468     15469     15465     15466     15468     15470
     15465     15466     15468     15518     15466     15468     15518     15519
     15466     15468     15518     15520     15466     15468     15518     15521
     15467     15466     15468     15469     15467     15466     15468     15470
     15467     15466     15468     15518     15468     15518     15521     15522
     15468     15518     15521     15523     15468     15518     15521     15524
     15469     15468     15518     15519     15469     15468     15518     15520
     15469     15468     15518     15521     15470     15468     15518     15519
     15470     15468     15518     15520     15470     15468     15518     15521
     15471     15474     15477     15478     15471     15474     15477     15479
     15471     15474     15477     15480     15472     15471     15474     15475
     15472     15471     15474     15476     15472     15471     15474     15477
     15473     15471     15474     15475     15473     15471     15474     15476
     15473     15471     15474     15477     15474     15477     15480     15481
     15474     15477     15480     15482     15474     15477     15480     15483
     15475     15474     15477     15478     15475     15474     15477     15479
     15475     15474     15477     15480     15476     15474     15477     15478
     15476     15474     15477     15479     15476     15474     15477     15480
     15477     15480     15483     15484     15477     15480     15483     15485
     15477     15480     15483     15486     15478     15477     15480     15481
     15478     15477     15480     15482     15478     15477     15480     15483
     15479     15477     15480     15481     15479     15477     15480     15482
     15479     15477     15480     15483     15480     15483     15486     15487
     15480     15483     15486     15488     15480     15483     15486     15489
     15481     15480     15483     15484     15481     15480     15483     15485
     15481     15480     15483     15486     15482     15480     15483     15484
     15482     15480     15483     15485     15482     15480     15483     15486
     15483     15486     15489     15490     15483     15486     15489     15491
     15484     15483     15486     15487     15484     15483     15486     15488
     15484     15483     15486     15489     15485     15483     15486     15487
     15485     15483     15486     15488     15485     15483     15486     15489
     15486     15489     15491     15492     15486     15489     15491     15493
     15487     15486     15489     15490     15487     15486     15489     15491
     15488     15486     15489     15490     15488     15486     15489     15491
     15489     15491     15493     15494     15489     15491     15493     15495
     15489     15491     15493     15496     15490     15489     15491     15492
     15490     15489     15491     15493     15491     15493     15496     15497
     15491     15493     15496     15498     15491     15493     15496     15499
     15492     15491     15493     15494     15492     15491     15493     15495
     15492     15491     15493     15496     15493     15496     15499     15500
     15493     15496     15499     15501     15493     15496     15499     15502
     15494     15493     15496     15497     15494     15493     15496     15498
     15494     15493     15496     15499     15495     15493     15496     15497
     15495     15493     15496     15498     15495     15493     15496     15499
     15496     15499     15502     15503     15496     15499     15502     15504
     15496     15499     15502     15505     15497     15496     15499     15500
     15497     15496     15499     15501     15497     15496     15499     15502
     15498     15496     15499     15500     15498     15496     15499     15501
     15498     15496     15499     15502     15499     15502     15505     15506
     15499     15502     15505     15507     15499     15502     15505     15508
     15500     15499     15502     15503     15500     15499     15502     15504
     15500     15499     15502     15505     15501     15499     15502     15503
     15501     15499     15502     15504     15501     15499     15502     15505
     15502     15505     15508     15509     15502     15505     15508     15510
     15502     15505     15508     15511     15503     15502     15505     15506
     15503     15502     15505     15507     15503     15502     15505     15508
     15504     15502     15505     15506     15504     15502     15505     15507
     15504     15502     15505     15508     15505     15508     15511     15512
     15505     15508     15511     15513     15505     15508     15511     15514
     15506     15505     15508     15509     15506     15505     15508     15510
     15506     15505     15508     15511     15507     15505     15508     15509
     15507     15505     15508     15510     15507     15505     15508     15511
     15508     15511     15514     15515     15508     15511     15514     15516
     15508     15511     15514     15517     15509     15508     15511     15512
     15509     15508     15511     15513     15509     15508     15511     15514
     15510     15508     15511     15512     15510     15508     15511     15513
     15510     15508     15511     15514     15512     15511     15514     15515
     15512     15511     15514     15516     15512     15511     15514     15517
     15513     15511     15514     15515     15513     15511     15514     15516
     15513     15511     15514     15517     15518     15521     15524     15525
     15518     15521     15524     15526     15518     15521     15524     15527
     15519     15518     15521     15522     15519     15518     15521     15523
     15519     15518     15521     15524     15520     15518     15521     15522
     15520     15518     15521     15523     15520     15518     15521     15524
     15521     15524     15527     15528     15521     15524     15527     15529
     15521     15524     15527     15530     15522     15521     15524     15525
     15522     15521     15524     15526     15522     15521     15524     15527
     15523     15521     15524     15525     15523     15521     15524     15526
     15523     15521     15524     15527     15524     15527     15530     15531
     15524     15527     15530     15532     15524     15527     15530     15533
     15525     15524     15527     15528     15525     15524     15527     15529
     15525     15524     15527     15530     15526     15524     15527     15528
     15526     15524     15527     15529     15526     15524     15527     15530
     15527     15530     15533     15534     15527     15530     15533     15535
     15527     15530     15533     15536     15528     15527     15530     15531
     15528     15527     15530     15532     15528     15527     15530     15533
     15529     15527     15530     15531     15529     15527     15530     15532
     15529     15527     15530     15533     15530     15533     15536     15537
     15530     15533     15536     15538     15530     15533     15536     15539
     15531     15530     15533     15534     15531     15530     15533     15535
     15531     15530     15533     15536     15532     15530     15533     15534
     15532     15530     15533     15535     15532     15530     15533     15536
     15533     15536     15539     15540     15533     15536     15539     15541
     15533     15536     15539     15542     15534     15533     15536     15537
     15534     15533     15536     15538     15534     15533     15536     15539
     15535     15533     15536     15537     15535     15533     15536     15538
     15535     15533     15536     15539     15536     15539     15542     15543
     15536     15539     15542     15544     15536     15539     15542     15545
     15537     15536     15539     15540     15537     15536     15539     15541
     15537     15536     15539     15542     15538     15536     15539     15540
     15538     15536     15539     15541     15538     15536     15539     15542
     15539     15542     15545     15546     15539     15542     15545     15547
     15539     15542     15545     15548     15540     15539     15542     15543
     15540     15539     15542     15544     15540     15539     15542     15545
     15541     15539     15542     15543     15541     15539     15542     15544
     15541     15539     15542     15545     15542     15545     15548     15549
     15542     15545     15548     15550     15542     15545     15548     15551
     15543     15542     15545     15546     15543     15542     15545     15547
     15543     15542     15545     15548     15544     15542     15545     15546
     15544     15542     15545     15547     15544     15542     15545     15548
     15545     15548     15551     15552     15545     15548     15551     15553
     15545     15548     15551     15554     15546     15545     15548     15549
     15546     15545     15548     15550     15546     15545     15548     15551
     15547     15545     15548     15549     15547     15545     15548     15550
     15547     15545     15548     15551     15548     15551     15554     15555
     15548     15551     15554     15556     15548     15551     15554     15557
     15549     15548     15551     15552     15549     15548     15551     15553
     15549     15548     15551     15554     15550     15548     15551     15552
     15550     15548     15551     15553     15550     15548     15551     15554
     15551     15554     15557     15558     15551     15554     15557     15559
     15551     15554     15557     15560     15552     15551     15554     15555
     15552     15551     15554     15556     15552     15551     15554     15557
     15553     15551     15554     15555     15553     15551     15554     15556
     15553     15551     15554     15557     15555     15554     15557     15558
     15555     15554     15557     15559     15555     15554     15557     15560
     15556     15554     15557     15558     15556     15554     15557     15559
     15556     15554     15557     15560      3721      3725      3728      3729
      3721      3725      3728      3730      3721      3725      3728      3735
      3722      3721      3725      3726      3722      3721      3725      3727
      3722      3721      3725      3728      3723      3721      3725      3726
      3723      3721      3725      3727      3723      3721      3725      3728
      3724      3721      3725      3726      3724      3721      3725      3727
      3724      3721      3725      3728      3725      3728      3735      3731
      3726      3725      3728      3729      3726      3725      3728      3730
      3726      3725      3728      3735      3727      3725      3728      3729
      3727      3725      3728      3730      3727      3725      3728      3735
      3728      3735      3731      3732      3728      3735      3731      3733
      3728      3735      3731      3734      3729      3728      3735      3731
      3730      3728      3735      3731      3731      3734      3736      3737
      3731      3734      3736      3738      3731      3734      3736      3739
      3732      3731      3734      3736      3733      3731      3734      3736
      3734      3736      3739      3740      3734      3736      3739      3741
      3734      3736      3739      3747      3735      3731      3734      3736
      3736      3739      3741      3742      3736      3739      3747      3748
      3736      3739      3747      3749      3736      3739      3747      3750
      3737      3736      3739      3740      3737      3736      3739      3741
      3737      3736      3739      3747      3738      3736      3739      3740
      3738      3736      3739      3741      3738      3736      3739      3747
      3739      3741      3742      3743      3739      3741      3742      3744
      3739      3747      3750      3751      3740      3739      3741      3742
      3740      3739      3747      3748      3740      3739      3747      3749
      3740      3739      3747      3750      3741      3739      3747      3748
      3741      3739      3747      3749      3741      3739      3747      3750
      3741      3742      3744      3745      3741      3742      3744      3746
      3741      3742      3744      3756      3742      3741      3739      3747
      3742      3744      3756      3757      3742      3744      3756      3758
      3742      3744      3756      3759      3743      3742      3744      3745
      3743      3742      3744      3746      3743      3742      3744      3756
      3744      3756      3759      3760      3744      3756      3759      3761
      3744      3756      3759      3762      3745      3744      3756      3757
      3745      3744      3756      3758      3745      3744      3756      3759
      3746      3744      3756      3757      3746      3744      3756      3758
      3746      3744      3756      3759      3747      3750      3751      3752
      3747      3750      3751      3753      3748      3747      3750      3751
      3749      3747      3750      3751      3750      3751      3753      3754
      3750      3751      3753      3755      3750      3751      3753      3803
      3751      3753      3803      3804      3751      3753      3803      3805
      3751      3753      3803      3806      3752      3751      3753      3754
      3752      3751      3753      3755      3752      3751      3753      3803
      3753      3803      3806      3807      3753      3803      3806      3808
      3753      3803      3806      3809      3754      3753      3803      3804
      3754      3753      3803      3805      3754      3753      3803      3806
      3755      3753      3803      3804      3755      3753      3803      3805
      3755      3753      3803      3806      3756      3759      3762      3763
      3756      3759      3762      3764      3756      3759      3762      3765
      3757      3756      3759      3760      3757      3756      3759      3761
      3757      3756      3759      3762      3758      3756      3759      3760
      3758      3756      3759      3761      3758      3756      3759      3762
      3759      3762      3765      3766      3759      3762      3765      3767
      3759      3762      3765      3768      3760      3759      3762      3763
      3760      3759      3762      3764      3760      3759      3762      3765
      3761      3759      3762      3763      3761      3759      3762      3764
      3761      3759      3762      3765      3762      3765      3768      3769
      3762      3765      3768      3770      3762      3765      3768      3771
      3763      3762      3765      3766      3763      3762      3765      3767
      3763      3762      3765      3768      3764      3762      3765      3766
      3764      3762      3765      3767      3764      3762      3765      3768
      3765      3768      3771      3772      3765      3768      3771      3773
      3765      3768      3771      3774      3766      3765      3768      3769
      3766      3765      3768      3770      3766      3765      3768      3771
      3767      3765      3768      3769      3767      3765      3768      3770
      3767      3765      3768      3771      3768      3771      3774      3775
      3768      3771      3774      3776      3769      3768      3771      3772
      3769      3768      3771      3773      3769      3768      3771      3774
      3770      3768      3771      3772      3770      3768      3771      3773
      3770      3768      3771      3774      3771      3774      3776      3777
      3771      3774      3776      3778      3772      3771      3774      3775
      3772      3771      3774      3776      3773      3771      3774      3775
      3773      3771      3774      3776      3774      3776      3778      3779
      3774      3776      3778      3780      3774      3776      3778      3781
      3775      3774      3776      3777      3775      3774      3776      3778
      3776      3778      3781      3782      3776      3778      3781      3783
      3776      3778      3781      3784      3777      3776      3778      3779
      3777      3776      3778      3780      3777      3776      3778      3781
      3778      3781      3784      3785      3778      3781      3784      3786
      3778      3781      3784      3787      3779      3778      3781      3782
      3779      3778      3781      3783      3779      3778      3781      3784
      3780      3778      3781      3782      3780      3778      3781      3783
      3780      3778      3781      3784      3781      3784      3787      3788
      3781      3784      3787      3789      3781      3784      3787      3790
      3782      3781      3784      3785      3782      3781      3784      3786
      3782      3781      3784      3787      3783      3781      3784      3785
      3783      3781      3784      3786      3783      3781      3784      3787
      3784      3787      3790      3791      3784      3787      3790      3792
      3784      3787      3790      3793      3785      3784      3787      3788
      3785      3784      3787      3789      3785      3784      3787      3790
      3786      3784      3787      3788      3786      3784      3787      3789
      3786      3784      3787      3790      3787      3790      3793      3794
      3787      3790      3793      3795      3787      3790      3793      3796
      3788      3787      3790      3791      3788      3787      3790      3792
      3788      3787      3790      3793      3789      3787      3790      3791
      3789      3787      3790      3792      3789      3787      3790      3793
      3790      3793      3796      3797      3790      3793      3796      3798
      3790      3793      3796      3799      3791      3790      3793      3794
      3791      3790      3793      3795      3791      3790      3793      3796
      3792      3790      3793      3794      3792      3790      3793      3795
      3792      3790      3793      3796      3793      3796      3799      3800
      3793      3796      3799      3801      3793      3796      3799      3802
      3794      3793      3796      3797      3794      3793      3796      3798
      3794      3793      3796      3799      3795      3793      3796      3797
      3795      3793      3796      3798      3795      3793      3796      3799
      3797      3796      3799      3800      3797      3796      3799      3801
      3797      3796      3799      3802      3798      3796      3799      3800
      3798      3796      3799      3801      3798      3796      3799      3802
      3803      3806      3809      3810      3803      3806      3809      3811
      3803      3806      3809      3812      3804      3803      3806      3807
      3804      3803      3806      3808      3804      3803      3806      3809
      3805      3803      3806      3807      3805      3803      3806      3808
      3805      3803      3806      3809      3806      3809      3812      3813
      3806      3809      3812      3814      3806      3809      3812      3815
      3807      3806      3809      3810      3807      3806      3809      3811
      3807      3806      3809      3812      3808      3806      3809      3810
      3808      3806      3809      3811      3808      3806      3809      3812
      3809      3812      3815      3816      3809      3812      3815      3817
      3809      3812      3815      3818      3810      3809      3812      3813
      3810      3809      3812      3814      3810      3809      3812      3815
      3811      3809      3812      3813      3811      3809      3812      3814
      3811      3809      3812      3815      3812      3815      3818      3819
      3812      3815      3818      3820      3812      3815      3818      3821
      3813      3812      3815      3816      3813      3812      3815      3817
      3813      3812      3815      3818      3814      3812      3815      3816
      3814      3812      3815      3817      3814      3812      3815      3818
      3815      3818      3821      3822      3815      3818      3821      3823
      3815      3818      3821      3824      3816      3815      3818      3819
      3816      3815      3818      3820      3816      3815      3818      3821
      3817      3815      3818      3819      3817      3815      3818      3820
      3817      3815      3818      3821      3818      3821      3824      3825
      3818      3821      3824      3826      3818      3821      3824      3827
      3819      3818      3821      3822      3819      3818      3821      3823
      3819      3818      3821      3824      3820      3818      3821      3822
      3820      3818      3821      3823      3820      3818      3821      3824
      3821      3824      3827      3828      3821      3824      3827      3829
      3821      3824      3827      3830      3822      3821      3824      3825
      3822      3821      3824      3826      3822      3821      3824      3827
      3823      3821      3824      3825      3823      3821      3824      3826
      3823      3821      3824      3827      3824      3827      3830      3831
      3824      3827      3830      3832      3824      3827      3830      3833
      3825      3824      3827      3828      3825      3824      3827      3829
      3825      3824      3827      3830      3826      3824      3827      3828
      3826      3824      3827      3829      3826      3824      3827      3830
      3827      3830      3833      3834      3827      3830      3833      3835
      3827      3830      3833      3836      3828      3827      3830      3831
      3828      3827      3830      3832      3828      3827      3830      3833
      3829      3827      3830      3831      3829      3827      3830      3832
      3829      3827      3830      3833      3830      3833      3836      3837
      3830      3833      3836      3838      3830      3833      3836      3839
      3831      3830      3833      3834      3831      3830      3833      3835
      3831      3830      3833      3836      3832      3830      3833      3834
      3832      3830      3833      3835      3832      3830      3833      3836
      3833      3836      3839      3840      3833      3836      3839      3841
      3833      3836      3839      3842      3834      3833      3836      3837
      3834      3833      3836      3838      3834      3833      3836      3839
      3835      3833      3836      3837      3835      3833      3836      3838
      3835      3833      3836      3839      3836      3839      3842      3843
      3836      3839      3842      3844      3836      3839      3842      3845
      3837      3836      3839      3840      3837      3836      3839      3841
      3837      3836      3839      3842      3838      3836      3839      3840
      3838      3836      3839      3841      3838      3836      3839      3842
      3840      3839      3842      3843      3840      3839      3842      3844
      3840      3839      3842      3845      3841      3839      3842      3843
      3841      3839      3842      3844      3841      3839      3842      3845
     23469     23482     23485     23486     23469     23482     23485     23487
     23469     23482     23485     23492     23470     23469     23474     23475
     23470     23469     23474     23476     23470     23469     23474     23477
     23470     23469     23478     23479     23470     23469     23478     23480
     23470     23469     23478     23481     23470     23469     23482     23483
     23470     23469     23482     23484     23470     23469     23482     23485
     23471     23470     23469     23474     23471     23470     23469     23478
     23471     23470     23469     23482     23472     23470     23469     23474
     23472     23470     23469     23478     23472     23470     23469     23482
     23473     23470     23469     23474     23473     23470     23469     23478
     23473     23470     23469     23482     23474     23469     23478     23479
     23474     23469     23478     23480     23474     23469     23478     23481
     23474     23469     23482     23483     23474     23469     23482     23484
     23474     23469     23482     23485     23475     23474     23469     23478
     23475     23474     23469     23482     23476     23474     23469     23478
     23476     23474     23469     23482     23477     23474     23469     23478
     23477     23474     23469     23482     23478     23469     23482     23483
     23478     23469     23482     23484     23478     23469     23482     23485
     23479     23478     23469     23482     23480     23478     23469     23482
     23481     23478     23469     23482     23482     23485     23492     23488
     23483     23482     23485     23486     23483     23482     23485     23487
     23483     23482     23485     23492     23484     23482     23485     23486
     23484     23482     23485     23487     23484     23482     23485     23492
     23485     23492     23488     23489     23485     23492     23488     23490
     23485     23492     23488     23491     23486     23485     23492     23488
     23487     23485     23492     23488     23488     23491     23493     23494
     23488     23491     23493     23495     23488     23491     23493     23498
     23489     23488     23491     23493     23490     23488     23491     23493
     23491     23493     23498     23496     23491     23493     23498     23499
     23491     23493     23498     23500     23492     23488     23491     23493
     23493     23498     23496     23497     23493     23498     23496     23548
     23493     23498     23500     23501     23493     23498     23500     23502
     23493     23498     23500     23504     23494     23493     23498     23496
     23494     23493     23498     23499     23494     23493     23498     23500
     23495     23493     23498     23496     23495     23493     23498     23499
     23495     23493     23498     23500     23496     23498     23500     23501
     23496     23498     23500     23502     23496     23498     23500     23504
     23496     23548     23550     23551     23496     23548     23550     23552
     23496     23548     23550     23553     23497     23496     23498     23499
     23497     23496     23498     23500     23497     23496     23548     23549
     23497     23496     23548     23550     23498     23496     23548     23549
     23498     23496     23548     23550     23498     23500     23502     23503
     23498     23500     23504     23505     23498     23500     23504     23506
     23499     23498     23496     23548     23499     23498     23500     23501
     23499     23498     23500     23502     23499     23498     23500     23504
     23500     23498     23496     23548     23500     23504     23506     23507
     23500     23504     23506     23508     23501     23500     23502     23503
     23501     23500     23504     23505     23501     23500     23504     23506
     23502     23500     23504     23505     23502     23500     23504     23506
     23503     23502     23500     23504     23504     23506     23508     23509
     23504     23506     23508     23510     23504     23506     23508     23511
     23505     23504     23506     23507     23505     23504     23506     23508
     23506     23508     23511     23512     23506     23508     23511     23513
     23506     23508     23511     23514     23507     23506     23508     23509
     23507     23506     23508     23510     23507     23506     23508     23511
     23508     23511     23514     23515     23508     23511     23514     23516
     23508     23511     23514     23517     23509     23508     23511     23512
     23509     23508     23511     23513     23509     23508     23511     23514
     23510     23508     23511     23512     23510     23508     23511     23513
     23510     23508     23511     23514     23511     23514     23517     23518
     23511     23514     23517     23519     23511     23514     23517     23520
     23512     23511     23514     23515     23512     23511     23514     23516
     23512     23511     23514     23517     23513     23511     23514     23515
     23513     23511     23514     23516     23513     23511     23514     23517
     23514     23517     23520     23521     23514     23517     23520     23522
     23514     23517     23520     23523     23515     23514     23517     23518
     23515     23514     23517     23519     23515     23514     23517     23520
     23516     23514     23517     23518     23516     23514     23517     23519
     23516     23514     23517     23520     23517     23520     23523     23524
     23517     23520     23523     23525     23517     23520     23523     23526
     23518     23517     23520     23521     23518     23517     23520     23522
     23518     23517     23520     23523     23519     23517     23520     23521
     23519     23517     23520     23522     23519     23517     23520     23523
     23520     23523     23526     23527     23520     23523     23526     23528
     23520     23523     23526     23529     23521     23520     23523     23524
     23521     23520     23523     23525     23521     23520     23523     23526
     23522     23520     23523     23524     23522     23520     23523     23525
     23522     23520     23523     23526     23523     23526     23529     23530
     23523     23526     23529     23531     23523     23526     23529     23532
     23524     23523     23526     23527     23524     23523     23526     23528
     23524     23523     23526     23529     23525     23523     23526     23527
     23525     23523     23526     23528     23525     23523     23526     23529
     23526     23529     23532     23533     23526     23529     23532     23534
     23526     23529     23532     23535     23527     23526     23529     23530
     23527     23526     23529     23531     23527     23526     23529     23532
     23528     23526     23529     23530     23528     23526     23529     23531
     23528     23526     23529     23532     23529     23532     23535     23536
     23529     23532     23535     23537     23529     23532     23535     23538
     23530     23529     23532     23533     23530     23529     23532     23534
     23530     23529     23532     23535     23531     23529     23532     23533
     23531     23529     23532     23534     23531     23529     23532     23535
     23532     23535     23538     23539     23532     23535     23538     23540
     23532     23535     23538     23541     23533     23532     23535     23536
     23533     23532     23535     23537     23533     23532     23535     23538
     23534     23532     23535     23536     23534     23532     23535     23537
     23534     23532     23535     23538     23535     23538     23541     23542
     23535     23538     23541     23543     23535     23538     23541     23544
     23536     23535     23538     23539     23536     23535     23538     23540
     23536     23535     23538     23541     23537     23535     23538     23539
     23537     23535     23538     23540     23537     23535     23538     23541
     23538     23541     23544     23545     23538     23541     23544     23546
     23538     23541     23544     23547     23539     23538     23541     23542
     23539     23538     23541     23543     23539     23538     23541     23544
     23540     23538     23541     23542     23540     23538     23541     23543
     23540     23538     23541     23544     23542     23541     23544     23545
     23542     23541     23544     23546     23542     23541     23544     23547
     23543     23541     23544     23545     23543     23541     23544     23546
     23543     23541     23544     23547     23548     23550     23553     23554
     23548     23550     23553     23555     23548     23550     23553     23556
     23549     23548     23550     23551     23549     23548     23550     23552
     23549     23548     23550     23553     23550     23553     23556     23557
     23550     23553     23556     23558     23550     23553     23556     23559
     23551     23550     23553     23554     23551     23550     23553     23555
     23551     23550     23553     23556     23552     23550     23553     23554
     23552     23550     23553     23555     23552     23550     23553     23556
     23553     23556     23559     23560     23553     23556     23559     23561
     23553     23556     23559     23562     23554     23553     23556     23557
     23554     23553     23556     23558     23554     23553     23556     23559
     23555     23553     23556     23557     23555     23553     23556     23558
     23555     23553     23556     23559     23556     23559     23562     23563
     23556     23559     23562     23564     23556     23559     23562     23565
     23557     23556     23559     23560     23557     23556     23559     23561
     23557     23556     23559     23562     23558     23556     23559     23560
     23558     23556     23559     23561     23558     23556     23559     23562
     23559     23562     23565     23566     23559     23562     23565     23567
     23559     23562     23565     23568     23560     23559     23562     23563
     23560     23559     23562     23564     23560     23559     23562     23565
     23561     23559     23562     23563     23561     23559     23562     23564
     23561     23559     23562     23565     23562     23565     23568     23569
     23562     23565     23568     23570     23562     23565     23568     23571
     23563     23562     23565     23566     23563     23562     23565     23567
     23563     23562     23565     23568     23564     23562     23565     23566
     23564     23562     23565     23567     23564     23562     23565     23568
     23565     23568     23571     23572     23565     23568     23571     23573
     23565     23568     23571     23574     23566     23565     23568     23569
     23566     23565     23568     23570     23566     23565     23568     23571
     23567     23565     23568     23569     23567     23565     23568     23570
     23567     23565     23568     23571     23568     23571     23574     23575
     23568     23571     23574     23576     23568     23571     23574     23577
     23569     23568     23571     23572     23569     23568     23571     23573
     23569     23568     23571     23574     23570     23568     23571     23572
     23570     23568     23571     23573     23570     23568     23571     23574
     23571     23574     23577     23578     23571     23574     23577     23579
     23571     23574     23577     23580     23572     23571     23574     23575
     23572     23571     23574     23576     23572     23571     23574     23577
     23573     23571     23574     23575     23573     23571     23574     23576
     23573     23571     23574     23577     23574     23577     23580     23581
     23574     23577     23580     23582     23574     23577     23580     23583
     23575     23574     23577     23578     23575     23574     23577     23579
     23575     23574     23577     23580     23576     23574     23577     23578
     23576     23574     23577     23579     23576     23574     23577     23580
     23577     23580     23583     23584     23577     23580     23583     23585
     23577     23580     23583     23586     23578     23577     23580     23581
     23578     23577     23580     23582     23578     23577     23580     23583
     23579     23577     23580     23581     23579     23577     23580     23582
     23579     23577     23580     23583     23580     23583     23586     23587
     23580     23583     23586     23588     23580     23583     23586     23589
     23581     23580     23583     23584     23581     23580     23583     23585
     23581     23580     23583     23586     23582     23580     23583     23584
     23582     23580     23583     23585     23582     23580     23583     23586
     23583     23586     23589     23590     23583     23586     23589     23591
     23583     23586     23589     23592     23584     23583     23586     23587
     23584     23583     23586     23588     23584     23583     23586     23589
     23585     23583     23586     23587     23585     23583     23586     23588
     23585     23583     23586     23589     23586     23589     23592     23593
     23586     23589     23592     23594     23586     23589     23592     23595
     23587     23586     23589     23590     23587     23586     23589     23591
     23587     23586     23589     23592     23588     23586     23589     23590
     23588     23586     23589     23591     23588     23586     23589     23592
     23590     23589     23592     23593     23590     23589     23592     23594
     23590     23589     23592     23595     23591     23589     23592     23593
     23591     23589     23592     23594     23591     23589     23592     23595
      3846      3850      3853      3854      3846      3850      3853      3855
      3846      3850      3853      3860      3847      3846      3850      3851
      3847      3846      3850      3852      3847      3846      3850      3853
      3848      3846      3850      3851      3848      3846      3850      3852
      3848      3846      3850      3853      3849      3846      3850      3851
      3849      3846      3850      3852      3849      3846      3850      3853
      3850      3853      3860      3856      3851      3850      3853      3854
      3851      3850      3853      3855      3851      3850      3853      3860
      3852      3850      3853      3854      3852      3850      3853      3855
      3852      3850      3853      3860      3853      3860      3856      3857
      3853      3860      3856      3858      3853      3860      3856      3859
      3854      3853      3860      3856      3855      3853      3860      3856
      3856      3859      3861      3862      3856      3859      3861      3863
      3856      3859      3861      3864      3857      3856      3859      3861
      3858      3856      3859      3861      3859      3861      3864      3865
      3859      3861      3864      3866      3859      3861      3864      3872
      3860      3856      3859      3861      3861      3864      3866      3867
      3861      3864      3872      3873      3861      3864      3872      3874
      3861      3864      3872      3875      3862      3861      3864      3865
      3862      3861      3864      3866      3862      3861      3864      3872
      3863      3861      3864      3865      3863      3861      3864      3866
      3863      3861      3864      3872      3864      3866      3867      3868
      3864      3866      3867      3869      3864      3872      3875      3876
      3865      3864      3866      3867      3865      3864      3872      3873
      3865      3864      3872      3874      3865      3864      3872      3875
      3866      3864      3872      3873      3866      3864      3872      3874
      3866      3864      3872      3875      3866      3867      3869      3870
      3866      3867      3869      3871      3866      3867      3869      3881
      3867      3866      3864      3872      3867      3869      3881      3882
      3867      3869      3881      3883      3867      3869      3881      3884
      3868      3867      3869      3870      3868      3867      3869      3871
      3868      3867      3869      3881      3869      3881      3884      3885
      3869      3881      3884      3886      3869      3881      3884      3887
      3870      3869      3881      3882      3870      3869      3881      3883
      3870      3869      3881      3884      3871      3869      3881      3882
      3871      3869      3881      3883      3871      3869      3881      3884
      3872      3875      3876      3877      3872      3875      3876      3878
      3873      3872      3875      3876      3874      3872      3875      3876
      3875      3876      3878      3879      3875      3876      3878      3880
      3875      3876      3878      3928      3876      3878      3928      3929
      3876      3878      3928      3930      3876      3878      3928      3931
      3877      3876      3878      3879      3877      3876      3878      3880
      3877      3876      3878      3928      3878      3928      3931      3932
      3878      3928      3931      3933      3878      3928      3931      3934
      3879      3878      3928      3929      3879      3878      3928      3930
      3879      3878      3928      3931      3880      3878      3928      3929
      3880      3878      3928      3930      3880      3878      3928      3931
      3881      3884      3887      3888      3881      3884      3887      3889
      3881      3884      3887      3890      3882      3881      3884      3885
      3882      3881      3884      3886      3882      3881      3884      3887
      3883      3881      3884      3885      3883      3881      3884      3886
      3883      3881      3884      3887      3884      3887      3890      3891
      3884      3887      3890      3892      3884      3887      3890      3893
      3885      3884      3887      3888      3885      3884      3887      3889
      3885      3884      3887      3890      3886      3884      3887      3888
      3886      3884      3887      3889      3886      3884      3887      3890
      3887      3890      3893      3894      3887      3890      3893      3895
      3887      3890      3893      3896      3888      3887      3890      3891
      3888      3887      3890      3892      3888      3887      3890      3893
      3889      3887      3890      3891      3889      3887      3890      3892
      3889      3887      3890      3893      3890      3893      3896      3897
      3890      3893      3896      3898      3890      3893      3896      3899
      3891      3890      3893      3894      3891      3890      3893      3895
      3891      3890      3893      3896      3892      3890      3893      3894
      3892      3890      3893      3895      3892      3890      3893      3896
      3893      3896      3899      3900      3893      3896      3899      3901
      3894      3893      3896      3897      3894      3893      3896      3898
      3894      3893      3896      3899      3895      3893      3896      3897
      3895      3893      3896      3898      3895      3893      3896      3899
      3896      3899      3901      3902      3896      3899      3901      3903
      3897      3896      3899      3900      3897      3896      3899      3901
      3898      3896      3899      3900      3898      3896      3899      3901
      3899      3901      3903      3904      3899      3901      3903      3905
      3899      3901      3903      3906      3900      3899      3901      3902
      3900      3899      3901      3903      3901      3903      3906      3907
      3901      3903      3906      3908      3901      3903      3906      3909
      3902      3901      3903      3904      3902      3901      3903      3905
      3902      3901      3903      3906      3903      3906      3909      3910
      3903      3906      3909      3911      3903      3906      3909      3912
      3904      3903      3906      3907      3904      3903      3906      3908
      3904      3903      3906      3909      3905      3903      3906      3907
      3905      3903      3906      3908      3905      3903      3906      3909
      3906      3909      3912      3913      3906      3909      3912      3914
      3906      3909      3912      3915      3907      3906      3909      3910
      3907      3906      3909      3911      3907      3906      3909      3912
      3908      3906      3909      3910      3908      3906      3909      3911
      3908      3906      3909      3912      3909      3912      3915      3916
      3909      3912      3915      3917      3909      3912      3915      3918
      3910      3909      3912      3913      3910      3909      3912      3914
      3910      3909      3912      3915      3911      3909      3912      3913
      3911      3909      3912      3914      3911      3909      3912      3915
      3912      3915      3918      3919      3912      3915      3918      3920
      3912      3915      3918      3921      3913      3912      3915      3916
      3913      3912      3915      3917      3913      3912      3915      3918
      3914      3912      3915      3916      3914      3912      3915      3917
      3914      3912      3915      3918      3915      3918      3921      3922
      3915      3918      3921      3923      3915      3918      3921      3924
      3916      3915      3918      3919      3916      3915      3918      3920
      3916      3915      3918      3921      3917      3915      3918      3919
      3917      3915      3918      3920      3917      3915      3918      3921
      3918      3921      3924      3925      3918      3921      3924      3926
      3918      3921      3924      3927      3919      3918      3921      3922
      3919      3918      3921      3923      3919      3918      3921      3924
      3920      3918      3921      3922      3920      3918      3921      3923
      3920      3918      3921      3924      3922      3921      3924      3925
      3922      3921      3924      3926      3922      3921      3924      3927
      3923      3921      3924      3925      3923      3921      3924      3926
      3923      3921      3924      3927      3928      3931      3934      3935
      3928      3931      3934      3936      3928      3931      3934      3937
      3929      3928      3931      3932      3929      3928      3931      3933
      3929      3928      3931      3934      3930      3928      3931      3932
      3930      3928      3931      3933      3930      3928      3931      3934
      3931      3934      3937      3938      3931      3934      3937      3939
      3931      3934      3937      3940      3932      3931      3934      3935
      3932      3931      3934      3936      3932      3931      3934      3937
      3933      3931      3934      3935      3933      3931      3934      3936
      3933      3931      3934      3937      3934      3937      3940      3941
      3934      3937      3940      3942      3934      3937      3940      3943
      3935      3934      3937      3938      3935      3934      3937      3939
      3935      3934      3937      3940      3936      3934      3937      3938
      3936      3934      3937      3939      3936      3934      3937      3940
      3937      3940      3943      3944      3937      3940      3943      3945
      3937      3940      3943      3946      3938      3937      3940      3941
      3938      3937      3940      3942      3938      3937      3940      3943
      3939      3937      3940      3941      3939      3937      3940      3942
      3939      3937      3940      3943      3940      3943      3946      3947
      3940      3943      3946      3948      3940      3943      3946      3949
      3941      3940      3943      3944      3941      3940      3943      3945
      3941      3940      3943      3946      3942      3940      3943      3944
      3942      3940      3943      3945      3942      3940      3943      3946
      3943      3946      3949      3950      3943      3946      3949      3951
      3943      3946      3949      3952      3944      3943      3946      3947
      3944      3943      3946      3948      3944      3943      3946      3949
      3945      3943      3946      3947      3945      3943      3946      3948
      3945      3943      3946      3949      3946      3949      3952      3953
      3946      3949      3952      3954      3946      3949      3952      3955
      3947      3946      3949      3950      3947      3946      3949      3951
      3947      3946      3949      3952      3948      3946      3949      3950
      3948      3946      3949      3951      3948      3946      3949      3952
      3949      3952      3955      3956      3949      3952      3955      3957
      3949      3952      3955      3958      3950      3949      3952      3953
      3950      3949      3952      3954      3950      3949      3952      3955
      3951      3949      3952      3953      3951      3949      3952      3954
      3951      3949      3952      3955      3952      3955      3958      3959
      3952      3955      3958      3960      3952      3955      3958      3961
      3953      3952      3955      3956      3953      3952      3955      3957
      3953      3952      3955      3958      3954      3952      3955      3956
      3954      3952      3955      3957      3954      3952      3955      3958
      3955      3958      3961      3962      3955      3958      3961      3963
      3955      3958      3961      3964      3956      3955      3958      3959
      3956      3955      3958      3960      3956      3955      3958      3961
      3957      3955      3958      3959      3957      3955      3958      3960
      3957      3955      3958      3961      3958      3961      3964      3965
      3958      3961      3964      3966      3958      3961      3964      3967
      3959      3958      3961      3962      3959      3958      3961      3963
      3959      3958      3961      3964      3960      3958      3961      3962
      3960      3958      3961      3963      3960      3958      3961      3964
      3961      3964      3967      3968      3961      3964      3967      3969
      3961      3964      3967      3970      3962      3961      3964      3965
      3962      3961      3964      3966      3962      3961      3964      3967
      3963      3961      3964      3965      3963      3961      3964      3966
      3963      3961      3964      3967      3965      3964      3967      3968
      3965      3964      3967      3969      3965      3964      3967      3970
      3966      3964      3967      3968      3966      3964      3967      3969
      3966      3964      3967      3970      3971      3975      3978      3979
      3971      3975      3978      3980      3971      3975      3978      3985
      3972      3971      3975      3976      3972      3971      3975      3977
      3972      3971      3975      3978      3973      3971      3975      3976
      3973      3971      3975      3977      3973      3971      3975      3978
      3974      3971      3975      3976      3974      3971      3975      3977
      3974      3971      3975      3978      3975      3978      3985      3981
      3976      3975      3978      3979      3976      3975      3978      3980
      3976      3975      3978      3985      3977      3975      3978      3979
      3977      3975      3978      3980      3977      3975      3978      3985
      3978      3985      3981      3982      3978      3985      3981      3983
      3978      3985      3981      3984      3979      3978      3985      3981
      3980      3978      3985      3981      3981      3984      3986      3987
      3981      3984      3986      3988      3981      3984      3986      3989
      3982      3981      3984      3986      3983      3981      3984      3986
      3984      3986      3989      3990      3984      3986      3989      3991
      3984      3986      3989      3997      3985      3981      3984      3986
      3986      3989      3991      3992      3986      3989      3997      3998
      3986      3989      3997      3999      3986      3989      3997      4000
      3987      3986      3989      3990      3987      3986      3989      3991
      3987      3986      3989      3997      3988      3986      3989      3990
      3988      3986      3989      3991      3988      3986      3989      3997
      3989      3991      3992      3993      3989      3991      3992      3994
      3989      3997      4000      4001      3990      3989      3991      3992
      3990      3989      3997      3998      3990      3989      3997      3999
      3990      3989      3997      4000      3991      3989      3997      3998
      3991      3989      3997      3999      3991      3989      3997      4000
      3991      3992      3994      3995      3991      3992      3994      3996
      3991      3992      3994      4006      3992      3991      3989      3997
      3992      3994      4006      4007      3992      3994      4006      4008
      3992      3994      4006      4009      3993      3992      3994      3995
      3993      3992      3994      3996      3993      3992      3994      4006
      3994      4006      4009      4010      3994      4006      4009      4011
      3994      4006      4009      4012      3995      3994      4006      4007
      3995      3994      4006      4008      3995      3994      4006      4009
      3996      3994      4006      4007      3996      3994      4006      4008
      3996      3994      4006      4009      3997      4000      4001      4002
      3997      4000      4001      4003      3998      3997      4000      4001
      3999      3997      4000      4001      4000      4001      4003      4004
      4000      4001      4003      4005      4000      4001      4003      4053
      4001      4003      4053      4054      4001      4003      4053      4055
      4001      4003      4053      4056      4002      4001      4003      4004
      4002      4001      4003      4005      4002      4001      4003      4053
      4003      4053      4056      4057      4003      4053      4056      4058
      4003      4053      4056      4059      4004      4003      4053      4054
      4004      4003      4053      4055      4004      4003      4053      4056
      4005      4003      4053      4054      4005      4003      4053      4055
      4005      4003      4053      4056      4006      4009      4012      4013
      4006      4009      4012      4014      4006      4009      4012      4015
      4007      4006      4009      4010      4007      4006      4009      4011
      4007      4006      4009      4012      4008      4006      4009      4010
      4008      4006      4009      4011      4008      4006      4009      4012
      4009      4012      4015      4016      4009      4012      4015      4017
      4009      4012      4015      4018      4010      4009      4012      4013
      4010      4009      4012      4014      4010      4009      4012      4015
      4011      4009      4012      4013      4011      4009      4012      4014
      4011      4009      4012      4015      4012      4015      4018      4019
      4012      4015      4018      4020      4012      4015      4018      4021
      4013      4012      4015      4016      4013      4012      4015      4017
      4013      4012      4015      4018      4014      4012      4015      4016
      4014      4012      4015      4017      4014      4012      4015      4018
      4015      4018      4021      4022      4015      4018      4021      4023
      4015      4018      4021      4024      4016      4015      4018      4019
      4016      4015      4018      4020      4016      4015      4018      4021
      4017      4015      4018      4019      4017      4015      4018      4020
      4017      4015      4018      4021      4018      4021      4024      4025
      4018      4021      4024      4026      4019      4018      4021      4022
      4019      4018      4021      4023      4019      4018      4021      4024
      4020      4018      4021      4022      4020      4018      4021      4023
      4020      4018      4021      4024      4021      4024      4026      4027
      4021      4024      4026      4028      4022      4021      4024      4025
      4022      4021      4024      4026      4023      4021      4024      4025
      4023      4021      4024      4026      4024      4026      4028      4029
      4024      4026      4028      4030      4024      4026      4028      4031
      4025      4024      4026      4027      4025      4024      4026      4028
      4026      4028      4031      4032      4026      4028      4031      4033
      4026      4028      4031      4034      4027      4026      4028      4029
      4027      4026      4028      4030      4027      4026      4028      4031
      4028      4031      4034      4035      4028      4031      4034      4036
      4028      4031      4034      4037      4029      4028      4031      4032
      4029      4028      4031      4033      4029      4028      4031      4034
      4030      4028      4031      4032      4030      4028      4031      4033
      4030      4028      4031      4034      4031      4034      4037      4038
      4031      4034      4037      4039      4031      4034      4037      4040
      4032      4031      4034      4035      4032      4031      4034      4036
      4032      4031      4034      4037      4033      4031      4034      4035
      4033      4031      4034      4036      4033      4031      4034      4037
      4034      4037      4040      4041      4034      4037      4040      4042
      4034      4037      4040      4043      4035      4034      4037      4038
      4035      4034      4037      4039      4035      4034      4037      4040
      4036      4034      4037      4038      4036      4034      4037      4039
      4036      4034      4037      4040      4037      4040      4043      4044
      4037      4040      4043      4045      4037      4040      4043      4046
      4038      4037      4040      4041      4038      4037      4040      4042
      4038      4037      4040      4043      4039      4037      4040      4041
      4039      4037      4040      4042      4039      4037      4040      4043
      4040      4043      4046      4047      4040      4043      4046      4048
      4040      4043      4046      4049      4041      4040      4043      4044
      4041      4040      4043      4045      4041      4040      4043      4046
      4042      4040      4043      4044      4042      4040      4043      4045
      4042      4040      4043      4046      4043      4046      4049      4050
      4043      4046      4049      4051      4043      4046      4049      4052
      4044      4043      4046      4047      4044      4043      4046      4048
      4044      4043      4046      4049      4045      4043      4046      4047
      4045      4043      4046      4048      4045      4043      4046      4049
      4047      4046      4049      4050      4047      4046      4049      4051
      4047      4046      4049      4052      4048      4046      4049      4050
      4048      4046      4049      4051      4048      4046      4049      4052
      4053      4056      4059      4060      4053      4056      4059      4061
      4053      4056      4059      4062      4054      4053      4056      4057
      4054      4053      4056      4058      4054      4053      4056      4059
      4055      4053      4056      4057      4055      4053      4056      4058
      4055      4053      4056      4059      4056      4059      4062      4063
      4056      4059      4062      4064      4056      4059      4062      4065
      4057      4056      4059      4060      4057      4056      4059      4061
      4057      4056      4059      4062      4058      4056      4059      4060
      4058      4056      4059      4061      4058      4056      4059      4062
      4059      4062      4065      4066      4059      4062      4065      4067
      4059      4062      4065      4068      4060      4059      4062      4063
      4060      4059      4062      4064      4060      4059      4062      4065
      4061      4059      4062      4063      4061      4059      4062      4064
      4061      4059      4062      4065      4062      4065      4068      4069
      4062      4065      4068      4070      4062      4065      4068      4071
      4063      4062      4065      4066      4063      4062      4065      4067
      4063      4062      4065      4068      4064      4062      4065      4066
      4064      4062      4065      4067      4064      4062      4065      4068
      4065      4068      4071      4072      4065      4068      4071      4073
      4065      4068      4071      4074      4066      4065      4068      4069
      4066      4065      4068      4070      4066      4065      4068      4071
      4067      4065      4068      4069      4067      4065      4068      4070
      4067      4065      4068      4071      4068      4071      4074      4075
      4068      4071      4074      4076      4068      4071      4074      4077
      4069      4068      4071      4072      4069      4068      4071      4073
      4069      4068      4071      4074      4070      4068      4071      4072
      4070      4068      4071      4073      4070      4068      4071      4074
      4071      4074      4077      4078      4071      4074      4077      4079
      4071      4074      4077      4080      4072      4071      4074      4075
      4072      4071      4074      4076      4072      4071      4074      4077
      4073      4071      4074      4075      4073      4071      4074      4076
      4073      4071      4074      4077      4074      4077      4080      4081
      4074      4077      4080      4082      4074      4077      4080      4083
      4075      4074      4077      4078      4075      4074      4077      4079
      4075      4074      4077      4080      4076      4074      4077      4078
      4076      4074      4077      4079      4076      4074      4077      4080
      4077      4080      4083      4084      4077      4080      4083      4085
      4077      4080      4083      4086      4078      4077      4080      4081
      4078      4077      4080      4082      4078      4077      4080      4083
      4079      4077      4080      4081      4079      4077      4080      4082
      4079      4077      4080      4083      4080      4083      4086      4087
      4080      4083      4086      4088      4080      4083      4086      4089
      4081      4080      4083      4084      4081      4080      4083      4085
      4081      4080      4083      4086      4082      4080      4083      4084
      4082      4080      4083      4085      4082      4080      4083      4086
      4083      4086      4089      4090      4083      4086      4089      4091
      4083      4086      4089      4092      4084      4083      4086      4087
      4084      4083      4086      4088      4084      4083      4086      4089
      4085      4083      4086      4087      4085      4083      4086      4088
      4085      4083      4086      4089      4086      4089      4092      4093
      4086      4089      4092      4094      4086      4089      4092      4095
      4087      4086      4089      4090      4087      4086      4089      4091
      4087      4086      4089      4092      4088      4086      4089      4090
      4088      4086      4089      4091      4088      4086      4089      4092
      4090      4089      4092      4093      4090      4089      4092      4094
      4090      4089      4092      4095      4091      4089      4092      4093
      4091      4089      4092      4094      4091      4089      4092      4095
     15561     15562     15577     15578     15561     15562     15577     15579
     15561     15562     15577     15583     15562     15561     15565     15566
     15562     15561     15565     15567     15562     15561     15565     15568
     15562     15561     15569     15570     15562     15561     15569     15571
     15562     15561     15569     15572     15562     15561     15573     15574
     15562     15561     15573     15575     15562     15561     15573     15576
     15562     15577     15583     15580     15563     15562     15561     15565
     15563     15562     15561     15569     15563     15562     15561     15573
     15563     15562     15577     15578     15563     15562     15577     15579
     15563     15562     15577     15583     15564     15562     15561     15565
     15564     15562     15561     15569     15564     15562     15561     15573
     15564     15562     15577     15578     15564     15562     15577     15579
     15564     15562     15577     15583     15565     15561     15562     15577
     15565     15561     15569     15570     15565     15561     15569     15571
     15565     15561     15569     15572     15565     15561     15573     15574
     15565     15561     15573     15575     15565     15561     15573     15576
     15566     15565     15561     15569     15566     15565     15561     15573
     15567     15565     15561     15569     15567     15565     15561     15573
     15568     15565     15561     15569     15568     15565     15561     15573
     15569     15561     15562     15577     15569     15561     15573     15574
     15569     15561     15573     15575     15569     15561     15573     15576
     15570     15569     15561     15573     15571     15569     15561     15573
     15572     15569     15561     15573     15573     15561     15562     15577
     15577     15583     15580     15581     15577     15583     15580     15582
     15577     15583     15580     15584     15578     15577     15583     15580
     15579     15577     15583     15580     15580     15584     15585     15586
     15580     15584     15585     15587     15580     15584     15585     15588
     15581     15580     15584     15585     15582     15580     15584     15585
     15583     15580     15584     15585     15584     15585     15588     15589
     15584     15585     15588     15590     15584     15585     15588     15596
     15585     15588     15590     15591     15585     15588     15596     15597
     15585     15588     15596     15598     15585     15588     15596     15599
     15586     15585     15588     15589     15586     15585     15588     15590
     15586     15585     15588     15596     15587     15585     15588     15589
     15587     15585     15588     15590     15587     15585     15588     15596
     15588     15590     15591     15592     15588     15590     15591     15593
     15588     15596     15599     15600     15589     15588     15590     15591
     15589     15588     15596     15597     15589     15588     15596     15598
     15589     15588     15596     15599     15590     15588     15596     15597
     15590     15588     15596     15598     15590     15588     15596     15599
     15590     15591     15593     15594     15590     15591     15593     15595
     15590     15591     15593     15605     15591     15590     15588     15596
     15591     15593     15605     15606     15591     15593     15605     15607
     15591     15593     15605     15608     15592     15591     15593     15594
     15592     15591     15593     15595     15592     15591     15593     15605
     15593     15605     15608     15609     15593     15605     15608     15610
     15593     15605     15608     15611     15594     15593     15605     15606
     15594     15593     15605     15607     15594     15593     15605     15608
     15595     15593     15605     15606     15595     15593     15605     15607
     15595     15593     15605     15608     15596     15599     15600     15601
     15596     15599     15600     15602     15597     15596     15599     15600
     15598     15596     15599     15600     15599     15600     15602     15603
     15599     15600     15602     15604     15599     15600     15602     15652
     15600     15602     15652     15653     15600     15602     15652     15654
     15600     15602     15652     15655     15601     15600     15602     15603
     15601     15600     15602     15604     15601     15600     15602     15652
     15602     15652     15655     15656     15602     15652     15655     15657
     15602     15652     15655     15658     15603     15602     15652     15653
     15603     15602     15652     15654     15603     15602     15652     15655
     15604     15602     15652     15653     15604     15602     15652     15654
     15604     15602     15652     15655     15605     15608     15611     15612
     15605     15608     15611     15613     15605     15608     15611     15614
     15606     15605     15608     15609     15606     15605     15608     15610
     15606     15605     15608     15611     15607     15605     15608     15609
     15607     15605     15608     15610     15607     15605     15608     15611
     15608     15611     15614     15615     15608     15611     15614     15616
     15608     15611     15614     15617     15609     15608     15611     15612
     15609     15608     15611     15613     15609     15608     15611     15614
     15610     15608     15611     15612     15610     15608     15611     15613
     15610     15608     15611     15614     15611     15614     15617     15618
     15611     15614     15617     15619     15611     15614     15617     15620
     15612     15611     15614     15615     15612     15611     15614     15616
     15612     15611     15614     15617     15613     15611     15614     15615
     15613     15611     15614     15616     15613     15611     15614     15617
     15614     15617     15620     15621     15614     15617     15620     15622
     15614     15617     15620     15623     15615     15614     15617     15618
     15615     15614     15617     15619     15615     15614     15617     15620
     15616     15614     15617     15618     15616     15614     15617     15619
     15616     15614     15617     15620     15617     15620     15623     15624
     15617     15620     15623     15625     15618     15617     15620     15621
     15618     15617     15620     15622     15618     15617     15620     15623
     15619     15617     15620     15621     15619     15617     15620     15622
     15619     15617     15620     15623     15620     15623     15625     15626
     15620     15623     15625     15627     15621     15620     15623     15624
     15621     15620     15623     15625     15622     15620     15623     15624
     15622     15620     15623     15625     15623     15625     15627     15628
     15623     15625     15627     15629     15623     15625     15627     15630
     15624     15623     15625     15626     15624     15623     15625     15627
     15625     15627     15630     15631     15625     15627     15630     15632
     15625     15627     15630     15633     15626     15625     15627     15628
     15626     15625     15627     15629     15626     15625     15627     15630
     15627     15630     15633     15634     15627     15630     15633     15635
     15627     15630     15633     15636     15628     15627     15630     15631
     15628     15627     15630     15632     15628     15627     15630     15633
     15629     15627     15630     15631     15629     15627     15630     15632
     15629     15627     15630     15633     15630     15633     15636     15637
     15630     15633     15636     15638     15630     15633     15636     15639
     15631     15630     15633     15634     15631     15630     15633     15635
     15631     15630     15633     15636     15632     15630     15633     15634
     15632     15630     15633     15635     15632     15630     15633     15636
     15633     15636     15639     15640     15633     15636     15639     15641
     15633     15636     15639     15642     15634     15633     15636     15637
     15634     15633     15636     15638     15634     15633     15636     15639
     15635     15633     15636     15637     15635     15633     15636     15638
     15635     15633     15636     15639     15636     15639     15642     15643
     15636     15639     15642     15644     15636     15639     15642     15645
     15637     15636     15639     15640     15637     15636     15639     15641
     15637     15636     15639     15642     15638     15636     15639     15640
     15638     15636     15639     15641     15638     15636     15639     15642
     15639     15642     15645     15646     15639     15642     15645     15647
     15639     15642     15645     15648     15640     15639     15642     15643
     15640     15639     15642     15644     15640     15639     15642     15645
     15641     15639     15642     15643     15641     15639     15642     15644
     15641     15639     15642     15645     15642     15645     15648     15649
     15642     15645     15648     15650     15642     15645     15648     15651
     15643     15642     15645     15646     15643     15642     15645     15647
     15643     15642     15645     15648     15644     15642     15645     15646
     15644     15642     15645     15647     15644     15642     15645     15648
     15646     15645     15648     15649     15646     15645     15648     15650
     15646     15645     15648     15651     15647     15645     15648     15649
     15647     15645     15648     15650     15647     15645     15648     15651
     15652     15655     15658     15659     15652     15655     15658     15660
     15652     15655     15658     15661     15653     15652     15655     15656
     15653     15652     15655     15657     15653     15652     15655     15658
     15654     15652     15655     15656     15654     15652     15655     15657
     15654     15652     15655     15658     15655     15658     15661     15662
     15655     15658     15661     15663     15655     15658     15661     15664
     15656     15655     15658     15659     15656     15655     15658     15660
     15656     15655     15658     15661     15657     15655     15658     15659
     15657     15655     15658     15660     15657     15655     15658     15661
     15658     15661     15664     15665     15658     15661     15664     15666
     15658     15661     15664     15667     15659     15658     15661     15662
     15659     15658     15661     15663     15659     15658     15661     15664
     15660     15658     15661     15662     15660     15658     15661     15663
     15660     15658     15661     15664     15661     15664     15667     15668
     15661     15664     15667     15669     15661     15664     15667     15670
     15662     15661     15664     15665     15662     15661     15664     15666
     15662     15661     15664     15667     15663     15661     15664     15665
     15663     15661     15664     15666     15663     15661     15664     15667
     15664     15667     15670     15671     15664     15667     15670     15672
     15664     15667     15670     15673     15665     15664     15667     15668
     15665     15664     15667     15669     15665     15664     15667     15670
     15666     15664     15667     15668     15666     15664     15667     15669
     15666     15664     15667     15670     15667     15670     15673     15674
     15667     15670     15673     15675     15667     15670     15673     15676
     15668     15667     15670     15671     15668     15667     15670     15672
     15668     15667     15670     15673     15669     15667     15670     15671
     15669     15667     15670     15672     15669     15667     15670     15673
     15670     15673     15676     15677     15670     15673     15676     15678
     15670     15673     15676     15679     15671     15670     15673     15674
     15671     15670     15673     15675     15671     15670     15673     15676
     15672     15670     15673     15674     15672     15670     15673     15675
     15672     15670     15673     15676     15673     15676     15679     15680
     15673     15676     15679     15681     15673     15676     15679     15682
     15674     15673     15676     15677     15674     15673     15676     15678
     15674     15673     15676     15679     15675     15673     15676     15677
     15675     15673     15676     15678     15675     15673     15676     15679
     15676     15679     15682     15683     15676     15679     15682     15684
     15676     15679     15682     15685     15677     15676     15679     15680
     15677     15676     15679     15681     15677     15676     15679     15682
     15678     15676     15679     15680     15678     15676     15679     15681
     15678     15676     15679     15682     15679     15682     15685     15686
     15679     15682     15685     15687     15679     15682     15685     15688
     15680     15679     15682     15683     15680     15679     15682     15684
     15680     15679     15682     15685     15681     15679     15682     15683
     15681     15679     15682     15684     15681     15679     15682     15685
     15682     15685     15688     15689     15682     15685     15688     15690
     15682     15685     15688     15691     15683     15682     15685     15686
     15683     15682     15685     15687     15683     15682     15685     15688
     15684     15682     15685     15686     15684     15682     15685     15687
     15684     15682     15685     15688     15685     15688     15691     15692
     15685     15688     15691     15693     15685     15688     15691     15694
     15686     15685     15688     15689     15686     15685     15688     15690
     15686     15685     15688     15691     15687     15685     15688     15689
     15687     15685     15688     15690     15687     15685     15688     15691
     15689     15688     15691     15692     15689     15688     15691     15693
     15689     15688     15691     15694     15690     15688     15691     15692
     15690     15688     15691     15693     15690     15688     15691     15694
     15695     15696     15711     15712     15695     15696     15711     15713
     15695     15696     15711     15717     15696     15695     15699     15700
     15696     15695     15699     15701     15696     15695     15699     15702
     15696     15695     15703     15704     15696     15695     15703     15705
     15696     15695     15703     15706     15696     15695     15707     15708
     15696     15695     15707     15709     15696     15695     15707     15710
     15696     15711     15717     15714     15697     15696     15695     15699
     15697     15696     15695     15703     15697     15696     15695     15707
     15697     15696     15711     15712     15697     15696     15711     15713
     15697     15696     15711     15717     15698     15696     15695     15699
     15698     15696     15695     15703     15698     15696     15695     15707
     15698     15696     15711     15712     15698     15696     15711     15713
     15698     15696     15711     15717     15699     15695     15696     15711
     15699     15695     15703     15704     15699     15695     15703     15705
     15699     15695     15703     15706     15699     15695     15707     15708
     15699     15695     15707     15709     15699     15695     15707     15710
     15700     15699     15695     15703     15700     15699     15695     15707
     15701     15699     15695     15703     15701     15699     15695     15707
     15702     15699     15695     15703     15702     15699     15695     15707
     15703     15695     15696     15711     15703     15695     15707     15708
     15703     15695     15707     15709     15703     15695     15707     15710
     15704     15703     15695     15707     15705     15703     15695     15707
     15706     15703     15695     15707     15707     15695     15696     15711
     15711     15717     15714     15715     15711     15717     15714     15716
     15711     15717     15714     15718     15712     15711     15717     15714
     15713     15711     15717     15714     15714     15718     15719     15720
     15714     15718     15719     15721     15714     15718     15719     15722
     15715     15714     15718     15719     15716     15714     15718     15719
     15717     15714     15718     15719     15718     15719     15722     15723
     15718     15719     15722     15724     15718     15719     15722     15730
     15719     15722     15724     15725     15719     15722     15730     15731
     15719     15722     15730     15732     15719     15722     15730     15733
     15720     15719     15722     15723     15720     15719     15722     15724
     15720     15719     15722     15730     15721     15719     15722     15723
     15721     15719     15722     15724     15721     15719     15722     15730
     15722     15724     15725     15726     15722     15724     15725     15727
     15722     15730     15733     15734     15723     15722     15724     15725
     15723     15722     15730     15731     15723     15722     15730     15732
     15723     15722     15730     15733     15724     15722     15730     15731
     15724     15722     15730     15732     15724     15722     15730     15733
     15724     15725     15727     15728     15724     15725     15727     15729
     15724     15725     15727     15739     15725     15724     15722     15730
     15725     15727     15739     15740     15725     15727     15739     15741
     15725     15727     15739     15742     15726     15725     15727     15728
     15726     15725     15727     15729     15726     15725     15727     15739
     15727     15739     15742     15743     15727     15739     15742     15744
     15727     15739     15742     15745     15728     15727     15739     15740
     15728     15727     15739     15741     15728     15727     15739     15742
     15729     15727     15739     15740     15729     15727     15739     15741
     15729     15727     15739     15742     15730     15733     15734     15735
     15730     15733     15734     15736     15731     15730     15733     15734
     15732     15730     15733     15734     15733     15734     15736     15737
     15733     15734     15736     15738     15733     15734     15736     15786
     15734     15736     15786     15787     15734     15736     15786     15788
     15734     15736     15786     15789     15735     15734     15736     15737
     15735     15734     15736     15738     15735     15734     15736     15786
     15736     15786     15789     15790     15736     15786     15789     15791
     15736     15786     15789     15792     15737     15736     15786     15787
     15737     15736     15786     15788     15737     15736     15786     15789
     15738     15736     15786     15787     15738     15736     15786     15788
     15738     15736     15786     15789     15739     15742     15745     15746
     15739     15742     15745     15747     15739     15742     15745     15748
     15740     15739     15742     15743     15740     15739     15742     15744
     15740     15739     15742     15745     15741     15739     15742     15743
     15741     15739     15742     15744     15741     15739     15742     15745
     15742     15745     15748     15749     15742     15745     15748     15750
     15742     15745     15748     15751     15743     15742     15745     15746
     15743     15742     15745     15747     15743     15742     15745     15748
     15744     15742     15745     15746     15744     15742     15745     15747
     15744     15742     15745     15748     15745     15748     15751     15752
     15745     15748     15751     15753     15745     15748     15751     15754
     15746     15745     15748     15749     15746     15745     15748     15750
     15746     15745     15748     15751     15747     15745     15748     15749
     15747     15745     15748     15750     15747     15745     15748     15751
     15748     15751     15754     15755     15748     15751     15754     15756
     15748     15751     15754     15757     15749     15748     15751     15752
     15749     15748     15751     15753     15749     15748     15751     15754
     15750     15748     15751     15752     15750     15748     15751     15753
     15750     15748     15751     15754     15751     15754     15757     15758
     15751     15754     15757     15759     15752     15751     15754     15755
     15752     15751     15754     15756     15752     15751     15754     15757
     15753     15751     15754     15755     15753     15751     15754     15756
     15753     15751     15754     15757     15754     15757     15759     15760
     15754     15757     15759     15761     15755     15754     15757     15758
     15755     15754     15757     15759     15756     15754     15757     15758
     15756     15754     15757     15759     15757     15759     15761     15762
     15757     15759     15761     15763     15757     15759     15761     15764
     15758     15757     15759     15760     15758     15757     15759     15761
     15759     15761     15764     15765     15759     15761     15764     15766
     15759     15761     15764     15767     15760     15759     15761     15762
     15760     15759     15761     15763     15760     15759     15761     15764
     15761     15764     15767     15768     15761     15764     15767     15769
     15761     15764     15767     15770     15762     15761     15764     15765
     15762     15761     15764     15766     15762     15761     15764     15767
     15763     15761     15764     15765     15763     15761     15764     15766
     15763     15761     15764     15767     15764     15767     15770     15771
     15764     15767     15770     15772     15764     15767     15770     15773
     15765     15764     15767     15768     15765     15764     15767     15769
     15765     15764     15767     15770     15766     15764     15767     15768
     15766     15764     15767     15769     15766     15764     15767     15770
     15767     15770     15773     15774     15767     15770     15773     15775
     15767     15770     15773     15776     15768     15767     15770     15771
     15768     15767     15770     15772     15768     15767     15770     15773
     15769     15767     15770     15771     15769     15767     15770     15772
     15769     15767     15770     15773     15770     15773     15776     15777
     15770     15773     15776     15778     15770     15773     15776     15779
     15771     15770     15773     15774     15771     15770     15773     15775
     15771     15770     15773     15776     15772     15770     15773     15774
     15772     15770     15773     15775     15772     15770     15773     15776
     15773     15776     15779     15780     15773     15776     15779     15781
     15773     15776     15779     15782     15774     15773     15776     15777
     15774     15773     15776     15778     15774     15773     15776     15779
     15775     15773     15776     15777     15775     15773     15776     15778
     15775     15773     15776     15779     15776     15779     15782     15783
     15776     15779     15782     15784     15776     15779     15782     15785
     15777     15776     15779     15780     15777     15776     15779     15781
     15777     15776     15779     15782     15778     15776     15779     15780
     15778     15776     15779     15781     15778     15776     15779     15782
     15780     15779     15782     15783     15780     15779     15782     15784
     15780     15779     15782     15785     15781     15779     15782     15783
     15781     15779     15782     15784     15781     15779     15782     15785
     15786     15789     15792     15793     15786     15789     15792     15794
     15786     15789     15792     15795     15787     15786     15789     15790
     15787     15786     15789     15791     15787     15786     15789     15792
     15788     15786     15789     15790     15788     15786     15789     15791
     15788     15786     15789     15792     15789     15792     15795     15796
     15789     15792     15795     15797     15789     15792     15795     15798
     15790     15789     15792     15793     15790     15789     15792     15794
     15790     15789     15792     15795     15791     15789     15792     15793
     15791     15789     15792     15794     15791     15789     15792     15795
     15792     15795     15798     15799     15792     15795     15798     15800
     15792     15795     15798     15801     15793     15792     15795     15796
     15793     15792     15795     15797     15793     15792     15795     15798
     15794     15792     15795     15796     15794     15792     15795     15797
     15794     15792     15795     15798     15795     15798     15801     15802
     15795     15798     15801     15803     15795     15798     15801     15804
     15796     15795     15798     15799     15796     15795     15798     15800
     15796     15795     15798     15801     15797     15795     15798     15799
     15797     15795     15798     15800     15797     15795     15798     15801
     15798     15801     15804     15805     15798     15801     15804     15806
     15798     15801     15804     15807     15799     15798     15801     15802
     15799     15798     15801     15803     15799     15798     15801     15804
     15800     15798     15801     15802     15800     15798     15801     15803
     15800     15798     15801     15804     15801     15804     15807     15808
     15801     15804     15807     15809     15801     15804     15807     15810
     15802     15801     15804     15805     15802     15801     15804     15806
     15802     15801     15804     15807     15803     15801     15804     15805
     15803     15801     15804     15806     15803     15801     15804     15807
     15804     15807     15810     15811     15804     15807     15810     15812
     15804     15807     15810     15813     15805     15804     15807     15808
     15805     15804     15807     15809     15805     15804     15807     15810
     15806     15804     15807     15808     15806     15804     15807     15809
     15806     15804     15807     15810     15807     15810     15813     15814
     15807     15810     15813     15815     15807     15810     15813     15816
     15808     15807     15810     15811     15808     15807     15810     15812
     15808     15807     15810     15813     15809     15807     15810     15811
     15809     15807     15810     15812     15809     15807     15810     15813
     15810     15813     15816     15817     15810     15813     15816     15818
     15810     15813     15816     15819     15811     15810     15813     15814
     15811     15810     15813     15815     15811     15810     15813     15816
     15812     15810     15813     15814     15812     15810     15813     15815
     15812     15810     15813     15816     15813     15816     15819     15820
     15813     15816     15819     15821     15813     15816     15819     15822
     15814     15813     15816     15817     15814     15813     15816     15818
     15814     15813     15816     15819     15815     15813     15816     15817
     15815     15813     15816     15818     15815     15813     15816     15819
     15816     15819     15822     15823     15816     15819     15822     15824
     15816     15819     15822     15825     15817     15816     15819     15820
     15817     15816     15819     15821     15817     15816     15819     15822
     15818     15816     15819     15820     15818     15816     15819     15821
     15818     15816     15819     15822     15819     15822     15825     15826
     15819     15822     15825     15827     15819     15822     15825     15828
     15820     15819     15822     15823     15820     15819     15822     15824
     15820     15819     15822     15825     15821     15819     15822     15823
     15821     15819     15822     15824     15821     15819     15822     15825
     15823     15822     15825     15826     15823     15822     15825     15827
     15823     15822     15825     15828     15824     15822     15825     15826
     15824     15822     15825     15827     15824     15822     15825     15828
     15829     15830     15845     15846     15829     15830     15845     15847
     15829     15830     15845     15851     15830     15829     15833     15834
     15830     15829     15833     15835     15830     15829     15833     15836
     15830     15829     15837     15838     15830     15829     15837     15839
     15830     15829     15837     15840     15830     15829     15841     15842
     15830     15829     15841     15843     15830     15829     15841     15844
     15830     15845     15851     15848     15831     15830     15829     15833
     15831     15830     15829     15837     15831     15830     15829     15841
     15831     15830     15845     15846     15831     15830     15845     15847
     15831     15830     15845     15851     15832     15830     15829     15833
     15832     15830     15829     15837     15832     15830     15829     15841
     15832     15830     15845     15846     15832     15830     15845     15847
     15832     15830     15845     15851     15833     15829     15830     15845
     15833     15829     15837     15838     15833     15829     15837     15839
     15833     15829     15837     15840     15833     15829     15841     15842
     15833     15829     15841     15843     15833     15829     15841     15844
     15834     15833     15829     15837     15834     15833     15829     15841
     15835     15833     15829     15837     15835     15833     15829     15841
     15836     15833     15829     15837     15836     15833     15829     15841
     15837     15829     15830     15845     15837     15829     15841     15842
     15837     15829     15841     15843     15837     15829     15841     15844
     15838     15837     15829     15841     15839     15837     15829     15841
     15840     15837     15829     15841     15841     15829     15830     15845
     15845     15851     15848     15849     15845     15851     15848     15850
     15845     15851     15848     15852     15846     15845     15851     15848
     15847     15845     15851     15848     15848     15852     15853     15854
     15848     15852     15853     15855     15848     15852     15853     15856
     15849     15848     15852     15853     15850     15848     15852     15853
     15851     15848     15852     15853     15852     15853     15856     15857
     15852     15853     15856     15858     15852     15853     15856     15864
     15853     15856     15858     15859     15853     15856     15864     15865
     15853     15856     15864     15866     15853     15856     15864     15867
     15854     15853     15856     15857     15854     15853     15856     15858
     15854     15853     15856     15864     15855     15853     15856     15857
     15855     15853     15856     15858     15855     15853     15856     15864
     15856     15858     15859     15860     15856     15858     15859     15861
     15856     15864     15867     15868     15857     15856     15858     15859
     15857     15856     15864     15865     15857     15856     15864     15866
     15857     15856     15864     15867     15858     15856     15864     15865
     15858     15856     15864     15866     15858     15856     15864     15867
     15858     15859     15861     15862     15858     15859     15861     15863
     15858     15859     15861     15873     15859     15858     15856     15864
     15859     15861     15873     15874     15859     15861     15873     15875
     15859     15861     15873     15876     15860     15859     15861     15862
     15860     15859     15861     15863     15860     15859     15861     15873
     15861     15873     15876     15877     15861     15873     15876     15878
     15861     15873     15876     15879     15862     15861     15873     15874
     15862     15861     15873     15875     15862     15861     15873     15876
     15863     15861     15873     15874     15863     15861     15873     15875
     15863     15861     15873     15876     15864     15867     15868     15869
     15864     15867     15868     15870     15865     15864     15867     15868
     15866     15864     15867     15868     15867     15868     15870     15871
     15867     15868     15870     15872     15867     15868     15870     15920
     15868     15870     15920     15921     15868     15870     15920     15922
     15868     15870     15920     15923     15869     15868     15870     15871
     15869     15868     15870     15872     15869     15868     15870     15920
     15870     15920     15923     15924     15870     15920     15923     15925
     15870     15920     15923     15926     15871     15870     15920     15921
     15871     15870     15920     15922     15871     15870     15920     15923
     15872     15870     15920     15921     15872     15870     15920     15922
     15872     15870     15920     15923     15873     15876     15879     15880
     15873     15876     15879     15881     15873     15876     15879     15882
     15874     15873     15876     15877     15874     15873     15876     15878
     15874     15873     15876     15879     15875     15873     15876     15877
     15875     15873     15876     15878     15875     15873     15876     15879
     15876     15879     15882     15883     15876     15879     15882     15884
     15876     15879     15882     15885     15877     15876     15879     15880
     15877     15876     15879     15881     15877     15876     15879     15882
     15878     15876     15879     15880     15878     15876     15879     15881
     15878     15876     15879     15882     15879     15882     15885     15886
     15879     15882     15885     15887     15879     15882     15885     15888
     15880     15879     15882     15883     15880     15879     15882     15884
     15880     15879     15882     15885     15881     15879     15882     15883
     15881     15879     15882     15884     15881     15879     15882     15885
     15882     15885     15888     15889     15882     15885     15888     15890
     15882     15885     15888     15891     15883     15882     15885     15886
     15883     15882     15885     15887     15883     15882     15885     15888
     15884     15882     15885     15886     15884     15882     15885     15887
     15884     15882     15885     15888     15885     15888     15891     15892
     15885     15888     15891     15893     15886     15885     15888     15889
     15886     15885     15888     15890     15886     15885     15888     15891
     15887     15885     15888     15889     15887     15885     15888     15890
     15887     15885     15888     15891     15888     15891     15893     15894
     15888     15891     15893     15895     15889     15888     15891     15892
     15889     15888     15891     15893     15890     15888     15891     15892
     15890     15888     15891     15893     15891     15893     15895     15896
     15891     15893     15895     15897     15891     15893     15895     15898
     15892     15891     15893     15894     15892     15891     15893     15895
     15893     15895     15898     15899     15893     15895     15898     15900
     15893     15895     15898     15901     15894     15893     15895     15896
     15894     15893     15895     15897     15894     15893     15895     15898
     15895     15898     15901     15902     15895     15898     15901     15903
     15895     15898     15901     15904     15896     15895     15898     15899
     15896     15895     15898     15900     15896     15895     15898     15901
     15897     15895     15898     15899     15897     15895     15898     15900
     15897     15895     15898     15901     15898     15901     15904     15905
     15898     15901     15904     15906     15898     15901     15904     15907
     15899     15898     15901     15902     15899     15898     15901     15903
     15899     15898     15901     15904     15900     15898     15901     15902
     15900     15898     15901     15903     15900     15898     15901     15904
     15901     15904     15907     15908     15901     15904     15907     15909
     15901     15904     15907     15910     15902     15901     15904     15905
     15902     15901     15904     15906     15902     15901     15904     15907
     15903     15901     15904     15905     15903     15901     15904     15906
     15903     15901     15904     15907     15904     15907     15910     15911
     15904     15907     15910     15912     15904     15907     15910     15913
     15905     15904     15907     15908     15905     15904     15907     15909
     15905     15904     15907     15910     15906     15904     15907     15908
     15906     15904     15907     15909     15906     15904     15907     15910
     15907     15910     15913     15914     15907     15910     15913     15915
     15907     15910     15913     15916     15908     15907     15910     15911
     15908     15907     15910     15912     15908     15907     15910     15913
     15909     15907     15910     15911     15909     15907     15910     15912
     15909     15907     15910     15913     15910     15913     15916     15917
     15910     15913     15916     15918     15910     15913     15916     15919
     15911     15910     15913     15914     15911     15910     15913     15915
     15911     15910     15913     15916     15912     15910     15913     15914
     15912     15910     15913     15915     15912     15910     15913     15916
     15914     15913     15916     15917     15914     15913     15916     15918
     15914     15913     15916     15919     15915     15913     15916     15917
     15915     15913     15916     15918     15915     15913     15916     15919
     15920     15923     15926     15927     15920     15923     15926     15928
     15920     15923     15926     15929     15921     15920     15923     15924
     15921     15920     15923     15925     15921     15920     15923     15926
     15922     15920     15923     15924     15922     15920     15923     15925
     15922     15920     15923     15926     15923     15926     15929     15930
     15923     15926     15929     15931     15923     15926     15929     15932
     15924     15923     15926     15927     15924     15923     15926     15928
     15924     15923     15926     15929     15925     15923     15926     15927
     15925     15923     15926     15928     15925     15923     15926     15929
     15926     15929     15932     15933     15926     15929     15932     15934
     15926     15929     15932     15935     15927     15926     15929     15930
     15927     15926     15929     15931     15927     15926     15929     15932
     15928     15926     15929     15930     15928     15926     15929     15931
     15928     15926     15929     15932     15929     15932     15935     15936
     15929     15932     15935     15937     15929     15932     15935     15938
     15930     15929     15932     15933     15930     15929     15932     15934
     15930     15929     15932     15935     15931     15929     15932     15933
     15931     15929     15932     15934     15931     15929     15932     15935
     15932     15935     15938     15939     15932     15935     15938     15940
     15932     15935     15938     15941     15933     15932     15935     15936
     15933     15932     15935     15937     15933     15932     15935     15938
     15934     15932     15935     15936     15934     15932     15935     15937
     15934     15932     15935     15938     15935     15938     15941     15942
     15935     15938     15941     15943     15935     15938     15941     15944
     15936     15935     15938     15939     15936     15935     15938     15940
     15936     15935     15938     15941     15937     15935     15938     15939
     15937     15935     15938     15940     15937     15935     15938     15941
     15938     15941     15944     15945     15938     15941     15944     15946
     15938     15941     15944     15947     15939     15938     15941     15942
     15939     15938     15941     15943     15939     15938     15941     15944
     15940     15938     15941     15942     15940     15938     15941     15943
     15940     15938     15941     15944     15941     15944     15947     15948
     15941     15944     15947     15949     15941     15944     15947     15950
     15942     15941     15944     15945     15942     15941     15944     15946
     15942     15941     15944     15947     15943     15941     15944     15945
     15943     15941     15944     15946     15943     15941     15944     15947
     15944     15947     15950     15951     15944     15947     15950     15952
     15944     15947     15950     15953     15945     15944     15947     15948
     15945     15944     15947     15949     15945     15944     15947     15950
     15946     15944     15947     15948     15946     15944     15947     15949
     15946     15944     15947     15950     15947     15950     15953     15954
     15947     15950     15953     15955     15947     15950     15953     15956
     15948     15947     15950     15951     15948     15947     15950     15952
     15948     15947     15950     15953     15949     15947     15950     15951
     15949     15947     15950     15952     15949     15947     15950     15953
     15950     15953     15956     15957     15950     15953     15956     15958
     15950     15953     15956     15959     15951     15950     15953     15954
     15951     15950     15953     15955     15951     15950     15953     15956
     15952     15950     15953     15954     15952     15950     15953     15955
     15952     15950     15953     15956     15953     15956     15959     15960
     15953     15956     15959     15961     15953     15956     15959     15962
     15954     15953     15956     15957     15954     15953     15956     15958
     15954     15953     15956     15959     15955     15953     15956     15957
     15955     15953     15956     15958     15955     15953     15956     15959
     15957     15956     15959     15960     15957     15956     15959     15961
     15957     15956     15959     15962     15958     15956     15959     15960
     15958     15956     15959     15961     15958     15956     15959     15962
     21728     21732     21734     21735     21728     21732     21736     21737
     21728     21732     21736     21738     21728     21732     21736     21740
     21728     21748     21744     21740     21728     21748     21744     21745
     21728     21748     21744     21746     21728     21748     21753     21750
     21729     21728     21730     21731     21729     21728     21732     21733
     21729     21728     21732     21734     21729     21728     21732     21736
     21729     21728     21748     21744     21729     21728     21748     21749
     21729     21728     21748     21753     21730     21728     21732     21733
     21730     21728     21732     21734     21730     21728     21732     21736
     21730     21728     21748     21744     21730     21728     21748     21749
     21730     21728     21748     21753     21731     21730     21728     21732
     21731     21730     21728     21748     21732     21728     21748     21744
     21732     21728     21748     21749     21732     21728     21748     21753
     21732     21736     21738     21739     21732     21736     21740     21741
     21732     21736     21740     21742     21732     21736     21740     21744
     21733     21732     21728     21748     21733     21732     21734     21735
     21733     21732     21736     21737     21733     21732     21736     21738
     21733     21732     21736     21740     21734     21732     21728     21748
     21734     21732     21736     21737     21734     21732     21736     21738
     21734     21732     21736     21740     21735     21734     21732     21736
     21736     21732     21728     21748     21736     21740     21742     21743
     21736     21740     21744     21745     21736     21740     21744     21746
     21736     21740     21744     21748     21737     21736     21738     21739
     21737     21736     21740     21741     21737     21736     21740     21742
     21737     21736     21740     21744     21738     21736     21740     21741
     21738     21736     21740     21742     21738     21736     21740     21744
     21739     21738     21736     21740     21740     21744     21746     21747
     21740     21744     21748     21749     21740     21744     21748     21753
     21741     21740     21742     21743     21741     21740     21744     21745
     21741     21740     21744     21746     21741     21740     21744     21748
     21742     21740     21744     21745     21742     21740     21744     21746
     21742     21740     21744     21748     21743     21742     21740     21744
     21744     21748     21753     21750     21745     21744     21746     21747
     21745     21744     21748     21749     21745     21744     21748     21753
     21746     21744     21748     21749     21746     21744     21748     21753
     21747     21746     21744     21748     21748     21753     21750     21751
     21748     21753     21750     21752     21748     21753     21750     21754
     21749     21748     21753     21750     21750     21754     21755     21756
     21750     21754     21755     21757     21750     21754     21755     21758
     21751     21750     21754     21755     21752     21750     21754     21755
     21753     21750     21754     21755     21754     21755     21758     21759
     21754     21755     21758     21760     21754     21755     21758     21766
     21755     21758     21760     21761     21755     21758     21766     21767
     21755     21758     21766     21768     21755     21758     21766     21769
     21756     21755     21758     21759     21756     21755     21758     21760
     21756     21755     21758     21766     21757     21755     21758     21759
     21757     21755     21758     21760     21757     21755     21758     21766
     21758     21760     21761     21762     21758     21760     21761     21763
     21758     21766     21769     21770     21759     21758     21760     21761
     21759     21758     21766     21767     21759     21758     21766     21768
     21759     21758     21766     21769     21760     21758     21766     21767
     21760     21758     21766     21768     21760     21758     21766     21769
     21760     21761     21763     21764     21760     21761     21763     21765
     21760     21761     21763     21775     21761     21760     21758     21766
     21761     21763     21775     21776     21761     21763     21775     21777
     21761     21763     21775     21778     21762     21761     21763     21764
     21762     21761     21763     21765     21762     21761     21763     21775
     21763     21775     21778     21779     21763     21775     21778     21780
     21763     21775     21778     21781     21764     21763     21775     21776
     21764     21763     21775     21777     21764     21763     21775     21778
     21765     21763     21775     21776     21765     21763     21775     21777
     21765     21763     21775     21778     21766     21769     21770     21771
     21766     21769     21770     21772     21767     21766     21769     21770
     21768     21766     21769     21770     21769     21770     21772     21773
     21769     21770     21772     21774     21769     21770     21772     21822
     21770     21772     21822     21823     21770     21772     21822     21824
     21770     21772     21822     21825     21771     21770     21772     21773
     21771     21770     21772     21774     21771     21770     21772     21822
     21772     21822     21825     21826     21772     21822     21825     21827
     21772     21822     21825     21828     21773     21772     21822     21823
     21773     21772     21822     21824     21773     21772     21822     21825
     21774     21772     21822     21823     21774     21772     21822     21824
     21774     21772     21822     21825     21775     21778     21781     21782
     21775     21778     21781     21783     21775     21778     21781     21784
     21776     21775     21778     21779     21776     21775     21778     21780
     21776     21775     21778     21781     21777     21775     21778     21779
     21777     21775     21778     21780     21777     21775     21778     21781
     21778     21781     21784     21785     21778     21781     21784     21786
     21778     21781     21784     21787     21779     21778     21781     21782
     21779     21778     21781     21783     21779     21778     21781     21784
     21780     21778     21781     21782     21780     21778     21781     21783
     21780     21778     21781     21784     21781     21784     21787     21788
     21781     21784     21787     21789     21781     21784     21787     21790
     21782     21781     21784     21785     21782     21781     21784     21786
     21782     21781     21784     21787     21783     21781     21784     21785
     21783     21781     21784     21786     21783     21781     21784     21787
     21784     21787     21790     21791     21784     21787     21790     21792
     21784     21787     21790     21793     21785     21784     21787     21788
     21785     21784     21787     21789     21785     21784     21787     21790
     21786     21784     21787     21788     21786     21784     21787     21789
     21786     21784     21787     21790     21787     21790     21793     21794
     21787     21790     21793     21795     21788     21787     21790     21791
     21788     21787     21790     21792     21788     21787     21790     21793
     21789     21787     21790     21791     21789     21787     21790     21792
     21789     21787     21790     21793     21790     21793     21795     21796
     21790     21793     21795     21797     21791     21790     21793     21794
     21791     21790     21793     21795     21792     21790     21793     21794
     21792     21790     21793     21795     21793     21795     21797     21798
     21793     21795     21797     21799     21793     21795     21797     21800
     21794     21793     21795     21796     21794     21793     21795     21797
     21795     21797     21800     21801     21795     21797     21800     21802
     21795     21797     21800     21803     21796     21795     21797     21798
     21796     21795     21797     21799     21796     21795     21797     21800
     21797     21800     21803     21804     21797     21800     21803     21805
     21797     21800     21803     21806     21798     21797     21800     21801
     21798     21797     21800     21802     21798     21797     21800     21803
     21799     21797     21800     21801     21799     21797     21800     21802
     21799     21797     21800     21803     21800     21803     21806     21807
     21800     21803     21806     21808     21800     21803     21806     21809
     21801     21800     21803     21804     21801     21800     21803     21805
     21801     21800     21803     21806     21802     21800     21803     21804
     21802     21800     21803     21805     21802     21800     21803     21806
     21803     21806     21809     21810     21803     21806     21809     21811
     21803     21806     21809     21812     21804     21803     21806     21807
     21804     21803     21806     21808     21804     21803     21806     21809
     21805     21803     21806     21807     21805     21803     21806     21808
     21805     21803     21806     21809     21806     21809     21812     21813
     21806     21809     21812     21814     21806     21809     21812     21815
     21807     21806     21809     21810     21807     21806     21809     21811
     21807     21806     21809     21812     21808     21806     21809     21810
     21808     21806     21809     21811     21808     21806     21809     21812
     21809     21812     21815     21816     21809     21812     21815     21817
     21809     21812     21815     21818     21810     21809     21812     21813
     21810     21809     21812     21814     21810     21809     21812     21815
     21811     21809     21812     21813     21811     21809     21812     21814
     21811     21809     21812     21815     21812     21815     21818     21819
     21812     21815     21818     21820     21812     21815     21818     21821
     21813     21812     21815     21816     21813     21812     21815     21817
     21813     21812     21815     21818     21814     21812     21815     21816
     21814     21812     21815     21817     21814     21812     21815     21818
     21816     21815     21818     21819     21816     21815     21818     21820
     21816     21815     21818     21821     21817     21815     21818     21819
     21817     21815     21818     21820     21817     21815     21818     21821
     21822     21825     21828     21829     21822     21825     21828     21830
     21822     21825     21828     21831     21823     21822     21825     21826
     21823     21822     21825     21827     21823     21822     21825     21828
     21824     21822     21825     21826     21824     21822     21825     21827
     21824     21822     21825     21828     21825     21828     21831     21832
     21825     21828     21831     21833     21825     21828     21831     21834
     21826     21825     21828     21829     21826     21825     21828     21830
     21826     21825     21828     21831     21827     21825     21828     21829
     21827     21825     21828     21830     21827     21825     21828     21831
     21828     21831     21834     21835     21828     21831     21834     21836
     21828     21831     21834     21837     21829     21828     21831     21832
     21829     21828     21831     21833     21829     21828     21831     21834
     21830     21828     21831     21832     21830     21828     21831     21833
     21830     21828     21831     21834     21831     21834     21837     21838
     21831     21834     21837     21839     21831     21834     21837     21840
     21832     21831     21834     21835     21832     21831     21834     21836
     21832     21831     21834     21837     21833     21831     21834     21835
     21833     21831     21834     21836     21833     21831     21834     21837
     21834     21837     21840     21841     21834     21837     21840     21842
     21834     21837     21840     21843     21835     21834     21837     21838
     21835     21834     21837     21839     21835     21834     21837     21840
     21836     21834     21837     21838     21836     21834     21837     21839
     21836     21834     21837     21840     21837     21840     21843     21844
     21837     21840     21843     21845     21837     21840     21843     21846
     21838     21837     21840     21841     21838     21837     21840     21842
     21838     21837     21840     21843     21839     21837     21840     21841
     21839     21837     21840     21842     21839     21837     21840     21843
     21840     21843     21846     21847     21840     21843     21846     21848
     21840     21843     21846     21849     21841     21840     21843     21844
     21841     21840     21843     21845     21841     21840     21843     21846
     21842     21840     21843     21844     21842     21840     21843     21845
     21842     21840     21843     21846     21843     21846     21849     21850
     21843     21846     21849     21851     21843     21846     21849     21852
     21844     21843     21846     21847     21844     21843     21846     21848
     21844     21843     21846     21849     21845     21843     21846     21847
     21845     21843     21846     21848     21845     21843     21846     21849
     21846     21849     21852     21853     21846     21849     21852     21854
     21846     21849     21852     21855     21847     21846     21849     21850
     21847     21846     21849     21851     21847     21846     21849     21852
     21848     21846     21849     21850     21848     21846     21849     21851
     21848     21846     21849     21852     21849     21852     21855     21856
     21849     21852     21855     21857     21849     21852     21855     21858
     21850     21849     21852     21853     21850     21849     21852     21854
     21850     21849     21852     21855     21851     21849     21852     21853
     21851     21849     21852     21854     21851     21849     21852     21855
     21852     21855     21858     21859     21852     21855     21858     21860
     21852     21855     21858     21861     21853     21852     21855     21856
     21853     21852     21855     21857     21853     21852     21855     21858
     21854     21852     21855     21856     21854     21852     21855     21857
     21854     21852     21855     21858     21855     21858     21861     21862
     21855     21858     21861     21863     21855     21858     21861     21864
     21856     21855     21858     21859     21856     21855     21858     21860
     21856     21855     21858     21861     21857     21855     21858     21859
     21857     21855     21858     21860     21857     21855     21858     21861
     21859     21858     21861     21862     21859     21858     21861     21863
     21859     21858     21861     21864     21860     21858     21861     21862
     21860     21858     21861     21863     21860     21858     21861     21864
      9614      9618      9620      9621      9614      9618      9620      9622
      9614      9618      9623      9624      9614      9618      9623      9625
      9614      9618      9623      9629      9615      9614      9618      9619
      9615      9614      9618      9620      9615      9614      9618      9623
      9616      9614      9618      9619      9616      9614      9618      9620
      9616      9614      9618      9623      9617      9614      9618      9619
      9617      9614      9618      9620      9617      9614      9618      9623
      9618      9623      9629      9626      9619      9618      9620      9621
      9619      9618      9620      9622      9619      9618      9623      9624
      9619      9618      9623      9625      9619      9618      9623      9629
      9620      9618      9623      9624      9620      9618      9623      9625
      9620      9618      9623      9629      9621      9620      9618      9623
      9622      9620      9618      9623      9623      9629      9626      9627
      9623      9629      9626      9628      9623      9629      9626      9630
      9624      9623      9629      9626      9625      9623      9629      9626
      9626      9630      9631      9632      9626      9630      9631      9633
      9626      9630      9631      9634      9627      9626      9630      9631
      9628      9626      9630      9631      9629      9626      9630      9631
      9630      9631      9634      9635      9630      9631      9634      9636
      9630      9631      9634      9642      9631      9634      9636      9637
      9631      9634      9642      9643      9631      9634      9642      9644
      9631      9634      9642      9645      9632      9631      9634      9635
      9632      9631      9634      9636      9632      9631      9634      9642
      9633      9631      9634      9635      9633      9631      9634      9636
      9633      9631      9634      9642      9634      9636      9637      9638
      9634      9636      9637      9639      9634      9642      9645      9646
      9635      9634      9636      9637      9635      9634      9642      9643
      9635      9634      9642      9644      9635      9634      9642      9645
      9636      9634      9642      9643      9636      9634      9642      9644
      9636      9634      9642      9645      9636      9637      9639      9640
      9636      9637      9639      9641      9636      9637      9639      9651
      9637      9636      9634      9642      9637      9639      9651      9652
      9637      9639      9651      9653      9637      9639      9651      9654
      9638      9637      9639      9640      9638      9637      9639      9641
      9638      9637      9639      9651      9639      9651      9654      9655
      9639      9651      9654      9656      9639      9651      9654      9657
      9640      9639      9651      9652      9640      9639      9651      9653
      9640      9639      9651      9654      9641      9639      9651      9652
      9641      9639      9651      9653      9641      9639      9651      9654
      9642      9645      9646      9647      9642      9645      9646      9648
      9643      9642      9645      9646      9644      9642      9645      9646
      9645      9646      9648      9649      9645      9646      9648      9650
      9645      9646      9648      9698      9646      9648      9698      9699
      9646      9648      9698      9700      9646      9648      9698      9701
      9647      9646      9648      9649      9647      9646      9648      9650
      9647      9646      9648      9698      9648      9698      9701      9702
      9648      9698      9701      9703      9648      9698      9701      9704
      9649      9648      9698      9699      9649      9648      9698      9700
      9649      9648      9698      9701      9650      9648      9698      9699
      9650      9648      9698      9700      9650      9648      9698      9701
      9651      9654      9657      9658      9651      9654      9657      9659
      9651      9654      9657      9660      9652      9651      9654      9655
      9652      9651      9654      9656      9652      9651      9654      9657
      9653      9651      9654      9655      9653      9651      9654      9656
      9653      9651      9654      9657      9654      9657      9660      9661
      9654      9657      9660      9662      9654      9657      9660      9663
      9655      9654      9657      9658      9655      9654      9657      9659
      9655      9654      9657      9660      9656      9654      9657      9658
      9656      9654      9657      9659      9656      9654      9657      9660
      9657      9660      9663      9664      9657      9660      9663      9665
      9657      9660      9663      9666      9658      9657      9660      9661
      9658      9657      9660      9662      9658      9657      9660      9663
      9659      9657      9660      9661      9659      9657      9660      9662
      9659      9657      9660      9663      9660      9663      9666      9667
      9660      9663      9666      9668      9660      9663      9666      9669
      9661      9660      9663      9664      9661      9660      9663      9665
      9661      9660      9663      9666      9662      9660      9663      9664
      9662      9660      9663      9665      9662      9660      9663      9666
      9663      9666      9669      9670      9663      9666      9669      9671
      9664      9663      9666      9667      9664      9663      9666      9668
      9664      9663      9666      9669      9665      9663      9666      9667
      9665      9663      9666      9668      9665      9663      9666      9669
      9666      9669      9671      9672      9666      9669      9671      9673
      9667      9666      9669      9670      9667      9666      9669      9671
      9668      9666      9669      9670      9668      9666      9669      9671
      9669      9671      9673      9674      9669      9671      9673      9675
      9669      9671      9673      9676      9670      9669      9671      9672
      9670      9669      9671      9673      9671      9673      9676      9677
      9671      9673      9676      9678      9671      9673      9676      9679
      9672      9671      9673      9674      9672      9671      9673      9675
      9672      9671      9673      9676      9673      9676      9679      9680
      9673      9676      9679      9681      9673      9676      9679      9682
      9674      9673      9676      9677      9674      9673      9676      9678
      9674      9673      9676      9679      9675      9673      9676      9677
      9675      9673      9676      9678      9675      9673      9676      9679
      9676      9679      9682      9683      9676      9679      9682      9684
      9676      9679      9682      9685      9677      9676      9679      9680
      9677      9676      9679      9681      9677      9676      9679      9682
      9678      9676      9679      9680      9678      9676      9679      9681
      9678      9676      9679      9682      9679      9682      9685      9686
      9679      9682      9685      9687      9679      9682      9685      9688
      9680      9679      9682      9683      9680      9679      9682      9684
      9680      9679      9682      9685      9681      9679      9682      9683
      9681      9679      9682      9684      9681      9679      9682      9685
      9682      9685      9688      9689      9682      9685      9688      9690
      9682      9685      9688      9691      9683      9682      9685      9686
      9683      9682      9685      9687      9683      9682      9685      9688
      9684      9682      9685      9686      9684      9682      9685      9687
      9684      9682      9685      9688      9685      9688      9691      9692
      9685      9688      9691      9693      9685      9688      9691      9694
      9686      9685      9688      9689      9686      9685      9688      9690
      9686      9685      9688      9691      9687      9685      9688      9689
      9687      9685      9688      9690      9687      9685      9688      9691
      9688      9691      9694      9695      9688      9691      9694      9696
      9688      9691      9694      9697      9689      9688      9691      9692
      9689      9688      9691      9693      9689      9688      9691      9694
      9690      9688      9691      9692      9690      9688      9691      9693
      9690      9688      9691      9694      9692      9691      9694      9695
      9692      9691      9694      9696      9692      9691      9694      9697
      9693      9691      9694      9695      9693      9691      9694      9696
      9693      9691      9694      9697      9698      9701      9704      9705
      9698      9701      9704      9706      9698      9701      9704      9707
      9699      9698      9701      9702      9699      9698      9701      9703
      9699      9698      9701      9704      9700      9698      9701      9702
      9700      9698      9701      9703      9700      9698      9701      9704
      9701      9704      9707      9708      9701      9704      9707      9709
      9701      9704      9707      9710      9702      9701      9704      9705
      9702      9701      9704      9706      9702      9701      9704      9707
      9703      9701      9704      9705      9703      9701      9704      9706
      9703      9701      9704      9707      9704      9707      9710      9711
      9704      9707      9710      9712      9704      9707      9710      9713
      9705      9704      9707      9708      9705      9704      9707      9709
      9705      9704      9707      9710      9706      9704      9707      9708
      9706      9704      9707      9709      9706      9704      9707      9710
      9707      9710      9713      9714      9707      9710      9713      9715
      9707      9710      9713      9716      9708      9707      9710      9711
      9708      9707      9710      9712      9708      9707      9710      9713
      9709      9707      9710      9711      9709      9707      9710      9712
      9709      9707      9710      9713      9710      9713      9716      9717
      9710      9713      9716      9718      9710      9713      9716      9719
      9711      9710      9713      9714      9711      9710      9713      9715
      9711      9710      9713      9716      9712      9710      9713      9714
      9712      9710      9713      9715      9712      9710      9713      9716
      9713      9716      9719      9720      9713      9716      9719      9721
      9713      9716      9719      9722      9714      9713      9716      9717
      9714      9713      9716      9718      9714      9713      9716      9719
      9715      9713      9716      9717      9715      9713      9716      9718
      9715      9713      9716      9719      9716      9719      9722      9723
      9716      9719      9722      9724      9716      9719      9722      9725
      9717      9716      9719      9720      9717      9716      9719      9721
      9717      9716      9719      9722      9718      9716      9719      9720
      9718      9716      9719      9721      9718      9716      9719      9722
      9719      9722      9725      9726      9719      9722      9725      9727
      9719      9722      9725      9728      9720      9719      9722      9723
      9720      9719      9722      9724      9720      9719      9722      9725
      9721      9719      9722      9723      9721      9719      9722      9724
      9721      9719      9722      9725      9722      9725      9728      9729
      9722      9725      9728      9730      9722      9725      9728      9731
      9723      9722      9725      9726      9723      9722      9725      9727
      9723      9722      9725      9728      9724      9722      9725      9726
      9724      9722      9725      9727      9724      9722      9725      9728
      9725      9728      9731      9732      9725      9728      9731      9733
      9725      9728      9731      9734      9726      9725      9728      9729
      9726      9725      9728      9730      9726      9725      9728      9731
      9727      9725      9728      9729      9727      9725      9728      9730
      9727      9725      9728      9731      9728      9731      9734      9735
      9728      9731      9734      9736      9728      9731      9734      9737
      9729      9728      9731      9732      9729      9728      9731      9733
      9729      9728      9731      9734      9730      9728      9731      9732
      9730      9728      9731      9733      9730      9728      9731      9734
      9731      9734      9737      9738      9731      9734      9737      9739
      9731      9734      9737      9740      9732      9731      9734      9735
      9732      9731      9734      9736      9732      9731      9734      9737
      9733      9731      9734      9735      9733      9731      9734      9736
      9733      9731      9734      9737      9735      9734      9737      9738
      9735      9734      9737      9739      9735      9734      9737      9740
      9736      9734      9737      9738      9736      9734      9737      9739
      9736      9734      9737      9740       741       745       748       749
       741       745       748       779       741       787       784       779
       741       787       784       785       741       787       784       786
       742       741       743       744       742       741       745       746
       742       741       745       747       742       741       745       748
       742       741       787       784       742       741       787       788
       742       741       787       789       743       741       745       746
       743       741       745       747       743       741       745       748
       743       741       787       784       743       741       787       788
       743       741       787       789       744       743       741       745
       744       743       741       787       745       741       787       784
       745       741       787       788       745       741       787       789
       745       748       749       750       745       748       749       751
       745       748       779       777       745       748       779       780
       745       748       779       784       746       745       741       787
       746       745       748       749       746       745       748       779
       747       745       741       787       747       745       748       749
       747       745       748       779       748       745       741       787
       748       749       751       752       748       749       751       753
       748       749       751       754       748       779       777       754
       748       779       777       774       748       779       777       778
       748       779       780       781       748       779       780       782
       748       779       780       783       748       779       784       785
       748       779       784       786       748       779       784       787
       749       748       779       777       749       748       779       780
       749       748       779       784       749       751       754       755
       749       751       754       756       749       751       754       777
       750       749       748       779       750       749       751       752
       750       749       751       753       750       749       751       754
       751       749       748       779       751       754       756       757
       751       754       756       758       751       754       756       766
       751       754       777       774       751       754       777       778
       751       754       777       779       752       751       754       755
       752       751       754       756       752       751       754       777
       753       751       754       755       753       751       754       756
       753       751       754       777       754       756       758       759
       754       756       758       760       754       756       758       761
       754       756       766       764       754       756       766       767
       754       756       766       771       754       777       774       771
       754       777       774       775       754       777       774       776
       754       777       779       780       754       777       779       784
       755       754       756       757       755       754       756       758
       755       754       756       766       755       754       777       774
       755       754       777       778       755       754       777       779
       756       754       777       774       756       754       777       778
       756       754       777       779       756       758       761       762
       756       758       761       763       756       758       761       764
       756       766       764       761       756       766       764       765
       756       766       764       790       756       766       767       768
       756       766       767       769       756       766       767       770
       756       766       771       772       756       766       771       773
       756       766       771       774       757       756       754       777
       757       756       758       759       757       756       758       760
       757       756       758       761       757       756       766       764
       757       756       766       767       757       756       766       771
       758       756       754       777       758       756       766       764
       758       756       766       767       758       756       766       771
       758       761       764       765       758       761       764       766
       758       761       764       790       759       758       756       766
       759       758       761       762       759       758       761       763
       759       758       761       764       760       758       756       766
       760       758       761       762       760       758       761       763
       760       758       761       764       761       758       756       766
       761       764       766       767       761       764       766       771
       761       764       790       791       761       764       790       792
       761       764       790       796       762       761       764       765
       762       761       764       766       762       761       764       790
       763       761       764       765       763       761       764       766
       763       761       764       790       764       766       767       768
       764       766       767       769       764       766       767       770
       764       766       771       772       764       766       771       773
       764       766       771       774       764       790       792       793
       764       790       792       794       764       790       792       795
       764       790       796       797       764       790       796       798
       764       790       796       799       765       764       766       767
       765       764       766       771       765       764       790       791
       765       764       790       792       765       764       790       796
       766       756       754       777       766       764       790       791
       766       764       790       792       766       764       790       796
       766       771       774       775       766       771       774       776
       766       771       774       777       767       766       764       790
       767       766       771       772       767       766       771       773
       767       766       771       774       768       767       766       771
       769       767       766       771       770       767       766       771
       771       766       764       790       771       774       777       778
       771       774       777       779       772       771       774       775
       772       771       774       776       772       771       774       777
       773       771       774       775       773       771       774       776
       773       771       774       777       774       777       779       780
       774       777       779       784       775       774       777       778
       775       774       777       779       776       774       777       778
       776       774       777       779       777       779       780       781
       777       779       780       782       777       779       780       783
       777       779       784       785       777       779       784       786
       777       779       784       787       778       777       779       780
       778       777       779       784       779       784       787       788
       779       784       787       789       780       779       784       785
       780       779       784       786       780       779       784       787
       781       780       779       784       782       780       779       784
       783       780       779       784       785       784       787       788
       785       784       787       789       786       784       787       788
       786       784       787       789       790       796       799       800
       790       796       799       801       790       796       799       802
       791       790       792       793       791       790       792       794
       791       790       792       795       791       790       796       797
       791       790       796       798       791       790       796       799
       792       790       796       797       792       790       796       798
       792       790       796       799       793       792       790       796
       794       792       790       796       795       792       790       796
       796       799       802       803       796       799       802       804
       796       799       802       805       797       796       799       800
       797       796       799       801       797       796       799       802
       798       796       799       800       798       796       799       801
       798       796       799       802       799       802       805       806
       799       802       805       807       799       802       805       811
       800       799       802       803       800       799       802       804
       800       799       802       805       801       799       802       803
       801       799       802       804       801       799       802       805
       802       805       807       808       802       805       807       809
       802       805       807       810       802       805       811       812
       802       805       811       813       802       805       811       814
       803       802       805       806       803       802       805       807
       803       802       805       811       804       802       805       806
       804       802       805       807       804       802       805       811
       806       805       807       808       806       805       807       809
       806       805       807       810       806       805       811       812
       806       805       811       813       806       805       811       814
       807       805       811       812       807       805       811       813
       807       805       811       814       808       807       805       811
       809       807       805       811       810       807       805       811
      4096      4100      4103      4104      4096      4100      4103      4105
      4096      4100      4103      4110      4097      4096      4100      4101
      4097      4096      4100      4102      4097      4096      4100      4103
      4098      4096      4100      4101      4098      4096      4100      4102
      4098      4096      4100      4103      4099      4096      4100      4101
      4099      4096      4100      4102      4099      4096      4100      4103
      4100      4103      4110      4106      4101      4100      4103      4104
      4101      4100      4103      4105      4101      4100      4103      4110
      4102      4100      4103      4104      4102      4100      4103      4105
      4102      4100      4103      4110      4103      4110      4106      4107
      4103      4110      4106      4108      4103      4110      4106      4109
      4104      4103      4110      4106      4105      4103      4110      4106
      4106      4109      4111      4112      4106      4109      4111      4113
      4106      4109      4111      4114      4107      4106      4109      4111
      4108      4106      4109      4111      4109      4111      4114      4115
      4109      4111      4114      4116      4109      4111      4114      4122
      4110      4106      4109      4111      4111      4114      4116      4117
      4111      4114      4122      4123      4111      4114      4122      4124
      4111      4114      4122      4125      4112      4111      4114      4115
      4112      4111      4114      4116      4112      4111      4114      4122
      4113      4111      4114      4115      4113      4111      4114      4116
      4113      4111      4114      4122      4114      4116      4117      4118
      4114      4116      4117      4119      4114      4122      4125      4126
      4115      4114      4116      4117      4115      4114      4122      4123
      4115      4114      4122      4124      4115      4114      4122      4125
      4116      4114      4122      4123      4116      4114      4122      4124
      4116      4114      4122      4125      4116      4117      4119      4120
      4116      4117      4119      4121      4116      4117      4119      4131
      4117      4116      4114      4122      4117      4119      4131      4132
      4117      4119      4131      4133      4117      4119      4131      4134
      4118      4117      4119      4120      4118      4117      4119      4121
      4118      4117      4119      4131      4119      4131      4134      4135
      4119      4131      4134      4136      4119      4131      4134      4137
      4120      4119      4131      4132      4120      4119      4131      4133
      4120      4119      4131      4134      4121      4119      4131      4132
      4121      4119      4131      4133      4121      4119      4131      4134
      4122      4125      4126      4127      4122      4125      4126      4128
      4123      4122      4125      4126      4124      4122      4125      4126
      4125      4126      4128      4129      4125      4126      4128      4130
      4125      4126      4128      4178      4126      4128      4178      4179
      4126      4128      4178      4180      4126      4128      4178      4181
      4127      4126      4128      4129      4127      4126      4128      4130
      4127      4126      4128      4178      4128      4178      4181      4182
      4128      4178      4181      4183      4128      4178      4181      4184
      4129      4128      4178      4179      4129      4128      4178      4180
      4129      4128      4178      4181      4130      4128      4178      4179
      4130      4128      4178      4180      4130      4128      4178      4181
      4131      4134      4137      4138      4131      4134      4137      4139
      4131      4134      4137      4140      4132      4131      4134      4135
      4132      4131      4134      4136      4132      4131      4134      4137
      4133      4131      4134      4135      4133      4131      4134      4136
      4133      4131      4134      4137      4134      4137      4140      4141
      4134      4137      4140      4142      4134      4137      4140      4143
      4135      4134      4137      4138      4135      4134      4137      4139
      4135      4134      4137      4140      4136      4134      4137      4138
      4136      4134      4137      4139      4136      4134      4137      4140
      4137      4140      4143      4144      4137      4140      4143      4145
      4137      4140      4143      4146      4138      4137      4140      4141
      4138      4137      4140      4142      4138      4137      4140      4143
      4139      4137      4140      4141      4139      4137      4140      4142
      4139      4137      4140      4143      4140      4143      4146      4147
      4140      4143      4146      4148      4140      4143      4146      4149
      4141      4140      4143      4144      4141      4140      4143      4145
      4141      4140      4143      4146      4142      4140      4143      4144
      4142      4140      4143      4145      4142      4140      4143      4146
      4143      4146      4149      4150      4143      4146      4149      4151
      4144      4143      4146      4147      4144      4143      4146      4148
      4144      4143      4146      4149      4145      4143      4146      4147
      4145      4143      4146      4148      4145      4143      4146      4149
      4146      4149      4151      4152      4146      4149      4151      4153
      4147      4146      4149      4150      4147      4146      4149      4151
      4148      4146      4149      4150      4148      4146      4149      4151
      4149      4151      4153      4154      4149      4151      4153      4155
      4149      4151      4153      4156      4150      4149      4151      4152
      4150      4149      4151      4153      4151      4153      4156      4157
      4151      4153      4156      4158      4151      4153      4156      4159
      4152      4151      4153      4154      4152      4151      4153      4155
      4152      4151      4153      4156      4153      4156      4159      4160
      4153      4156      4159      4161      4153      4156      4159      4162
      4154      4153      4156      4157      4154      4153      4156      4158
      4154      4153      4156      4159      4155      4153      4156      4157
      4155      4153      4156      4158      4155      4153      4156      4159
      4156      4159      4162      4163      4156      4159      4162      4164
      4156      4159      4162      4165      4157      4156      4159      4160
      4157      4156      4159      4161      4157      4156      4159      4162
      4158      4156      4159      4160      4158      4156      4159      4161
      4158      4156      4159      4162      4159      4162      4165      4166
      4159      4162      4165      4167      4159      4162      4165      4168
      4160      4159      4162      4163      4160      4159      4162      4164
      4160      4159      4162      4165      4161      4159      4162      4163
      4161      4159      4162      4164      4161      4159      4162      4165
      4162      4165      4168      4169      4162      4165      4168      4170
      4162      4165      4168      4171      4163      4162      4165      4166
      4163      4162      4165      4167      4163      4162      4165      4168
      4164      4162      4165      4166      4164      4162      4165      4167
      4164      4162      4165      4168      4165      4168      4171      4172
      4165      4168      4171      4173      4165      4168      4171      4174
      4166      4165      4168      4169      4166      4165      4168      4170
      4166      4165      4168      4171      4167      4165      4168      4169
      4167      4165      4168      4170      4167      4165      4168      4171
      4168      4171      4174      4175      4168      4171      4174      4176
      4168      4171      4174      4177      4169      4168      4171      4172
      4169      4168      4171      4173      4169      4168      4171      4174
      4170      4168      4171      4172      4170      4168      4171      4173
      4170      4168      4171      4174      4172      4171      4174      4175
      4172      4171      4174      4176      4172      4171      4174      4177
      4173      4171      4174      4175      4173      4171      4174      4176
      4173      4171      4174      4177      4178      4181      4184      4185
      4178      4181      4184      4186      4178      4181      4184      4187
      4179      4178      4181      4182      4179      4178      4181      4183
      4179      4178      4181      4184      4180      4178      4181      4182
      4180      4178      4181      4183      4180      4178      4181      4184
      4181      4184      4187      4188      4181      4184      4187      4189
      4181      4184      4187      4190      4182      4181      4184      4185
      4182      4181      4184      4186      4182      4181      4184      4187
      4183      4181      4184      4185      4183      4181      4184      4186
      4183      4181      4184      4187      4184      4187      4190      4191
      4184      4187      4190      4192      4184      4187      4190      4193
      4185      4184      4187      4188      4185      4184      4187      4189
      4185      4184      4187      4190      4186      4184      4187      4188
      4186      4184      4187      4189      4186      4184      4187      4190
      4187      4190      4193      4194      4187      4190      4193      4195
      4187      4190      4193      4196      4188      4187      4190      4191
      4188      4187      4190      4192      4188      4187      4190      4193
      4189      4187      4190      4191      4189      4187      4190      4192
      4189      4187      4190      4193      4190      4193      4196      4197
      4190      4193      4196      4198      4190      4193      4196      4199
      4191      4190      4193      4194      4191      4190      4193      4195
      4191      4190      4193      4196      4192      4190      4193      4194
      4192      4190      4193      4195      4192      4190      4193      4196
      4193      4196      4199      4200      4193      4196      4199      4201
      4193      4196      4199      4202      4194      4193      4196      4197
      4194      4193      4196      4198      4194      4193      4196      4199
      4195      4193      4196      4197      4195      4193      4196      4198
      4195      4193      4196      4199      4196      4199      4202      4203
      4196      4199      4202      4204      4196      4199      4202      4205
      4197      4196      4199      4200      4197      4196      4199      4201
      4197      4196      4199      4202      4198      4196      4199      4200
      4198      4196      4199      4201      4198      4196      4199      4202
      4199      4202      4205      4206      4199      4202      4205      4207
      4199      4202      4205      4208      4200      4199      4202      4203
      4200      4199      4202      4204      4200      4199      4202      4205
      4201      4199      4202      4203      4201      4199      4202      4204
      4201      4199      4202      4205      4202      4205      4208      4209
      4202      4205      4208      4210      4202      4205      4208      4211
      4203      4202      4205      4206      4203      4202      4205      4207
      4203      4202      4205      4208      4204      4202      4205      4206
      4204      4202      4205      4207      4204      4202      4205      4208
      4205      4208      4211      4212      4205      4208      4211      4213
      4205      4208      4211      4214      4206      4205      4208      4209
      4206      4205      4208      4210      4206      4205      4208      4211
      4207      4205      4208      4209      4207      4205      4208      4210
      4207      4205      4208      4211      4208      4211      4214      4215
      4208      4211      4214      4216      4208      4211      4214      4217
      4209      4208      4211      4212      4209      4208      4211      4213
      4209      4208      4211      4214      4210      4208      4211      4212
      4210      4208      4211      4213      4210      4208      4211      4214
      4211      4214      4217      4218      4211      4214      4217      4219
      4211      4214      4217      4220      4212      4211      4214      4215
      4212      4211      4214      4216      4212      4211      4214      4217
      4213      4211      4214      4215      4213      4211      4214      4216
      4213      4211      4214      4217      4215      4214      4217      4218
      4215      4214      4217      4219      4215      4214      4217      4220
      4216      4214      4217      4218      4216      4214      4217      4219
      4216      4214      4217      4220      4221      4225      4228      4229
      4221      4225      4228      4230      4221      4225      4228      4235
      4222      4221      4225      4226      4222      4221      4225      4227
      4222      4221      4225      4228      4223      4221      4225      4226
      4223      4221      4225      4227      4223      4221      4225      4228
      4224      4221      4225      4226      4224      4221      4225      4227
      4224      4221      4225      4228      4225      4228      4235      4231
      4226      4225      4228      4229      4226      4225      4228      4230
      4226      4225      4228      4235      4227      4225      4228      4229
      4227      4225      4228      4230      4227      4225      4228      4235
      4228      4235      4231      4232      4228      4235      4231      4233
      4228      4235      4231      4234      4229      4228      4235      4231
      4230      4228      4235      4231      4231      4234      4236      4237
      4231      4234      4236      4238      4231      4234      4236      4239
      4232      4231      4234      4236      4233      4231      4234      4236
      4234      4236      4239      4240      4234      4236      4239      4241
      4234      4236      4239      4247      4235      4231      4234      4236
      4236      4239      4241      4242      4236      4239      4247      4248
      4236      4239      4247      4249      4236      4239      4247      4250
      4237      4236      4239      4240      4237      4236      4239      4241
      4237      4236      4239      4247      4238      4236      4239      4240
      4238      4236      4239      4241      4238      4236      4239      4247
      4239      4241      4242      4243      4239      4241      4242      4244
      4239      4247      4250      4251      4240      4239      4241      4242
      4240      4239      4247      4248      4240      4239      4247      4249
      4240      4239      4247      4250      4241      4239      4247      4248
      4241      4239      4247      4249      4241      4239      4247      4250
      4241      4242      4244      4245      4241      4242      4244      4246
      4241      4242      4244      4256      4242      4241      4239      4247
      4242      4244      4256      4257      4242      4244      4256      4258
      4242      4244      4256      4259      4243      4242      4244      4245
      4243      4242      4244      4246      4243      4242      4244      4256
      4244      4256      4259      4260      4244      4256      4259      4261
      4244      4256      4259      4262      4245      4244      4256      4257
      4245      4244      4256      4258      4245      4244      4256      4259
      4246      4244      4256      4257      4246      4244      4256      4258
      4246      4244      4256      4259      4247      4250      4251      4252
      4247      4250      4251      4253      4248      4247      4250      4251
      4249      4247      4250      4251      4250      4251      4253      4254
      4250      4251      4253      4255      4250      4251      4253      4303
      4251      4253      4303      4304      4251      4253      4303      4305
      4251      4253      4303      4306      4252      4251      4253      4254
      4252      4251      4253      4255      4252      4251      4253      4303
      4253      4303      4306      4307      4253      4303      4306      4308
      4253      4303      4306      4309      4254      4253      4303      4304
      4254      4253      4303      4305      4254      4253      4303      4306
      4255      4253      4303      4304      4255      4253      4303      4305
      4255      4253      4303      4306      4256      4259      4262      4263
      4256      4259      4262      4264      4256      4259      4262      4265
      4257      4256      4259      4260      4257      4256      4259      4261
      4257      4256      4259      4262      4258      4256      4259      4260
      4258      4256      4259      4261      4258      4256      4259      4262
      4259      4262      4265      4266      4259      4262      4265      4267
      4259      4262      4265      4268      4260      4259      4262      4263
      4260      4259      4262      4264      4260      4259      4262      4265
      4261      4259      4262      4263      4261      4259      4262      4264
      4261      4259      4262      4265      4262      4265      4268      4269
      4262      4265      4268      4270      4262      4265      4268      4271
      4263      4262      4265      4266      4263      4262      4265      4267
      4263      4262      4265      4268      4264      4262      4265      4266
      4264      4262      4265      4267      4264      4262      4265      4268
      4265      4268      4271      4272      4265      4268      4271      4273
      4265      4268      4271      4274      4266      4265      4268      4269
      4266      4265      4268      4270      4266      4265      4268      4271
      4267      4265      4268      4269      4267      4265      4268      4270
      4267      4265      4268      4271      4268      4271      4274      4275
      4268      4271      4274      4276      4269      4268      4271      4272
      4269      4268      4271      4273      4269      4268      4271      4274
      4270      4268      4271      4272      4270      4268      4271      4273
      4270      4268      4271      4274      4271      4274      4276      4277
      4271      4274      4276      4278      4272      4271      4274      4275
      4272      4271      4274      4276      4273      4271      4274      4275
      4273      4271      4274      4276      4274      4276      4278      4279
      4274      4276      4278      4280      4274      4276      4278      4281
      4275      4274      4276      4277      4275      4274      4276      4278
      4276      4278      4281      4282      4276      4278      4281      4283
      4276      4278      4281      4284      4277      4276      4278      4279
      4277      4276      4278      4280      4277      4276      4278      4281
      4278      4281      4284      4285      4278      4281      4284      4286
      4278      4281      4284      4287      4279      4278      4281      4282
      4279      4278      4281      4283      4279      4278      4281      4284
      4280      4278      4281      4282      4280      4278      4281      4283
      4280      4278      4281      4284      4281      4284      4287      4288
      4281      4284      4287      4289      4281      4284      4287      4290
      4282      4281      4284      4285      4282      4281      4284      4286
      4282      4281      4284      4287      4283      4281      4284      4285
      4283      4281      4284      4286      4283      4281      4284      4287
      4284      4287      4290      4291      4284      4287      4290      4292
      4284      4287      4290      4293      4285      4284      4287      4288
      4285      4284      4287      4289      4285      4284      4287      4290
      4286      4284      4287      4288      4286      4284      4287      4289
      4286      4284      4287      4290      4287      4290      4293      4294
      4287      4290      4293      4295      4287      4290      4293      4296
      4288      4287      4290      4291      4288      4287      4290      4292
      4288      4287      4290      4293      4289      4287      4290      4291
      4289      4287      4290      4292      4289      4287      4290      4293
      4290      4293      4296      4297      4290      4293      4296      4298
      4290      4293      4296      4299      4291      4290      4293      4294
      4291      4290      4293      4295      4291      4290      4293      4296
      4292      4290      4293      4294      4292      4290      4293      4295
      4292      4290      4293      4296      4293      4296      4299      4300
      4293      4296      4299      4301      4293      4296      4299      4302
      4294      4293      4296      4297      4294      4293      4296      4298
      4294      4293      4296      4299      4295      4293      4296      4297
      4295      4293      4296      4298      4295      4293      4296      4299
      4297      4296      4299      4300      4297      4296      4299      4301
      4297      4296      4299      4302      4298      4296      4299      4300
      4298      4296      4299      4301      4298      4296      4299      4302
      4303      4306      4309      4310      4303      4306      4309      4311
      4303      4306      4309      4312      4304      4303      4306      4307
      4304      4303      4306      4308      4304      4303      4306      4309
      4305      4303      4306      4307      4305      4303      4306      4308
      4305      4303      4306      4309      4306      4309      4312      4313
      4306      4309      4312      4314      4306      4309      4312      4315
      4307      4306      4309      4310      4307      4306      4309      4311
      4307      4306      4309      4312      4308      4306      4309      4310
      4308      4306      4309      4311      4308      4306      4309      4312
      4309      4312      4315      4316      4309      4312      4315      4317
      4309      4312      4315      4318      4310      4309      4312      4313
      4310      4309      4312      4314      4310      4309      4312      4315
      4311      4309      4312      4313      4311      4309      4312      4314
      4311      4309      4312      4315      4312      4315      4318      4319
      4312      4315      4318      4320      4312      4315      4318      4321
      4313      4312      4315      4316      4313      4312      4315      4317
      4313      4312      4315      4318      4314      4312      4315      4316
      4314      4312      4315      4317      4314      4312      4315      4318
      4315      4318      4321      4322      4315      4318      4321      4323
      4315      4318      4321      4324      4316      4315      4318      4319
      4316      4315      4318      4320      4316      4315      4318      4321
      4317      4315      4318      4319      4317      4315      4318      4320
      4317      4315      4318      4321      4318      4321      4324      4325
      4318      4321      4324      4326      4318      4321      4324      4327
      4319      4318      4321      4322      4319      4318      4321      4323
      4319      4318      4321      4324      4320      4318      4321      4322
      4320      4318      4321      4323      4320      4318      4321      4324
      4321      4324      4327      4328      4321      4324      4327      4329
      4321      4324      4327      4330      4322      4321      4324      4325
      4322      4321      4324      4326      4322      4321      4324      4327
      4323      4321      4324      4325      4323      4321      4324      4326
      4323      4321      4324      4327      4324      4327      4330      4331
      4324      4327      4330      4332      4324      4327      4330      4333
      4325      4324      4327      4328      4325      4324      4327      4329
      4325      4324      4327      4330      4326      4324      4327      4328
      4326      4324      4327      4329      4326      4324      4327      4330
      4327      4330      4333      4334      4327      4330      4333      4335
      4327      4330      4333      4336      4328      4327      4330      4331
      4328      4327      4330      4332      4328      4327      4330      4333
      4329      4327      4330      4331      4329      4327      4330      4332
      4329      4327      4330      4333      4330      4333      4336      4337
      4330      4333      4336      4338      4330      4333      4336      4339
      4331      4330      4333      4334      4331      4330      4333      4335
      4331      4330      4333      4336      4332      4330      4333      4334
      4332      4330      4333      4335      4332      4330      4333      4336
      4333      4336      4339      4340      4333      4336      4339      4341
      4333      4336      4339      4342      4334      4333      4336      4337
      4334      4333      4336      4338      4334      4333      4336      4339
      4335      4333      4336      4337      4335      4333      4336      4338
      4335      4333      4336      4339      4336      4339      4342      4343
      4336      4339      4342      4344      4336      4339      4342      4345
      4337      4336      4339      4340      4337      4336      4339      4341
      4337      4336      4339      4342      4338      4336      4339      4340
      4338      4336      4339      4341      4338      4336      4339      4342
      4340      4339      4342      4343      4340      4339      4342      4344
      4340      4339      4342      4345      4341      4339      4342      4343
      4341      4339      4342      4344      4341      4339      4342      4345
      4346      4350      4353      4354      4346      4350      4353      4355
      4346      4350      4353      4360      4347      4346      4350      4351
      4347      4346      4350      4352      4347      4346      4350      4353
      4348      4346      4350      4351      4348      4346      4350      4352
      4348      4346      4350      4353      4349      4346      4350      4351
      4349      4346      4350      4352      4349      4346      4350      4353
      4350      4353      4360      4356      4351      4350      4353      4354
      4351      4350      4353      4355      4351      4350      4353      4360
      4352      4350      4353      4354      4352      4350      4353      4355
      4352      4350      4353      4360      4353      4360      4356      4357
      4353      4360      4356      4358      4353      4360      4356      4359
      4354      4353      4360      4356      4355      4353      4360      4356
      4356      4359      4361      4362      4356      4359      4361      4363
      4356      4359      4361      4364      4357      4356      4359      4361
      4358      4356      4359      4361      4359      4361      4364      4365
      4359      4361      4364      4366      4359      4361      4364      4372
      4360      4356      4359      4361      4361      4364      4366      4367
      4361      4364      4372      4373      4361      4364      4372      4374
      4361      4364      4372      4375      4362      4361      4364      4365
      4362      4361      4364      4366      4362      4361      4364      4372
      4363      4361      4364      4365      4363      4361      4364      4366
      4363      4361      4364      4372      4364      4366      4367      4368
      4364      4366      4367      4369      4364      4372      4375      4376
      4365      4364      4366      4367      4365      4364      4372      4373
      4365      4364      4372      4374      4365      4364      4372      4375
      4366      4364      4372      4373      4366      4364      4372      4374
      4366      4364      4372      4375      4366      4367      4369      4370
      4366      4367      4369      4371      4366      4367      4369      4381
      4367      4366      4364      4372      4367      4369      4381      4382
      4367      4369      4381      4383      4367      4369      4381      4384
      4368      4367      4369      4370      4368      4367      4369      4371
      4368      4367      4369      4381      4369      4381      4384      4385
      4369      4381      4384      4386      4369      4381      4384      4387
      4370      4369      4381      4382      4370      4369      4381      4383
      4370      4369      4381      4384      4371      4369      4381      4382
      4371      4369      4381      4383      4371      4369      4381      4384
      4372      4375      4376      4377      4372      4375      4376      4378
      4373      4372      4375      4376      4374      4372      4375      4376
      4375      4376      4378      4379      4375      4376      4378      4380
      4375      4376      4378      4428      4376      4378      4428      4429
      4376      4378      4428      4430      4376      4378      4428      4431
      4377      4376      4378      4379      4377      4376      4378      4380
      4377      4376      4378      4428      4378      4428      4431      4432
      4378      4428      4431      4433      4378      4428      4431      4434
      4379      4378      4428      4429      4379      4378      4428      4430
      4379      4378      4428      4431      4380      4378      4428      4429
      4380      4378      4428      4430      4380      4378      4428      4431
      4381      4384      4387      4388      4381      4384      4387      4389
      4381      4384      4387      4390      4382      4381      4384      4385
      4382      4381      4384      4386      4382      4381      4384      4387
      4383      4381      4384      4385      4383      4381      4384      4386
      4383      4381      4384      4387      4384      4387      4390      4391
      4384      4387      4390      4392      4384      4387      4390      4393
      4385      4384      4387      4388      4385      4384      4387      4389
      4385      4384      4387      4390      4386      4384      4387      4388
      4386      4384      4387      4389      4386      4384      4387      4390
      4387      4390      4393      4394      4387      4390      4393      4395
      4387      4390      4393      4396      4388      4387      4390      4391
      4388      4387      4390      4392      4388      4387      4390      4393
      4389      4387      4390      4391      4389      4387      4390      4392
      4389      4387      4390      4393      4390      4393      4396      4397
      4390      4393      4396      4398      4390      4393      4396      4399
      4391      4390      4393      4394      4391      4390      4393      4395
      4391      4390      4393      4396      4392      4390      4393      4394
      4392      4390      4393      4395      4392      4390      4393      4396
      4393      4396      4399      4400      4393      4396      4399      4401
      4394      4393      4396      4397      4394      4393      4396      4398
      4394      4393      4396      4399      4395      4393      4396      4397
      4395      4393      4396      4398      4395      4393      4396      4399
      4396      4399      4401      4402      4396      4399      4401      4403
      4397      4396      4399      4400      4397      4396      4399      4401
      4398      4396      4399      4400      4398      4396      4399      4401
      4399      4401      4403      4404      4399      4401      4403      4405
      4399      4401      4403      4406      4400      4399      4401      4402
      4400      4399      4401      4403      4401      4403      4406      4407
      4401      4403      4406      4408      4401      4403      4406      4409
      4402      4401      4403      4404      4402      4401      4403      4405
      4402      4401      4403      4406      4403      4406      4409      4410
      4403      4406      4409      4411      4403      4406      4409      4412
      4404      4403      4406      4407      4404      4403      4406      4408
      4404      4403      4406      4409      4405      4403      4406      4407
      4405      4403      4406      4408      4405      4403      4406      4409
      4406      4409      4412      4413      4406      4409      4412      4414
      4406      4409      4412      4415      4407      4406      4409      4410
      4407      4406      4409      4411      4407      4406      4409      4412
      4408      4406      4409      4410      4408      4406      4409      4411
      4408      4406      4409      4412      4409      4412      4415      4416
      4409      4412      4415      4417      4409      4412      4415      4418
      4410      4409      4412      4413      4410      4409      4412      4414
      4410      4409      4412      4415      4411      4409      4412      4413
      4411      4409      4412      4414      4411      4409      4412      4415
      4412      4415      4418      4419      4412      4415      4418      4420
      4412      4415      4418      4421      4413      4412      4415      4416
      4413      4412      4415      4417      4413      4412      4415      4418
      4414      4412      4415      4416      4414      4412      4415      4417
      4414      4412      4415      4418      4415      4418      4421      4422
      4415      4418      4421      4423      4415      4418      4421      4424
      4416      4415      4418      4419      4416      4415      4418      4420
      4416      4415      4418      4421      4417      4415      4418      4419
      4417      4415      4418      4420      4417      4415      4418      4421
      4418      4421      4424      4425      4418      4421      4424      4426
      4418      4421      4424      4427      4419      4418      4421      4422
      4419      4418      4421      4423      4419      4418      4421      4424
      4420      4418      4421      4422      4420      4418      4421      4423
      4420      4418      4421      4424      4422      4421      4424      4425
      4422      4421      4424      4426      4422      4421      4424      4427
      4423      4421      4424      4425      4423      4421      4424      4426
      4423      4421      4424      4427      4428      4431      4434      4435
      4428      4431      4434      4436      4428      4431      4434      4437
      4429      4428      4431      4432      4429      4428      4431      4433
      4429      4428      4431      4434      4430      4428      4431      4432
      4430      4428      4431      4433      4430      4428      4431      4434
      4431      4434      4437      4438      4431      4434      4437      4439
      4431      4434      4437      4440      4432      4431      4434      4435
      4432      4431      4434      4436      4432      4431      4434      4437
      4433      4431      4434      4435      4433      4431      4434      4436
      4433      4431      4434      4437      4434      4437      4440      4441
      4434      4437      4440      4442      4434      4437      4440      4443
      4435      4434      4437      4438      4435      4434      4437      4439
      4435      4434      4437      4440      4436      4434      4437      4438
      4436      4434      4437      4439      4436      4434      4437      4440
      4437      4440      4443      4444      4437      4440      4443      4445
      4437      4440      4443      4446      4438      4437      4440      4441
      4438      4437      4440      4442      4438      4437      4440      4443
      4439      4437      4440      4441      4439      4437      4440      4442
      4439      4437      4440      4443      4440      4443      4446      4447
      4440      4443      4446      4448      4440      4443      4446      4449
      4441      4440      4443      4444      4441      4440      4443      4445
      4441      4440      4443      4446      4442      4440      4443      4444
      4442      4440      4443      4445      4442      4440      4443      4446
      4443      4446      4449      4450      4443      4446      4449      4451
      4443      4446      4449      4452      4444      4443      4446      4447
      4444      4443      4446      4448      4444      4443      4446      4449
      4445      4443      4446      4447      4445      4443      4446      4448
      4445      4443      4446      4449      4446      4449      4452      4453
      4446      4449      4452      4454      4446      4449      4452      4455
      4447      4446      4449      4450      4447      4446      4449      4451
      4447      4446      4449      4452      4448      4446      4449      4450
      4448      4446      4449      4451      4448      4446      4449      4452
      4449      4452      4455      4456      4449      4452      4455      4457
      4449      4452      4455      4458      4450      4449      4452      4453
      4450      4449      4452      4454      4450      4449      4452      4455
      4451      4449      4452      4453      4451      4449      4452      4454
      4451      4449      4452      4455      4452      4455      4458      4459
      4452      4455      4458      4460      4452      4455      4458      4461
      4453      4452      4455      4456      4453      4452      4455      4457
      4453      4452      4455      4458      4454      4452      4455      4456
      4454      4452      4455      4457      4454      4452      4455      4458
      4455      4458      4461      4462      4455      4458      4461      4463
      4455      4458      4461      4464      4456      4455      4458      4459
      4456      4455      4458      4460      4456      4455      4458      4461
      4457      4455      4458      4459      4457      4455      4458      4460
      4457      4455      4458      4461      4458      4461      4464      4465
      4458      4461      4464      4466      4458      4461      4464      4467
      4459      4458      4461      4462      4459      4458      4461      4463
      4459      4458      4461      4464      4460      4458      4461      4462
      4460      4458      4461      4463      4460      4458      4461      4464
      4461      4464      4467      4468      4461      4464      4467      4469
      4461      4464      4467      4470      4462      4461      4464      4465
      4462      4461      4464      4466      4462      4461      4464      4467
      4463      4461      4464      4465      4463      4461      4464      4466
      4463      4461      4464      4467      4465      4464      4467      4468
      4465      4464      4467      4469      4465      4464      4467      4470
      4466      4464      4467      4468      4466      4464      4467      4469
      4466      4464      4467      4470      9741      9745      9747      9748
      9741      9745      9747      9749      9741      9745      9750      9751
      9741      9745      9750      9752      9741      9745      9750      9756
      9742      9741      9745      9746      9742      9741      9745      9747
      9742      9741      9745      9750      9743      9741      9745      9746
      9743      9741      9745      9747      9743      9741      9745      9750
      9744      9741      9745      9746      9744      9741      9745      9747
      9744      9741      9745      9750      9745      9750      9756      9753
      9746      9745      9747      9748      9746      9745      9747      9749
      9746      9745      9750      9751      9746      9745      9750      9752
      9746      9745      9750      9756      9747      9745      9750      9751
      9747      9745      9750      9752      9747      9745      9750      9756
      9748      9747      9745      9750      9749      9747      9745      9750
      9750      9756      9753      9754      9750      9756      9753      9755
      9750      9756      9753      9757      9751      9750      9756      9753
      9752      9750      9756      9753      9753      9757      9758      9759
      9753      9757      9758      9760      9753      9757      9758      9761
      9754      9753      9757      9758      9755      9753      9757      9758
      9756      9753      9757      9758      9757      9758      9761      9762
      9757      9758      9761      9763      9757      9758      9761      9769
      9758      9761      9763      9764      9758      9761      9769      9770
      9758      9761      9769      9771      9758      9761      9769      9772
      9759      9758      9761      9762      9759      9758      9761      9763
      9759      9758      9761      9769      9760      9758      9761      9762
      9760      9758      9761      9763      9760      9758      9761      9769
      9761      9763      9764      9765      9761      9763      9764      9766
      9761      9769      9772      9773      9762      9761      9763      9764
      9762      9761      9769      9770      9762      9761      9769      9771
      9762      9761      9769      9772      9763      9761      9769      9770
      9763      9761      9769      9771      9763      9761      9769      9772
      9763      9764      9766      9767      9763      9764      9766      9768
      9763      9764      9766      9778      9764      9763      9761      9769
      9764      9766      9778      9779      9764      9766      9778      9780
      9764      9766      9778      9781      9765      9764      9766      9767
      9765      9764      9766      9768      9765      9764      9766      9778
      9766      9778      9781      9782      9766      9778      9781      9783
      9766      9778      9781      9784      9767      9766      9778      9779
      9767      9766      9778      9780      9767      9766      9778      9781
      9768      9766      9778      9779      9768      9766      9778      9780
      9768      9766      9778      9781      9769      9772      9773      9774
      9769      9772      9773      9775      9770      9769      9772      9773
      9771      9769      9772      9773      9772      9773      9775      9776
      9772      9773      9775      9777      9772      9773      9775      9825
      9773      9775      9825      9826      9773      9775      9825      9827
      9773      9775      9825      9828      9774      9773      9775      9776
      9774      9773      9775      9777      9774      9773      9775      9825
      9775      9825      9828      9829      9775      9825      9828      9830
      9775      9825      9828      9831      9776      9775      9825      9826
      9776      9775      9825      9827      9776      9775      9825      9828
      9777      9775      9825      9826      9777      9775      9825      9827
      9777      9775      9825      9828      9778      9781      9784      9785
      9778      9781      9784      9786      9778      9781      9784      9787
      9779      9778      9781      9782      9779      9778      9781      9783
      9779      9778      9781      9784      9780      9778      9781      9782
      9780      9778      9781      9783      9780      9778      9781      9784
      9781      9784      9787      9788      9781      9784      9787      9789
      9781      9784      9787      9790      9782      9781      9784      9785
      9782      9781      9784      9786      9782      9781      9784      9787
      9783      9781      9784      9785      9783      9781      9784      9786
      9783      9781      9784      9787      9784      9787      9790      9791
      9784      9787      9790      9792      9784      9787      9790      9793
      9785      9784      9787      9788      9785      9784      9787      9789
      9785      9784      9787      9790      9786      9784      9787      9788
      9786      9784      9787      9789      9786      9784      9787      9790
      9787      9790      9793      9794      9787      9790      9793      9795
      9787      9790      9793      9796      9788      9787      9790      9791
      9788      9787      9790      9792      9788      9787      9790      9793
      9789      9787      9790      9791      9789      9787      9790      9792
      9789      9787      9790      9793      9790      9793      9796      9797
      9790      9793      9796      9798      9791      9790      9793      9794
      9791      9790      9793      9795      9791      9790      9793      9796
      9792      9790      9793      9794      9792      9790      9793      9795
      9792      9790      9793      9796      9793      9796      9798      9799
      9793      9796      9798      9800      9794      9793      9796      9797
      9794      9793      9796      9798      9795      9793      9796      9797
      9795      9793      9796      9798      9796      9798      9800      9801
      9796      9798      9800      9802      9796      9798      9800      9803
      9797      9796      9798      9799      9797      9796      9798      9800
      9798      9800      9803      9804      9798      9800      9803      9805
      9798      9800      9803      9806      9799      9798      9800      9801
      9799      9798      9800      9802      9799      9798      9800      9803
      9800      9803      9806      9807      9800      9803      9806      9808
      9800      9803      9806      9809      9801      9800      9803      9804
      9801      9800      9803      9805      9801      9800      9803      9806
      9802      9800      9803      9804      9802      9800      9803      9805
      9802      9800      9803      9806      9803      9806      9809      9810
      9803      9806      9809      9811      9803      9806      9809      9812
      9804      9803      9806      9807      9804      9803      9806      9808
      9804      9803      9806      9809      9805      9803      9806      9807
      9805      9803      9806      9808      9805      9803      9806      9809
      9806      9809      9812      9813      9806      9809      9812      9814
      9806      9809      9812      9815      9807      9806      9809      9810
      9807      9806      9809      9811      9807      9806      9809      9812
      9808      9806      9809      9810      9808      9806      9809      9811
      9808      9806      9809      9812      9809      9812      9815      9816
      9809      9812      9815      9817      9809      9812      9815      9818
      9810      9809      9812      9813      9810      9809      9812      9814
      9810      9809      9812      9815      9811      9809      9812      9813
      9811      9809      9812      9814      9811      9809      9812      9815
      9812      9815      9818      9819      9812      9815      9818      9820
      9812      9815      9818      9821      9813      9812      9815      9816
      9813      9812      9815      9817      9813      9812      9815      9818
      9814      9812      9815      9816      9814      9812      9815      9817
      9814      9812      9815      9818      9815      9818      9821      9822
      9815      9818      9821      9823      9815      9818      9821      9824
      9816      9815      9818      9819      9816      9815      9818      9820
      9816      9815      9818      9821      9817      9815      9818      9819
      9817      9815      9818      9820      9817      9815      9818      9821
      9819      9818      9821      9822      9819      9818      9821      9823
      9819      9818      9821      9824      9820      9818      9821      9822
      9820      9818      9821      9823      9820      9818      9821      9824
      9825      9828      9831      9832      9825      9828      9831      9833
      9825      9828      9831      9834      9826      9825      9828      9829
      9826      9825      9828      9830      9826      9825      9828      9831
      9827      9825      9828      9829      9827      9825      9828      9830
      9827      9825      9828      9831      9828      9831      9834      9835
      9828      9831      9834      9836      9828      9831      9834      9837
      9829      9828      9831      9832      9829      9828      9831      9833
      9829      9828      9831      9834      9830      9828      9831      9832
      9830      9828      9831      9833      9830      9828      9831      9834
      9831      9834      9837      9838      9831      9834      9837      9839
      9831      9834      9837      9840      9832      9831      9834      9835
      9832      9831      9834      9836      9832      9831      9834      9837
      9833      9831      9834      9835      9833      9831      9834      9836
      9833      9831      9834      9837      9834      9837      9840      9841
      9834      9837      9840      9842      9834      9837      9840      9843
      9835      9834      9837      9838      9835      9834      9837      9839
      9835      9834      9837      9840      9836      9834      9837      9838
      9836      9834      9837      9839      9836      9834      9837      9840
      9837      9840      9843      9844      9837      9840      9843      9845
      9837      9840      9843      9846      9838      9837      9840      9841
      9838      9837      9840      9842      9838      9837      9840      9843
      9839      9837      9840      9841      9839      9837      9840      9842
      9839      9837      9840      9843      9840      9843      9846      9847
      9840      9843      9846      9848      9840      9843      9846      9849
      9841      9840      9843      9844      9841      9840      9843      9845
      9841      9840      9843      9846      9842      9840      9843      9844
      9842      9840      9843      9845      9842      9840      9843      9846
      9843      9846      9849      9850      9843      9846      9849      9851
      9843      9846      9849      9852      9844      9843      9846      9847
      9844      9843      9846      9848      9844      9843      9846      9849
      9845      9843      9846      9847      9845      9843      9846      9848
      9845      9843      9846      9849      9846      9849      9852      9853
      9846      9849      9852      9854      9846      9849      9852      9855
      9847      9846      9849      9850      9847      9846      9849      9851
      9847      9846      9849      9852      9848      9846      9849      9850
      9848      9846      9849      9851      9848      9846      9849      9852
      9849      9852      9855      9856      9849      9852      9855      9857
      9849      9852      9855      9858      9850      9849      9852      9853
      9850      9849      9852      9854      9850      9849      9852      9855
      9851      9849      9852      9853      9851      9849      9852      9854
      9851      9849      9852      9855      9852      9855      9858      9859
      9852      9855      9858      9860      9852      9855      9858      9861
      9853      9852      9855      9856      9853      9852      9855      9857
      9853      9852      9855      9858      9854      9852      9855      9856
      9854      9852      9855      9857      9854      9852      9855      9858
      9855      9858      9861      9862      9855      9858      9861      9863
      9855      9858      9861      9864      9856      9855      9858      9859
      9856      9855      9858      9860      9856      9855      9858      9861
      9857      9855      9858      9859      9857      9855      9858      9860
      9857      9855      9858      9861      9858      9861      9864      9865
      9858      9861      9864      9866      9858      9861      9864      9867
      9859      9858      9861      9862      9859      9858      9861      9863
      9859      9858      9861      9864      9860      9858      9861      9862
      9860      9858      9861      9863      9860      9858      9861      9864
      9862      9861      9864      9865      9862      9861      9864      9866
      9862      9861      9864      9867      9863      9861      9864      9865
      9863      9861      9864      9866      9863      9861      9864      9867
     15963     15964     15979     15980     15963     15964     15979     15981
     15963     15964     15979     15985     15964     15963     15967     15968
     15964     15963     15967     15969     15964     15963     15967     15970
     15964     15963     15971     15972     15964     15963     15971     15973
     15964     15963     15971     15974     15964     15963     15975     15976
     15964     15963     15975     15977     15964     15963     15975     15978
     15964     15979     15985     15982     15965     15964     15963     15967
     15965     15964     15963     15971     15965     15964     15963     15975
     15965     15964     15979     15980     15965     15964     15979     15981
     15965     15964     15979     15985     15966     15964     15963     15967
     15966     15964     15963     15971     15966     15964     15963     15975
     15966     15964     15979     15980     15966     15964     15979     15981
     15966     15964     15979     15985     15967     15963     15964     15979
     15967     15963     15971     15972     15967     15963     15971     15973
     15967     15963     15971     15974     15967     15963     15975     15976
     15967     15963     15975     15977     15967     15963     15975     15978
     15968     15967     15963     15971     15968     15967     15963     15975
     15969     15967     15963     15971     15969     15967     15963     15975
     15970     15967     15963     15971     15970     15967     15963     15975
     15971     15963     15964     15979     15971     15963     15975     15976
     15971     15963     15975     15977     15971     15963     15975     15978
     15972     15971     15963     15975     15973     15971     15963     15975
     15974     15971     15963     15975     15975     15963     15964     15979
     15979     15985     15982     15983     15979     15985     15982     15984
     15979     15985     15982     15986     15980     15979     15985     15982
     15981     15979     15985     15982     15982     15986     15987     15988
     15982     15986     15987     15989     15982     15986     15987     15990
     15983     15982     15986     15987     15984     15982     15986     15987
     15985     15982     15986     15987     15986     15987     15990     15991
     15986     15987     15990     15992     15986     15987     15990     15998
     15987     15990     15992     15993     15987     15990     15998     15999
     15987     15990     15998     16000     15987     15990     15998     16001
     15988     15987     15990     15991     15988     15987     15990     15992
     15988     15987     15990     15998     15989     15987     15990     15991
     15989     15987     15990     15992     15989     15987     15990     15998
     15990     15992     15993     15994     15990     15992     15993     15995
     15990     15998     16001     16002     15991     15990     15992     15993
     15991     15990     15998     15999     15991     15990     15998     16000
     15991     15990     15998     16001     15992     15990     15998     15999
     15992     15990     15998     16000     15992     15990     15998     16001
     15992     15993     15995     15996     15992     15993     15995     15997
     15992     15993     15995     16007     15993     15992     15990     15998
     15993     15995     16007     16008     15993     15995     16007     16009
     15993     15995     16007     16010     15994     15993     15995     15996
     15994     15993     15995     15997     15994     15993     15995     16007
     15995     16007     16010     16011     15995     16007     16010     16012
     15995     16007     16010     16013     15996     15995     16007     16008
     15996     15995     16007     16009     15996     15995     16007     16010
     15997     15995     16007     16008     15997     15995     16007     16009
     15997     15995     16007     16010     15998     16001     16002     16003
     15998     16001     16002     16004     15999     15998     16001     16002
     16000     15998     16001     16002     16001     16002     16004     16005
     16001     16002     16004     16006     16001     16002     16004     16054
     16002     16004     16054     16055     16002     16004     16054     16056
     16002     16004     16054     16057     16003     16002     16004     16005
     16003     16002     16004     16006     16003     16002     16004     16054
     16004     16054     16057     16058     16004     16054     16057     16059
     16004     16054     16057     16060     16005     16004     16054     16055
     16005     16004     16054     16056     16005     16004     16054     16057
     16006     16004     16054     16055     16006     16004     16054     16056
     16006     16004     16054     16057     16007     16010     16013     16014
     16007     16010     16013     16015     16007     16010     16013     16016
     16008     16007     16010     16011     16008     16007     16010     16012
     16008     16007     16010     16013     16009     16007     16010     16011
     16009     16007     16010     16012     16009     16007     16010     16013
     16010     16013     16016     16017     16010     16013     16016     16018
     16010     16013     16016     16019     16011     16010     16013     16014
     16011     16010     16013     16015     16011     16010     16013     16016
     16012     16010     16013     16014     16012     16010     16013     16015
     16012     16010     16013     16016     16013     16016     16019     16020
     16013     16016     16019     16021     16013     16016     16019     16022
     16014     16013     16016     16017     16014     16013     16016     16018
     16014     16013     16016     16019     16015     16013     16016     16017
     16015     16013     16016     16018     16015     16013     16016     16019
     16016     16019     16022     16023     16016     16019     16022     16024
     16016     16019     16022     16025     16017     16016     16019     16020
     16017     16016     16019     16021     16017     16016     16019     16022
     16018     16016     16019     16020     16018     16016     16019     16021
     16018     16016     16019     16022     16019     16022     16025     16026
     16019     16022     16025     16027     16020     16019     16022     16023
     16020     16019     16022     16024     16020     16019     16022     16025
     16021     16019     16022     16023     16021     16019     16022     16024
     16021     16019     16022     16025     16022     16025     16027     16028
     16022     16025     16027     16029     16023     16022     16025     16026
     16023     16022     16025     16027     16024     16022     16025     16026
     16024     16022     16025     16027     16025     16027     16029     16030
     16025     16027     16029     16031     16025     16027     16029     16032
     16026     16025     16027     16028     16026     16025     16027     16029
     16027     16029     16032     16033     16027     16029     16032     16034
     16027     16029     16032     16035     16028     16027     16029     16030
     16028     16027     16029     16031     16028     16027     16029     16032
     16029     16032     16035     16036     16029     16032     16035     16037
     16029     16032     16035     16038     16030     16029     16032     16033
     16030     16029     16032     16034     16030     16029     16032     16035
     16031     16029     16032     16033     16031     16029     16032     16034
     16031     16029     16032     16035     16032     16035     16038     16039
     16032     16035     16038     16040     16032     16035     16038     16041
     16033     16032     16035     16036     16033     16032     16035     16037
     16033     16032     16035     16038     16034     16032     16035     16036
     16034     16032     16035     16037     16034     16032     16035     16038
     16035     16038     16041     16042     16035     16038     16041     16043
     16035     16038     16041     16044     16036     16035     16038     16039
     16036     16035     16038     16040     16036     16035     16038     16041
     16037     16035     16038     16039     16037     16035     16038     16040
     16037     16035     16038     16041     16038     16041     16044     16045
     16038     16041     16044     16046     16038     16041     16044     16047
     16039     16038     16041     16042     16039     16038     16041     16043
     16039     16038     16041     16044     16040     16038     16041     16042
     16040     16038     16041     16043     16040     16038     16041     16044
     16041     16044     16047     16048     16041     16044     16047     16049
     16041     16044     16047     16050     16042     16041     16044     16045
     16042     16041     16044     16046     16042     16041     16044     16047
     16043     16041     16044     16045     16043     16041     16044     16046
     16043     16041     16044     16047     16044     16047     16050     16051
     16044     16047     16050     16052     16044     16047     16050     16053
     16045     16044     16047     16048     16045     16044     16047     16049
     16045     16044     16047     16050     16046     16044     16047     16048
     16046     16044     16047     16049     16046     16044     16047     16050
     16048     16047     16050     16051     16048     16047     16050     16052
     16048     16047     16050     16053     16049     16047     16050     16051
     16049     16047     16050     16052     16049     16047     16050     16053
     16054     16057     16060     16061     16054     16057     16060     16062
     16054     16057     16060     16063     16055     16054     16057     16058
     16055     16054     16057     16059     16055     16054     16057     16060
     16056     16054     16057     16058     16056     16054     16057     16059
     16056     16054     16057     16060     16057     16060     16063     16064
     16057     16060     16063     16065     16057     16060     16063     16066
     16058     16057     16060     16061     16058     16057     16060     16062
     16058     16057     16060     16063     16059     16057     16060     16061
     16059     16057     16060     16062     16059     16057     16060     16063
     16060     16063     16066     16067     16060     16063     16066     16068
     16060     16063     16066     16069     16061     16060     16063     16064
     16061     16060     16063     16065     16061     16060     16063     16066
     16062     16060     16063     16064     16062     16060     16063     16065
     16062     16060     16063     16066     16063     16066     16069     16070
     16063     16066     16069     16071     16063     16066     16069     16072
     16064     16063     16066     16067     16064     16063     16066     16068
     16064     16063     16066     16069     16065     16063     16066     16067
     16065     16063     16066     16068     16065     16063     16066     16069
     16066     16069     16072     16073     16066     16069     16072     16074
     16066     16069     16072     16075     16067     16066     16069     16070
     16067     16066     16069     16071     16067     16066     16069     16072
     16068     16066     16069     16070     16068     16066     16069     16071
     16068     16066     16069     16072     16069     16072     16075     16076
     16069     16072     16075     16077     16069     16072     16075     16078
     16070     16069     16072     16073     16070     16069     16072     16074
     16070     16069     16072     16075     16071     16069     16072     16073
     16071     16069     16072     16074     16071     16069     16072     16075
     16072     16075     16078     16079     16072     16075     16078     16080
     16072     16075     16078     16081     16073     16072     16075     16076
     16073     16072     16075     16077     16073     16072     16075     16078
     16074     16072     16075     16076     16074     16072     16075     16077
     16074     16072     16075     16078     16075     16078     16081     16082
     16075     16078     16081     16083     16075     16078     16081     16084
     16076     16075     16078     16079     16076     16075     16078     16080
     16076     16075     16078     16081     16077     16075     16078     16079
     16077     16075     16078     16080     16077     16075     16078     16081
     16078     16081     16084     16085     16078     16081     16084     16086
     16078     16081     16084     16087     16079     16078     16081     16082
     16079     16078     16081     16083     16079     16078     16081     16084
     16080     16078     16081     16082     16080     16078     16081     16083
     16080     16078     16081     16084     16081     16084     16087     16088
     16081     16084     16087     16089     16081     16084     16087     16090
     16082     16081     16084     16085     16082     16081     16084     16086
     16082     16081     16084     16087     16083     16081     16084     16085
     16083     16081     16084     16086     16083     16081     16084     16087
     16084     16087     16090     16091     16084     16087     16090     16092
     16084     16087     16090     16093     16085     16084     16087     16088
     16085     16084     16087     16089     16085     16084     16087     16090
     16086     16084     16087     16088     16086     16084     16087     16089
     16086     16084     16087     16090     16087     16090     16093     16094
     16087     16090     16093     16095     16087     16090     16093     16096
     16088     16087     16090     16091     16088     16087     16090     16092
     16088     16087     16090     16093     16089     16087     16090     16091
     16089     16087     16090     16092     16089     16087     16090     16093
     16091     16090     16093     16094     16091     16090     16093     16095
     16091     16090     16093     16096     16092     16090     16093     16094
     16092     16090     16093     16095     16092     16090     16093     16096
      9868      9872      9874      9875      9868      9872      9874      9876
      9868      9872      9877      9878      9868      9872      9877      9879
      9868      9872      9877      9883      9869      9868      9872      9873
      9869      9868      9872      9874      9869      9868      9872      9877
      9870      9868      9872      9873      9870      9868      9872      9874
      9870      9868      9872      9877      9871      9868      9872      9873
      9871      9868      9872      9874      9871      9868      9872      9877
      9872      9877      9883      9880      9873      9872      9874      9875
      9873      9872      9874      9876      9873      9872      9877      9878
      9873      9872      9877      9879      9873      9872      9877      9883
      9874      9872      9877      9878      9874      9872      9877      9879
      9874      9872      9877      9883      9875      9874      9872      9877
      9876      9874      9872      9877      9877      9883      9880      9881
      9877      9883      9880      9882      9877      9883      9880      9884
      9878      9877      9883      9880      9879      9877      9883      9880
      9880      9884      9885      9886      9880      9884      9885      9887
      9880      9884      9885      9888      9881      9880      9884      9885
      9882      9880      9884      9885      9883      9880      9884      9885
      9884      9885      9888      9889      9884      9885      9888      9890
      9884      9885      9888      9896      9885      9888      9890      9891
      9885      9888      9896      9897      9885      9888      9896      9898
      9885      9888      9896      9899      9886      9885      9888      9889
      9886      9885      9888      9890      9886      9885      9888      9896
      9887      9885      9888      9889      9887      9885      9888      9890
      9887      9885      9888      9896      9888      9890      9891      9892
      9888      9890      9891      9893      9888      9896      9899      9900
      9889      9888      9890      9891      9889      9888      9896      9897
      9889      9888      9896      9898      9889      9888      9896      9899
      9890      9888      9896      9897      9890      9888      9896      9898
      9890      9888      9896      9899      9890      9891      9893      9894
      9890      9891      9893      9895      9890      9891      9893      9905
      9891      9890      9888      9896      9891      9893      9905      9906
      9891      9893      9905      9907      9891      9893      9905      9908
      9892      9891      9893      9894      9892      9891      9893      9895
      9892      9891      9893      9905      9893      9905      9908      9909
      9893      9905      9908      9910      9893      9905      9908      9911
      9894      9893      9905      9906      9894      9893      9905      9907
      9894      9893      9905      9908      9895      9893      9905      9906
      9895      9893      9905      9907      9895      9893      9905      9908
      9896      9899      9900      9901      9896      9899      9900      9902
      9897      9896      9899      9900      9898      9896      9899      9900
      9899      9900      9902      9903      9899      9900      9902      9904
      9899      9900      9902      9952      9900      9902      9952      9953
      9900      9902      9952      9954      9900      9902      9952      9955
      9901      9900      9902      9903      9901      9900      9902      9904
      9901      9900      9902      9952      9902      9952      9955      9956
      9902      9952      9955      9957      9902      9952      9955      9958
      9903      9902      9952      9953      9903      9902      9952      9954
      9903      9902      9952      9955      9904      9902      9952      9953
      9904      9902      9952      9954      9904      9902      9952      9955
      9905      9908      9911      9912      9905      9908      9911      9913
      9905      9908      9911      9914      9906      9905      9908      9909
      9906      9905      9908      9910      9906      9905      9908      9911
      9907      9905      9908      9909      9907      9905      9908      9910
      9907      9905      9908      9911      9908      9911      9914      9915
      9908      9911      9914      9916      9908      9911      9914      9917
      9909      9908      9911      9912      9909      9908      9911      9913
      9909      9908      9911      9914      9910      9908      9911      9912
      9910      9908      9911      9913      9910      9908      9911      9914
      9911      9914      9917      9918      9911      9914      9917      9919
      9911      9914      9917      9920      9912      9911      9914      9915
      9912      9911      9914      9916      9912      9911      9914      9917
      9913      9911      9914      9915      9913      9911      9914      9916
      9913      9911      9914      9917      9914      9917      9920      9921
      9914      9917      9920      9922      9914      9917      9920      9923
      9915      9914      9917      9918      9915      9914      9917      9919
      9915      9914      9917      9920      9916      9914      9917      9918
      9916      9914      9917      9919      9916      9914      9917      9920
      9917      9920      9923      9924      9917      9920      9923      9925
      9918      9917      9920      9921      9918      9917      9920      9922
      9918      9917      9920      9923      9919      9917      9920      9921
      9919      9917      9920      9922      9919      9917      9920      9923
      9920      9923      9925      9926      9920      9923      9925      9927
      9921      9920      9923      9924      9921      9920      9923      9925
      9922      9920      9923      9924      9922      9920      9923      9925
      9923      9925      9927      9928      9923      9925      9927      9929
      9923      9925      9927      9930      9924      9923      9925      9926
      9924      9923      9925      9927      9925      9927      9930      9931
      9925      9927      9930      9932      9925      9927      9930      9933
      9926      9925      9927      9928      9926      9925      9927      9929
      9926      9925      9927      9930      9927      9930      9933      9934
      9927      9930      9933      9935      9927      9930      9933      9936
      9928      9927      9930      9931      9928      9927      9930      9932
      9928      9927      9930      9933      9929      9927      9930      9931
      9929      9927      9930      9932      9929      9927      9930      9933
      9930      9933      9936      9937      9930      9933      9936      9938
      9930      9933      9936      9939      9931      9930      9933      9934
      9931      9930      9933      9935      9931      9930      9933      9936
      9932      9930      9933      9934      9932      9930      9933      9935
      9932      9930      9933      9936      9933      9936      9939      9940
      9933      9936      9939      9941      9933      9936      9939      9942
      9934      9933      9936      9937      9934      9933      9936      9938
      9934      9933      9936      9939      9935      9933      9936      9937
      9935      9933      9936      9938      9935      9933      9936      9939
      9936      9939      9942      9943      9936      9939      9942      9944
      9936      9939      9942      9945      9937      9936      9939      9940
      9937      9936      9939      9941      9937      9936      9939      9942
      9938      9936      9939      9940      9938      9936      9939      9941
      9938      9936      9939      9942      9939      9942      9945      9946
      9939      9942      9945      9947      9939      9942      9945      9948
      9940      9939      9942      9943      9940      9939      9942      9944
      9940      9939      9942      9945      9941      9939      9942      9943
      9941      9939      9942      9944      9941      9939      9942      9945
      9942      9945      9948      9949      9942      9945      9948      9950
      9942      9945      9948      9951      9943      9942      9945      9946
      9943      9942      9945      9947      9943      9942      9945      9948
      9944      9942      9945      9946      9944      9942      9945      9947
      9944      9942      9945      9948      9946      9945      9948      9949
      9946      9945      9948      9950      9946      9945      9948      9951
      9947      9945      9948      9949      9947      9945      9948      9950
      9947      9945      9948      9951      9952      9955      9958      9959
      9952      9955      9958      9960      9952      9955      9958      9961
      9953      9952      9955      9956      9953      9952      9955      9957
      9953      9952      9955      9958      9954      9952      9955      9956
      9954      9952      9955      9957      9954      9952      9955      9958
      9955      9958      9961      9962      9955      9958      9961      9963
      9955      9958      9961      9964      9956      9955      9958      9959
      9956      9955      9958      9960      9956      9955      9958      9961
      9957      9955      9958      9959      9957      9955      9958      9960
      9957      9955      9958      9961      9958      9961      9964      9965
      9958      9961      9964      9966      9958      9961      9964      9967
      9959      9958      9961      9962      9959      9958      9961      9963
      9959      9958      9961      9964      9960      9958      9961      9962
      9960      9958      9961      9963      9960      9958      9961      9964
      9961      9964      9967      9968      9961      9964      9967      9969
      9961      9964      9967      9970      9962      9961      9964      9965
      9962      9961      9964      9966      9962      9961      9964      9967
      9963      9961      9964      9965      9963      9961      9964      9966
      9963      9961      9964      9967      9964      9967      9970      9971
      9964      9967      9970      9972      9964      9967      9970      9973
      9965      9964      9967      9968      9965      9964      9967      9969
      9965      9964      9967      9970      9966      9964      9967      9968
      9966      9964      9967      9969      9966      9964      9967      9970
      9967      9970      9973      9974      9967      9970      9973      9975
      9967      9970      9973      9976      9968      9967      9970      9971
      9968      9967      9970      9972      9968      9967      9970      9973
      9969      9967      9970      9971      9969      9967      9970      9972
      9969      9967      9970      9973      9970      9973      9976      9977
      9970      9973      9976      9978      9970      9973      9976      9979
      9971      9970      9973      9974      9971      9970      9973      9975
      9971      9970      9973      9976      9972      9970      9973      9974
      9972      9970      9973      9975      9972      9970      9973      9976
      9973      9976      9979      9980      9973      9976      9979      9981
      9973      9976      9979      9982      9974      9973      9976      9977
      9974      9973      9976      9978      9974      9973      9976      9979
      9975      9973      9976      9977      9975      9973      9976      9978
      9975      9973      9976      9979      9976      9979      9982      9983
      9976      9979      9982      9984      9976      9979      9982      9985
      9977      9976      9979      9980      9977      9976      9979      9981
      9977      9976      9979      9982      9978      9976      9979      9980
      9978      9976      9979      9981      9978      9976      9979      9982
      9979      9982      9985      9986      9979      9982      9985      9987
      9979      9982      9985      9988      9980      9979      9982      9983
      9980      9979      9982      9984      9980      9979      9982      9985
      9981      9979      9982      9983      9981      9979      9982      9984
      9981      9979      9982      9985      9982      9985      9988      9989
      9982      9985      9988      9990      9982      9985      9988      9991
      9983      9982      9985      9986      9983      9982      9985      9987
      9983      9982      9985      9988      9984      9982      9985      9986
      9984      9982      9985      9987      9984      9982      9985      9988
      9985      9988      9991      9992      9985      9988      9991      9993
      9985      9988      9991      9994      9986      9985      9988      9989
      9986      9985      9988      9990      9986      9985      9988      9991
      9987      9985      9988      9989      9987      9985      9988      9990
      9987      9985      9988      9991      9989      9988      9991      9992
      9989      9988      9991      9993      9989      9988      9991      9994
      9990      9988      9991      9992      9990      9988      9991      9993
      9990      9988      9991      9994      4471      4475      4478      4479
      4471      4475      4478      4480      4471      4475      4478      4485
      4472      4471      4475      4476      4472      4471      4475      4477
      4472      4471      4475      4478      4473      4471      4475      4476
      4473      4471      4475      4477      4473      4471      4475      4478
      4474      4471      4475      4476      4474      4471      4475      4477
      4474      4471      4475      4478      4475      4478      4485      4481
      4476      4475      4478      4479      4476      4475      4478      4480
      4476      4475      4478      4485      4477      4475      4478      4479
      4477      4475      4478      4480      4477      4475      4478      4485
      4478      4485      4481      4482      4478      4485      4481      4483
      4478      4485      4481      4484      4479      4478      4485      4481
      4480      4478      4485      4481      4481      4484      4486      4487
      4481      4484      4486      4488      4481      4484      4486      4489
      4482      4481      4484      4486      4483      4481      4484      4486
      4484      4486      4489      4490      4484      4486      4489      4491
      4484      4486      4489      4497      4485      4481      4484      4486
      4486      4489      4491      4492      4486      4489      4497      4498
      4486      4489      4497      4499      4486      4489      4497      4500
      4487      4486      4489      4490      4487      4486      4489      4491
      4487      4486      4489      4497      4488      4486      4489      4490
      4488      4486      4489      4491      4488      4486      4489      4497
      4489      4491      4492      4493      4489      4491      4492      4494
      4489      4497      4500      4501      4490      4489      4491      4492
      4490      4489      4497      4498      4490      4489      4497      4499
      4490      4489      4497      4500      4491      4489      4497      4498
      4491      4489      4497      4499      4491      4489      4497      4500
      4491      4492      4494      4495      4491      4492      4494      4496
      4491      4492      4494      4506      4492      4491      4489      4497
      4492      4494      4506      4507      4492      4494      4506      4508
      4492      4494      4506      4509      4493      4492      4494      4495
      4493      4492      4494      4496      4493      4492      4494      4506
      4494      4506      4509      4510      4494      4506      4509      4511
      4494      4506      4509      4512      4495      4494      4506      4507
      4495      4494      4506      4508      4495      4494      4506      4509
      4496      4494      4506      4507      4496      4494      4506      4508
      4496      4494      4506      4509      4497      4500      4501      4502
      4497      4500      4501      4503      4498      4497      4500      4501
      4499      4497      4500      4501      4500      4501      4503      4504
      4500      4501      4503      4505      4500      4501      4503      4553
      4501      4503      4553      4554      4501      4503      4553      4555
      4501      4503      4553      4556      4502      4501      4503      4504
      4502      4501      4503      4505      4502      4501      4503      4553
      4503      4553      4556      4557      4503      4553      4556      4558
      4503      4553      4556      4559      4504      4503      4553      4554
      4504      4503      4553      4555      4504      4503      4553      4556
      4505      4503      4553      4554      4505      4503      4553      4555
      4505      4503      4553      4556      4506      4509      4512      4513
      4506      4509      4512      4514      4506      4509      4512      4515
      4507      4506      4509      4510      4507      4506      4509      4511
      4507      4506      4509      4512      4508      4506      4509      4510
      4508      4506      4509      4511      4508      4506      4509      4512
      4509      4512      4515      4516      4509      4512      4515      4517
      4509      4512      4515      4518      4510      4509      4512      4513
      4510      4509      4512      4514      4510      4509      4512      4515
      4511      4509      4512      4513      4511      4509      4512      4514
      4511      4509      4512      4515      4512      4515      4518      4519
      4512      4515      4518      4520      4512      4515      4518      4521
      4513      4512      4515      4516      4513      4512      4515      4517
      4513      4512      4515      4518      4514      4512      4515      4516
      4514      4512      4515      4517      4514      4512      4515      4518
      4515      4518      4521      4522      4515      4518      4521      4523
      4515      4518      4521      4524      4516      4515      4518      4519
      4516      4515      4518      4520      4516      4515      4518      4521
      4517      4515      4518      4519      4517      4515      4518      4520
      4517      4515      4518      4521      4518      4521      4524      4525
      4518      4521      4524      4526      4519      4518      4521      4522
      4519      4518      4521      4523      4519      4518      4521      4524
      4520      4518      4521      4522      4520      4518      4521      4523
      4520      4518      4521      4524      4521      4524      4526      4527
      4521      4524      4526      4528      4522      4521      4524      4525
      4522      4521      4524      4526      4523      4521      4524      4525
      4523      4521      4524      4526      4524      4526      4528      4529
      4524      4526      4528      4530      4524      4526      4528      4531
      4525      4524      4526      4527      4525      4524      4526      4528
      4526      4528      4531      4532      4526      4528      4531      4533
      4526      4528      4531      4534      4527      4526      4528      4529
      4527      4526      4528      4530      4527      4526      4528      4531
      4528      4531      4534      4535      4528      4531      4534      4536
      4528      4531      4534      4537      4529      4528      4531      4532
      4529      4528      4531      4533      4529      4528      4531      4534
      4530      4528      4531      4532      4530      4528      4531      4533
      4530      4528      4531      4534      4531      4534      4537      4538
      4531      4534      4537      4539      4531      4534      4537      4540
      4532      4531      4534      4535      4532      4531      4534      4536
      4532      4531      4534      4537      4533      4531      4534      4535
      4533      4531      4534      4536      4533      4531      4534      4537
      4534      4537      4540      4541      4534      4537      4540      4542
      4534      4537      4540      4543      4535      4534      4537      4538
      4535      4534      4537      4539      4535      4534      4537      4540
      4536      4534      4537      4538      4536      4534      4537      4539
      4536      4534      4537      4540      4537      4540      4543      4544
      4537      4540      4543      4545      4537      4540      4543      4546
      4538      4537      4540      4541      4538      4537      4540      4542
      4538      4537      4540      4543      4539      4537      4540      4541
      4539      4537      4540      4542      4539      4537      4540      4543
      4540      4543      4546      4547      4540      4543      4546      4548
      4540      4543      4546      4549      4541      4540      4543      4544
      4541      4540      4543      4545      4541      4540      4543      4546
      4542      4540      4543      4544      4542      4540      4543      4545
      4542      4540      4543      4546      4543      4546      4549      4550
      4543      4546      4549      4551      4543      4546      4549      4552
      4544      4543      4546      4547      4544      4543      4546      4548
      4544      4543      4546      4549      4545      4543      4546      4547
      4545      4543      4546      4548      4545      4543      4546      4549
      4547      4546      4549      4550      4547      4546      4549      4551
      4547      4546      4549      4552      4548      4546      4549      4550
      4548      4546      4549      4551      4548      4546      4549      4552
      4553      4556      4559      4560      4553      4556      4559      4561
      4553      4556      4559      4562      4554      4553      4556      4557
      4554      4553      4556      4558      4554      4553      4556      4559
      4555      4553      4556      4557      4555      4553      4556      4558
      4555      4553      4556      4559      4556      4559      4562      4563
      4556      4559      4562      4564      4556      4559      4562      4565
      4557      4556      4559      4560      4557      4556      4559      4561
      4557      4556      4559      4562      4558      4556      4559      4560
      4558      4556      4559      4561      4558      4556      4559      4562
      4559      4562      4565      4566      4559      4562      4565      4567
      4559      4562      4565      4568      4560      4559      4562      4563
      4560      4559      4562      4564      4560      4559      4562      4565
      4561      4559      4562      4563      4561      4559      4562      4564
      4561      4559      4562      4565      4562      4565      4568      4569
      4562      4565      4568      4570      4562      4565      4568      4571
      4563      4562      4565      4566      4563      4562      4565      4567
      4563      4562      4565      4568      4564      4562      4565      4566
      4564      4562      4565      4567      4564      4562      4565      4568
      4565      4568      4571      4572      4565      4568      4571      4573
      4565      4568      4571      4574      4566      4565      4568      4569
      4566      4565      4568      4570      4566      4565      4568      4571
      4567      4565      4568      4569      4567      4565      4568      4570
      4567      4565      4568      4571      4568      4571      4574      4575
      4568      4571      4574      4576      4568      4571      4574      4577
      4569      4568      4571      4572      4569      4568      4571      4573
      4569      4568      4571      4574      4570      4568      4571      4572
      4570      4568      4571      4573      4570      4568      4571      4574
      4571      4574      4577      4578      4571      4574      4577      4579
      4571      4574      4577      4580      4572      4571      4574      4575
      4572      4571      4574      4576      4572      4571      4574      4577
      4573      4571      4574      4575      4573      4571      4574      4576
      4573      4571      4574      4577      4574      4577      4580      4581
      4574      4577      4580      4582      4574      4577      4580      4583
      4575      4574      4577      4578      4575      4574      4577      4579
      4575      4574      4577      4580      4576      4574      4577      4578
      4576      4574      4577      4579      4576      4574      4577      4580
      4577      4580      4583      4584      4577      4580      4583      4585
      4577      4580      4583      4586      4578      4577      4580      4581
      4578      4577      4580      4582      4578      4577      4580      4583
      4579      4577      4580      4581      4579      4577      4580      4582
      4579      4577      4580      4583      4580      4583      4586      4587
      4580      4583      4586      4588      4580      4583      4586      4589
      4581      4580      4583      4584      4581      4580      4583      4585
      4581      4580      4583      4586      4582      4580      4583      4584
      4582      4580      4583      4585      4582      4580      4583      4586
      4583      4586      4589      4590      4583      4586      4589      4591
      4583      4586      4589      4592      4584      4583      4586      4587
      4584      4583      4586      4588      4584      4583      4586      4589
      4585      4583      4586      4587      4585      4583      4586      4588
      4585      4583      4586      4589      4586      4589      4592      4593
      4586      4589      4592      4594      4586      4589      4592      4595
      4587      4586      4589      4590      4587      4586      4589      4591
      4587      4586      4589      4592      4588      4586      4589      4590
      4588      4586      4589      4591      4588      4586      4589      4592
      4590      4589      4592      4593      4590      4589      4592      4594
      4590      4589      4592      4595      4591      4589      4592      4593
      4591      4589      4592      4594      4591      4589      4592      4595
     16097     16098     16113     16114     16097     16098     16113     16115
     16097     16098     16113     16119     16098     16097     16101     16102
     16098     16097     16101     16103     16098     16097     16101     16104
     16098     16097     16105     16106     16098     16097     16105     16107
     16098     16097     16105     16108     16098     16097     16109     16110
     16098     16097     16109     16111     16098     16097     16109     16112
     16098     16113     16119     16116     16099     16098     16097     16101
     16099     16098     16097     16105     16099     16098     16097     16109
     16099     16098     16113     16114     16099     16098     16113     16115
     16099     16098     16113     16119     16100     16098     16097     16101
     16100     16098     16097     16105     16100     16098     16097     16109
     16100     16098     16113     16114     16100     16098     16113     16115
     16100     16098     16113     16119     16101     16097     16098     16113
     16101     16097     16105     16106     16101     16097     16105     16107
     16101     16097     16105     16108     16101     16097     16109     16110
     16101     16097     16109     16111     16101     16097     16109     16112
     16102     16101     16097     16105     16102     16101     16097     16109
     16103     16101     16097     16105     16103     16101     16097     16109
     16104     16101     16097     16105     16104     16101     16097     16109
     16105     16097     16098     16113     16105     16097     16109     16110
     16105     16097     16109     16111     16105     16097     16109     16112
     16106     16105     16097     16109     16107     16105     16097     16109
     16108     16105     16097     16109     16109     16097     16098     16113
     16113     16119     16116     16117     16113     16119     16116     16118
     16113     16119     16116     16120     16114     16113     16119     16116
     16115     16113     16119     16116     16116     16120     16121     16122
     16116     16120     16121     16123     16116     16120     16121     16124
     16117     16116     16120     16121     16118     16116     16120     16121
     16119     16116     16120     16121     16120     16121     16124     16125
     16120     16121     16124     16126     16120     16121     16124     16132
     16121     16124     16126     16127     16121     16124     16132     16133
     16121     16124     16132     16134     16121     16124     16132     16135
     16122     16121     16124     16125     16122     16121     16124     16126
     16122     16121     16124     16132     16123     16121     16124     16125
     16123     16121     16124     16126     16123     16121     16124     16132
     16124     16126     16127     16128     16124     16126     16127     16129
     16124     16132     16135     16136     16125     16124     16126     16127
     16125     16124     16132     16133     16125     16124     16132     16134
     16125     16124     16132     16135     16126     16124     16132     16133
     16126     16124     16132     16134     16126     16124     16132     16135
     16126     16127     16129     16130     16126     16127     16129     16131
     16126     16127     16129     16141     16127     16126     16124     16132
     16127     16129     16141     16142     16127     16129     16141     16143
     16127     16129     16141     16144     16128     16127     16129     16130
     16128     16127     16129     16131     16128     16127     16129     16141
     16129     16141     16144     16145     16129     16141     16144     16146
     16129     16141     16144     16147     16130     16129     16141     16142
     16130     16129     16141     16143     16130     16129     16141     16144
     16131     16129     16141     16142     16131     16129     16141     16143
     16131     16129     16141     16144     16132     16135     16136     16137
     16132     16135     16136     16138     16133     16132     16135     16136
     16134     16132     16135     16136     16135     16136     16138     16139
     16135     16136     16138     16140     16135     16136     16138     16188
     16136     16138     16188     16189     16136     16138     16188     16190
     16136     16138     16188     16191     16137     16136     16138     16139
     16137     16136     16138     16140     16137     16136     16138     16188
     16138     16188     16191     16192     16138     16188     16191     16193
     16138     16188     16191     16194     16139     16138     16188     16189
     16139     16138     16188     16190     16139     16138     16188     16191
     16140     16138     16188     16189     16140     16138     16188     16190
     16140     16138     16188     16191     16141     16144     16147     16148
     16141     16144     16147     16149     16141     16144     16147     16150
     16142     16141     16144     16145     16142     16141     16144     16146
     16142     16141     16144     16147     16143     16141     16144     16145
     16143     16141     16144     16146     16143     16141     16144     16147
     16144     16147     16150     16151     16144     16147     16150     16152
     16144     16147     16150     16153     16145     16144     16147     16148
     16145     16144     16147     16149     16145     16144     16147     16150
     16146     16144     16147     16148     16146     16144     16147     16149
     16146     16144     16147     16150     16147     16150     16153     16154
     16147     16150     16153     16155     16147     16150     16153     16156
     16148     16147     16150     16151     16148     16147     16150     16152
     16148     16147     16150     16153     16149     16147     16150     16151
     16149     16147     16150     16152     16149     16147     16150     16153
     16150     16153     16156     16157     16150     16153     16156     16158
     16150     16153     16156     16159     16151     16150     16153     16154
     16151     16150     16153     16155     16151     16150     16153     16156
     16152     16150     16153     16154     16152     16150     16153     16155
     16152     16150     16153     16156     16153     16156     16159     16160
     16153     16156     16159     16161     16154     16153     16156     16157
     16154     16153     16156     16158     16154     16153     16156     16159
     16155     16153     16156     16157     16155     16153     16156     16158
     16155     16153     16156     16159     16156     16159     16161     16162
     16156     16159     16161     16163     16157     16156     16159     16160
     16157     16156     16159     16161     16158     16156     16159     16160
     16158     16156     16159     16161     16159     16161     16163     16164
     16159     16161     16163     16165     16159     16161     16163     16166
     16160     16159     16161     16162     16160     16159     16161     16163
     16161     16163     16166     16167     16161     16163     16166     16168
     16161     16163     16166     16169     16162     16161     16163     16164
     16162     16161     16163     16165     16162     16161     16163     16166
     16163     16166     16169     16170     16163     16166     16169     16171
     16163     16166     16169     16172     16164     16163     16166     16167
     16164     16163     16166     16168     16164     16163     16166     16169
     16165     16163     16166     16167     16165     16163     16166     16168
     16165     16163     16166     16169     16166     16169     16172     16173
     16166     16169     16172     16174     16166     16169     16172     16175
     16167     16166     16169     16170     16167     16166     16169     16171
     16167     16166     16169     16172     16168     16166     16169     16170
     16168     16166     16169     16171     16168     16166     16169     16172
     16169     16172     16175     16176     16169     16172     16175     16177
     16169     16172     16175     16178     16170     16169     16172     16173
     16170     16169     16172     16174     16170     16169     16172     16175
     16171     16169     16172     16173     16171     16169     16172     16174
     16171     16169     16172     16175     16172     16175     16178     16179
     16172     16175     16178     16180     16172     16175     16178     16181
     16173     16172     16175     16176     16173     16172     16175     16177
     16173     16172     16175     16178     16174     16172     16175     16176
     16174     16172     16175     16177     16174     16172     16175     16178
     16175     16178     16181     16182     16175     16178     16181     16183
     16175     16178     16181     16184     16176     16175     16178     16179
     16176     16175     16178     16180     16176     16175     16178     16181
     16177     16175     16178     16179     16177     16175     16178     16180
     16177     16175     16178     16181     16178     16181     16184     16185
     16178     16181     16184     16186     16178     16181     16184     16187
     16179     16178     16181     16182     16179     16178     16181     16183
     16179     16178     16181     16184     16180     16178     16181     16182
     16180     16178     16181     16183     16180     16178     16181     16184
     16182     16181     16184     16185     16182     16181     16184     16186
     16182     16181     16184     16187     16183     16181     16184     16185
     16183     16181     16184     16186     16183     16181     16184     16187
     16188     16191     16194     16195     16188     16191     16194     16196
     16188     16191     16194     16197     16189     16188     16191     16192
     16189     16188     16191     16193     16189     16188     16191     16194
     16190     16188     16191     16192     16190     16188     16191     16193
     16190     16188     16191     16194     16191     16194     16197     16198
     16191     16194     16197     16199     16191     16194     16197     16200
     16192     16191     16194     16195     16192     16191     16194     16196
     16192     16191     16194     16197     16193     16191     16194     16195
     16193     16191     16194     16196     16193     16191     16194     16197
     16194     16197     16200     16201     16194     16197     16200     16202
     16194     16197     16200     16203     16195     16194     16197     16198
     16195     16194     16197     16199     16195     16194     16197     16200
     16196     16194     16197     16198     16196     16194     16197     16199
     16196     16194     16197     16200     16197     16200     16203     16204
     16197     16200     16203     16205     16197     16200     16203     16206
     16198     16197     16200     16201     16198     16197     16200     16202
     16198     16197     16200     16203     16199     16197     16200     16201
     16199     16197     16200     16202     16199     16197     16200     16203
     16200     16203     16206     16207     16200     16203     16206     16208
     16200     16203     16206     16209     16201     16200     16203     16204
     16201     16200     16203     16205     16201     16200     16203     16206
     16202     16200     16203     16204     16202     16200     16203     16205
     16202     16200     16203     16206     16203     16206     16209     16210
     16203     16206     16209     16211     16203     16206     16209     16212
     16204     16203     16206     16207     16204     16203     16206     16208
     16204     16203     16206     16209     16205     16203     16206     16207
     16205     16203     16206     16208     16205     16203     16206     16209
     16206     16209     16212     16213     16206     16209     16212     16214
     16206     16209     16212     16215     16207     16206     16209     16210
     16207     16206     16209     16211     16207     16206     16209     16212
     16208     16206     16209     16210     16208     16206     16209     16211
     16208     16206     16209     16212     16209     16212     16215     16216
     16209     16212     16215     16217     16209     16212     16215     16218
     16210     16209     16212     16213     16210     16209     16212     16214
     16210     16209     16212     16215     16211     16209     16212     16213
     16211     16209     16212     16214     16211     16209     16212     16215
     16212     16215     16218     16219     16212     16215     16218     16220
     16212     16215     16218     16221     16213     16212     16215     16216
     16213     16212     16215     16217     16213     16212     16215     16218
     16214     16212     16215     16216     16214     16212     16215     16217
     16214     16212     16215     16218     16215     16218     16221     16222
     16215     16218     16221     16223     16215     16218     16221     16224
     16216     16215     16218     16219     16216     16215     16218     16220
     16216     16215     16218     16221     16217     16215     16218     16219
     16217     16215     16218     16220     16217     16215     16218     16221
     16218     16221     16224     16225     16218     16221     16224     16226
     16218     16221     16224     16227     16219     16218     16221     16222
     16219     16218     16221     16223     16219     16218     16221     16224
     16220     16218     16221     16222     16220     16218     16221     16223
     16220     16218     16221     16224     16221     16224     16227     16228
     16221     16224     16227     16229     16221     16224     16227     16230
     16222     16221     16224     16225     16222     16221     16224     16226
     16222     16221     16224     16227     16223     16221     16224     16225
     16223     16221     16224     16226     16223     16221     16224     16227
     16225     16224     16227     16228     16225     16224     16227     16229
     16225     16224     16227     16230     16226     16224     16227     16228
     16226     16224     16227     16229     16226     16224     16227     16230
     16231     16232     16247     16248     16231     16232     16247     16249
     16231     16232     16247     16253     16232     16231     16235     16236
     16232     16231     16235     16237     16232     16231     16235     16238
     16232     16231     16239     16240     16232     16231     16239     16241
     16232     16231     16239     16242     16232     16231     16243     16244
     16232     16231     16243     16245     16232     16231     16243     16246
     16232     16247     16253     16250     16233     16232     16231     16235
     16233     16232     16231     16239     16233     16232     16231     16243
     16233     16232     16247     16248     16233     16232     16247     16249
     16233     16232     16247     16253     16234     16232     16231     16235
     16234     16232     16231     16239     16234     16232     16231     16243
     16234     16232     16247     16248     16234     16232     16247     16249
     16234     16232     16247     16253     16235     16231     16232     16247
     16235     16231     16239     16240     16235     16231     16239     16241
     16235     16231     16239     16242     16235     16231     16243     16244
     16235     16231     16243     16245     16235     16231     16243     16246
     16236     16235     16231     16239     16236     16235     16231     16243
     16237     16235     16231     16239     16237     16235     16231     16243
     16238     16235     16231     16239     16238     16235     16231     16243
     16239     16231     16232     16247     16239     16231     16243     16244
     16239     16231     16243     16245     16239     16231     16243     16246
     16240     16239     16231     16243     16241     16239     16231     16243
     16242     16239     16231     16243     16243     16231     16232     16247
     16247     16253     16250     16251     16247     16253     16250     16252
     16247     16253     16250     16254     16248     16247     16253     16250
     16249     16247     16253     16250     16250     16254     16255     16256
     16250     16254     16255     16257     16250     16254     16255     16258
     16251     16250     16254     16255     16252     16250     16254     16255
     16253     16250     16254     16255     16254     16255     16258     16259
     16254     16255     16258     16260     16254     16255     16258     16266
     16255     16258     16260     16261     16255     16258     16266     16267
     16255     16258     16266     16268     16255     16258     16266     16269
     16256     16255     16258     16259     16256     16255     16258     16260
     16256     16255     16258     16266     16257     16255     16258     16259
     16257     16255     16258     16260     16257     16255     16258     16266
     16258     16260     16261     16262     16258     16260     16261     16263
     16258     16266     16269     16270     16259     16258     16260     16261
     16259     16258     16266     16267     16259     16258     16266     16268
     16259     16258     16266     16269     16260     16258     16266     16267
     16260     16258     16266     16268     16260     16258     16266     16269
     16260     16261     16263     16264     16260     16261     16263     16265
     16260     16261     16263     16275     16261     16260     16258     16266
     16261     16263     16275     16276     16261     16263     16275     16277
     16261     16263     16275     16278     16262     16261     16263     16264
     16262     16261     16263     16265     16262     16261     16263     16275
     16263     16275     16278     16279     16263     16275     16278     16280
     16263     16275     16278     16281     16264     16263     16275     16276
     16264     16263     16275     16277     16264     16263     16275     16278
     16265     16263     16275     16276     16265     16263     16275     16277
     16265     16263     16275     16278     16266     16269     16270     16271
     16266     16269     16270     16272     16267     16266     16269     16270
     16268     16266     16269     16270     16269     16270     16272     16273
     16269     16270     16272     16274     16269     16270     16272     16322
     16270     16272     16322     16323     16270     16272     16322     16324
     16270     16272     16322     16325     16271     16270     16272     16273
     16271     16270     16272     16274     16271     16270     16272     16322
     16272     16322     16325     16326     16272     16322     16325     16327
     16272     16322     16325     16328     16273     16272     16322     16323
     16273     16272     16322     16324     16273     16272     16322     16325
     16274     16272     16322     16323     16274     16272     16322     16324
     16274     16272     16322     16325     16275     16278     16281     16282
     16275     16278     16281     16283     16275     16278     16281     16284
     16276     16275     16278     16279     16276     16275     16278     16280
     16276     16275     16278     16281     16277     16275     16278     16279
     16277     16275     16278     16280     16277     16275     16278     16281
     16278     16281     16284     16285     16278     16281     16284     16286
     16278     16281     16284     16287     16279     16278     16281     16282
     16279     16278     16281     16283     16279     16278     16281     16284
     16280     16278     16281     16282     16280     16278     16281     16283
     16280     16278     16281     16284     16281     16284     16287     16288
     16281     16284     16287     16289     16281     16284     16287     16290
     16282     16281     16284     16285     16282     16281     16284     16286
     16282     16281     16284     16287     16283     16281     16284     16285
     16283     16281     16284     16286     16283     16281     16284     16287
     16284     16287     16290     16291     16284     16287     16290     16292
     16284     16287     16290     16293     16285     16284     16287     16288
     16285     16284     16287     16289     16285     16284     16287     16290
     16286     16284     16287     16288     16286     16284     16287     16289
     16286     16284     16287     16290     16287     16290     16293     16294
     16287     16290     16293     16295     16288     16287     16290     16291
     16288     16287     16290     16292     16288     16287     16290     16293
     16289     16287     16290     16291     16289     16287     16290     16292
     16289     16287     16290     16293     16290     16293     16295     16296
     16290     16293     16295     16297     16291     16290     16293     16294
     16291     16290     16293     16295     16292     16290     16293     16294
     16292     16290     16293     16295     16293     16295     16297     16298
     16293     16295     16297     16299     16293     16295     16297     16300
     16294     16293     16295     16296     16294     16293     16295     16297
     16295     16297     16300     16301     16295     16297     16300     16302
     16295     16297     16300     16303     16296     16295     16297     16298
     16296     16295     16297     16299     16296     16295     16297     16300
     16297     16300     16303     16304     16297     16300     16303     16305
     16297     16300     16303     16306     16298     16297     16300     16301
     16298     16297     16300     16302     16298     16297     16300     16303
     16299     16297     16300     16301     16299     16297     16300     16302
     16299     16297     16300     16303     16300     16303     16306     16307
     16300     16303     16306     16308     16300     16303     16306     16309
     16301     16300     16303     16304     16301     16300     16303     16305
     16301     16300     16303     16306     16302     16300     16303     16304
     16302     16300     16303     16305     16302     16300     16303     16306
     16303     16306     16309     16310     16303     16306     16309     16311
     16303     16306     16309     16312     16304     16303     16306     16307
     16304     16303     16306     16308     16304     16303     16306     16309
     16305     16303     16306     16307     16305     16303     16306     16308
     16305     16303     16306     16309     16306     16309     16312     16313
     16306     16309     16312     16314     16306     16309     16312     16315
     16307     16306     16309     16310     16307     16306     16309     16311
     16307     16306     16309     16312     16308     16306     16309     16310
     16308     16306     16309     16311     16308     16306     16309     16312
     16309     16312     16315     16316     16309     16312     16315     16317
     16309     16312     16315     16318     16310     16309     16312     16313
     16310     16309     16312     16314     16310     16309     16312     16315
     16311     16309     16312     16313     16311     16309     16312     16314
     16311     16309     16312     16315     16312     16315     16318     16319
     16312     16315     16318     16320     16312     16315     16318     16321
     16313     16312     16315     16316     16313     16312     16315     16317
     16313     16312     16315     16318     16314     16312     16315     16316
     16314     16312     16315     16317     16314     16312     16315     16318
     16316     16315     16318     16319     16316     16315     16318     16320
     16316     16315     16318     16321     16317     16315     16318     16319
     16317     16315     16318     16320     16317     16315     16318     16321
     16322     16325     16328     16329     16322     16325     16328     16330
     16322     16325     16328     16331     16323     16322     16325     16326
     16323     16322     16325     16327     16323     16322     16325     16328
     16324     16322     16325     16326     16324     16322     16325     16327
     16324     16322     16325     16328     16325     16328     16331     16332
     16325     16328     16331     16333     16325     16328     16331     16334
     16326     16325     16328     16329     16326     16325     16328     16330
     16326     16325     16328     16331     16327     16325     16328     16329
     16327     16325     16328     16330     16327     16325     16328     16331
     16328     16331     16334     16335     16328     16331     16334     16336
     16328     16331     16334     16337     16329     16328     16331     16332
     16329     16328     16331     16333     16329     16328     16331     16334
     16330     16328     16331     16332     16330     16328     16331     16333
     16330     16328     16331     16334     16331     16334     16337     16338
     16331     16334     16337     16339     16331     16334     16337     16340
     16332     16331     16334     16335     16332     16331     16334     16336
     16332     16331     16334     16337     16333     16331     16334     16335
     16333     16331     16334     16336     16333     16331     16334     16337
     16334     16337     16340     16341     16334     16337     16340     16342
     16334     16337     16340     16343     16335     16334     16337     16338
     16335     16334     16337     16339     16335     16334     16337     16340
     16336     16334     16337     16338     16336     16334     16337     16339
     16336     16334     16337     16340     16337     16340     16343     16344
     16337     16340     16343     16345     16337     16340     16343     16346
     16338     16337     16340     16341     16338     16337     16340     16342
     16338     16337     16340     16343     16339     16337     16340     16341
     16339     16337     16340     16342     16339     16337     16340     16343
     16340     16343     16346     16347     16340     16343     16346     16348
     16340     16343     16346     16349     16341     16340     16343     16344
     16341     16340     16343     16345     16341     16340     16343     16346
     16342     16340     16343     16344     16342     16340     16343     16345
     16342     16340     16343     16346     16343     16346     16349     16350
     16343     16346     16349     16351     16343     16346     16349     16352
     16344     16343     16346     16347     16344     16343     16346     16348
     16344     16343     16346     16349     16345     16343     16346     16347
     16345     16343     16346     16348     16345     16343     16346     16349
     16346     16349     16352     16353     16346     16349     16352     16354
     16346     16349     16352     16355     16347     16346     16349     16350
     16347     16346     16349     16351     16347     16346     16349     16352
     16348     16346     16349     16350     16348     16346     16349     16351
     16348     16346     16349     16352     16349     16352     16355     16356
     16349     16352     16355     16357     16349     16352     16355     16358
     16350     16349     16352     16353     16350     16349     16352     16354
     16350     16349     16352     16355     16351     16349     16352     16353
     16351     16349     16352     16354     16351     16349     16352     16355
     16352     16355     16358     16359     16352     16355     16358     16360
     16352     16355     16358     16361     16353     16352     16355     16356
     16353     16352     16355     16357     16353     16352     16355     16358
     16354     16352     16355     16356     16354     16352     16355     16357
     16354     16352     16355     16358     16355     16358     16361     16362
     16355     16358     16361     16363     16355     16358     16361     16364
     16356     16355     16358     16359     16356     16355     16358     16360
     16356     16355     16358     16361     16357     16355     16358     16359
     16357     16355     16358     16360     16357     16355     16358     16361
     16359     16358     16361     16362     16359     16358     16361     16363
     16359     16358     16361     16364     16360     16358     16361     16362
     16360     16358     16361     16363     16360     16358     16361     16364
      9995      9999     10001     10002      9995      9999     10001     10003
      9995      9999     10004     10005      9995      9999     10004     10006
      9995      9999     10004     10010      9996      9995      9999     10000
      9996      9995      9999     10001      9996      9995      9999     10004
      9997      9995      9999     10000      9997      9995      9999     10001
      9997      9995      9999     10004      9998      9995      9999     10000
      9998      9995      9999     10001      9998      9995      9999     10004
      9999     10004     10010     10007     10000      9999     10001     10002
     10000      9999     10001     10003     10000      9999     10004     10005
     10000      9999     10004     10006     10000      9999     10004     10010
     10001      9999     10004     10005     10001      9999     10004     10006
     10001      9999     10004     10010     10002     10001      9999     10004
     10003     10001      9999     10004     10004     10010     10007     10008
     10004     10010     10007     10009     10004     10010     10007     10011
     10005     10004     10010     10007     10006     10004     10010     10007
     10007     10011     10012     10013     10007     10011     10012     10014
     10007     10011     10012     10015     10008     10007     10011     10012
     10009     10007     10011     10012     10010     10007     10011     10012
     10011     10012     10015     10016     10011     10012     10015     10017
     10011     10012     10015     10023     10012     10015     10017     10018
     10012     10015     10023     10024     10012     10015     10023     10025
     10012     10015     10023     10026     10013     10012     10015     10016
     10013     10012     10015     10017     10013     10012     10015     10023
     10014     10012     10015     10016     10014     10012     10015     10017
     10014     10012     10015     10023     10015     10017     10018     10019
     10015     10017     10018     10020     10015     10023     10026     10027
     10016     10015     10017     10018     10016     10015     10023     10024
     10016     10015     10023     10025     10016     10015     10023     10026
     10017     10015     10023     10024     10017     10015     10023     10025
     10017     10015     10023     10026     10017     10018     10020     10021
     10017     10018     10020     10022     10017     10018     10020     10032
     10018     10017     10015     10023     10018     10020     10032     10033
     10018     10020     10032     10034     10018     10020     10032     10035
     10019     10018     10020     10021     10019     10018     10020     10022
     10019     10018     10020     10032     10020     10032     10035     10036
     10020     10032     10035     10037     10020     10032     10035     10038
     10021     10020     10032     10033     10021     10020     10032     10034
     10021     10020     10032     10035     10022     10020     10032     10033
     10022     10020     10032     10034     10022     10020     10032     10035
     10023     10026     10027     10028     10023     10026     10027     10029
     10024     10023     10026     10027     10025     10023     10026     10027
     10026     10027     10029     10030     10026     10027     10029     10031
     10026     10027     10029     10079     10027     10029     10079     10080
     10027     10029     10079     10081     10027     10029     10079     10082
     10028     10027     10029     10030     10028     10027     10029     10031
     10028     10027     10029     10079     10029     10079     10082     10083
     10029     10079     10082     10084     10029     10079     10082     10085
     10030     10029     10079     10080     10030     10029     10079     10081
     10030     10029     10079     10082     10031     10029     10079     10080
     10031     10029     10079     10081     10031     10029     10079     10082
     10032     10035     10038     10039     10032     10035     10038     10040
     10032     10035     10038     10041     10033     10032     10035     10036
     10033     10032     10035     10037     10033     10032     10035     10038
     10034     10032     10035     10036     10034     10032     10035     10037
     10034     10032     10035     10038     10035     10038     10041     10042
     10035     10038     10041     10043     10035     10038     10041     10044
     10036     10035     10038     10039     10036     10035     10038     10040
     10036     10035     10038     10041     10037     10035     10038     10039
     10037     10035     10038     10040     10037     10035     10038     10041
     10038     10041     10044     10045     10038     10041     10044     10046
     10038     10041     10044     10047     10039     10038     10041     10042
     10039     10038     10041     10043     10039     10038     10041     10044
     10040     10038     10041     10042     10040     10038     10041     10043
     10040     10038     10041     10044     10041     10044     10047     10048
     10041     10044     10047     10049     10041     10044     10047     10050
     10042     10041     10044     10045     10042     10041     10044     10046
     10042     10041     10044     10047     10043     10041     10044     10045
     10043     10041     10044     10046     10043     10041     10044     10047
     10044     10047     10050     10051     10044     10047     10050     10052
     10045     10044     10047     10048     10045     10044     10047     10049
     10045     10044     10047     10050     10046     10044     10047     10048
     10046     10044     10047     10049     10046     10044     10047     10050
     10047     10050     10052     10053     10047     10050     10052     10054
     10048     10047     10050     10051     10048     10047     10050     10052
     10049     10047     10050     10051     10049     10047     10050     10052
     10050     10052     10054     10055     10050     10052     10054     10056
     10050     10052     10054     10057     10051     10050     10052     10053
     10051     10050     10052     10054     10052     10054     10057     10058
     10052     10054     10057     10059     10052     10054     10057     10060
     10053     10052     10054     10055     10053     10052     10054     10056
     10053     10052     10054     10057     10054     10057     10060     10061
     10054     10057     10060     10062     10054     10057     10060     10063
     10055     10054     10057     10058     10055     10054     10057     10059
     10055     10054     10057     10060     10056     10054     10057     10058
     10056     10054     10057     10059     10056     10054     10057     10060
     10057     10060     10063     10064     10057     10060     10063     10065
     10057     10060     10063     10066     10058     10057     10060     10061
     10058     10057     10060     10062     10058     10057     10060     10063
     10059     10057     10060     10061     10059     10057     10060     10062
     10059     10057     10060     10063     10060     10063     10066     10067
     10060     10063     10066     10068     10060     10063     10066     10069
     10061     10060     10063     10064     10061     10060     10063     10065
     10061     10060     10063     10066     10062     10060     10063     10064
     10062     10060     10063     10065     10062     10060     10063     10066
     10063     10066     10069     10070     10063     10066     10069     10071
     10063     10066     10069     10072     10064     10063     10066     10067
     10064     10063     10066     10068     10064     10063     10066     10069
     10065     10063     10066     10067     10065     10063     10066     10068
     10065     10063     10066     10069     10066     10069     10072     10073
     10066     10069     10072     10074     10066     10069     10072     10075
     10067     10066     10069     10070     10067     10066     10069     10071
     10067     10066     10069     10072     10068     10066     10069     10070
     10068     10066     10069     10071     10068     10066     10069     10072
     10069     10072     10075     10076     10069     10072     10075     10077
     10069     10072     10075     10078     10070     10069     10072     10073
     10070     10069     10072     10074     10070     10069     10072     10075
     10071     10069     10072     10073     10071     10069     10072     10074
     10071     10069     10072     10075     10073     10072     10075     10076
     10073     10072     10075     10077     10073     10072     10075     10078
     10074     10072     10075     10076     10074     10072     10075     10077
     10074     10072     10075     10078     10079     10082     10085     10086
     10079     10082     10085     10087     10079     10082     10085     10088
     10080     10079     10082     10083     10080     10079     10082     10084
     10080     10079     10082     10085     10081     10079     10082     10083
     10081     10079     10082     10084     10081     10079     10082     10085
     10082     10085     10088     10089     10082     10085     10088     10090
     10082     10085     10088     10091     10083     10082     10085     10086
     10083     10082     10085     10087     10083     10082     10085     10088
     10084     10082     10085     10086     10084     10082     10085     10087
     10084     10082     10085     10088     10085     10088     10091     10092
     10085     10088     10091     10093     10085     10088     10091     10094
     10086     10085     10088     10089     10086     10085     10088     10090
     10086     10085     10088     10091     10087     10085     10088     10089
     10087     10085     10088     10090     10087     10085     10088     10091
     10088     10091     10094     10095     10088     10091     10094     10096
     10088     10091     10094     10097     10089     10088     10091     10092
     10089     10088     10091     10093     10089     10088     10091     10094
     10090     10088     10091     10092     10090     10088     10091     10093
     10090     10088     10091     10094     10091     10094     10097     10098
     10091     10094     10097     10099     10091     10094     10097     10100
     10092     10091     10094     10095     10092     10091     10094     10096
     10092     10091     10094     10097     10093     10091     10094     10095
     10093     10091     10094     10096     10093     10091     10094     10097
     10094     10097     10100     10101     10094     10097     10100     10102
     10094     10097     10100     10103     10095     10094     10097     10098
     10095     10094     10097     10099     10095     10094     10097     10100
     10096     10094     10097     10098     10096     10094     10097     10099
     10096     10094     10097     10100     10097     10100     10103     10104
     10097     10100     10103     10105     10097     10100     10103     10106
     10098     10097     10100     10101     10098     10097     10100     10102
     10098     10097     10100     10103     10099     10097     10100     10101
     10099     10097     10100     10102     10099     10097     10100     10103
     10100     10103     10106     10107     10100     10103     10106     10108
     10100     10103     10106     10109     10101     10100     10103     10104
     10101     10100     10103     10105     10101     10100     10103     10106
     10102     10100     10103     10104     10102     10100     10103     10105
     10102     10100     10103     10106     10103     10106     10109     10110
     10103     10106     10109     10111     10103     10106     10109     10112
     10104     10103     10106     10107     10104     10103     10106     10108
     10104     10103     10106     10109     10105     10103     10106     10107
     10105     10103     10106     10108     10105     10103     10106     10109
     10106     10109     10112     10113     10106     10109     10112     10114
     10106     10109     10112     10115     10107     10106     10109     10110
     10107     10106     10109     10111     10107     10106     10109     10112
     10108     10106     10109     10110     10108     10106     10109     10111
     10108     10106     10109     10112     10109     10112     10115     10116
     10109     10112     10115     10117     10109     10112     10115     10118
     10110     10109     10112     10113     10110     10109     10112     10114
     10110     10109     10112     10115     10111     10109     10112     10113
     10111     10109     10112     10114     10111     10109     10112     10115
     10112     10115     10118     10119     10112     10115     10118     10120
     10112     10115     10118     10121     10113     10112     10115     10116
     10113     10112     10115     10117     10113     10112     10115     10118
     10114     10112     10115     10116     10114     10112     10115     10117
     10114     10112     10115     10118     10116     10115     10118     10119
     10116     10115     10118     10120     10116     10115     10118     10121
     10117     10115     10118     10119     10117     10115     10118     10120
     10117     10115     10118     10121     16365     16366     16381     16382
     16365     16366     16381     16383     16365     16366     16381     16387
     16366     16365     16369     16370     16366     16365     16369     16371
     16366     16365     16369     16372     16366     16365     16373     16374
     16366     16365     16373     16375     16366     16365     16373     16376
     16366     16365     16377     16378     16366     16365     16377     16379
     16366     16365     16377     16380     16366     16381     16387     16384
     16367     16366     16365     16369     16367     16366     16365     16373
     16367     16366     16365     16377     16367     16366     16381     16382
     16367     16366     16381     16383     16367     16366     16381     16387
     16368     16366     16365     16369     16368     16366     16365     16373
     16368     16366     16365     16377     16368     16366     16381     16382
     16368     16366     16381     16383     16368     16366     16381     16387
     16369     16365     16366     16381     16369     16365     16373     16374
     16369     16365     16373     16375     16369     16365     16373     16376
     16369     16365     16377     16378     16369     16365     16377     16379
     16369     16365     16377     16380     16370     16369     16365     16373
     16370     16369     16365     16377     16371     16369     16365     16373
     16371     16369     16365     16377     16372     16369     16365     16373
     16372     16369     16365     16377     16373     16365     16366     16381
     16373     16365     16377     16378     16373     16365     16377     16379
     16373     16365     16377     16380     16374     16373     16365     16377
     16375     16373     16365     16377     16376     16373     16365     16377
     16377     16365     16366     16381     16381     16387     16384     16385
     16381     16387     16384     16386     16381     16387     16384     16388
     16382     16381     16387     16384     16383     16381     16387     16384
     16384     16388     16389     16390     16384     16388     16389     16391
     16384     16388     16389     16392     16385     16384     16388     16389
     16386     16384     16388     16389     16387     16384     16388     16389
     16388     16389     16392     16393     16388     16389     16392     16394
     16388     16389     16392     16400     16389     16392     16394     16395
     16389     16392     16400     16401     16389     16392     16400     16402
     16389     16392     16400     16403     16390     16389     16392     16393
     16390     16389     16392     16394     16390     16389     16392     16400
     16391     16389     16392     16393     16391     16389     16392     16394
     16391     16389     16392     16400     16392     16394     16395     16396
     16392     16394     16395     16397     16392     16400     16403     16404
     16393     16392     16394     16395     16393     16392     16400     16401
     16393     16392     16400     16402     16393     16392     16400     16403
     16394     16392     16400     16401     16394     16392     16400     16402
     16394     16392     16400     16403     16394     16395     16397     16398
     16394     16395     16397     16399     16394     16395     16397     16409
     16395     16394     16392     16400     16395     16397     16409     16410
     16395     16397     16409     16411     16395     16397     16409     16412
     16396     16395     16397     16398     16396     16395     16397     16399
     16396     16395     16397     16409     16397     16409     16412     16413
     16397     16409     16412     16414     16397     16409     16412     16415
     16398     16397     16409     16410     16398     16397     16409     16411
     16398     16397     16409     16412     16399     16397     16409     16410
     16399     16397     16409     16411     16399     16397     16409     16412
     16400     16403     16404     16405     16400     16403     16404     16406
     16401     16400     16403     16404     16402     16400     16403     16404
     16403     16404     16406     16407     16403     16404     16406     16408
     16403     16404     16406     16456     16404     16406     16456     16457
     16404     16406     16456     16458     16404     16406     16456     16459
     16405     16404     16406     16407     16405     16404     16406     16408
     16405     16404     16406     16456     16406     16456     16459     16460
     16406     16456     16459     16461     16406     16456     16459     16462
     16407     16406     16456     16457     16407     16406     16456     16458
     16407     16406     16456     16459     16408     16406     16456     16457
     16408     16406     16456     16458     16408     16406     16456     16459
     16409     16412     16415     16416     16409     16412     16415     16417
     16409     16412     16415     16418     16410     16409     16412     16413
     16410     16409     16412     16414     16410     16409     16412     16415
     16411     16409     16412     16413     16411     16409     16412     16414
     16411     16409     16412     16415     16412     16415     16418     16419
     16412     16415     16418     16420     16412     16415     16418     16421
     16413     16412     16415     16416     16413     16412     16415     16417
     16413     16412     16415     16418     16414     16412     16415     16416
     16414     16412     16415     16417     16414     16412     16415     16418
     16415     16418     16421     16422     16415     16418     16421     16423
     16415     16418     16421     16424     16416     16415     16418     16419
     16416     16415     16418     16420     16416     16415     16418     16421
     16417     16415     16418     16419     16417     16415     16418     16420
     16417     16415     16418     16421     16418     16421     16424     16425
     16418     16421     16424     16426     16418     16421     16424     16427
     16419     16418     16421     16422     16419     16418     16421     16423
     16419     16418     16421     16424     16420     16418     16421     16422
     16420     16418     16421     16423     16420     16418     16421     16424
     16421     16424     16427     16428     16421     16424     16427     16429
     16422     16421     16424     16425     16422     16421     16424     16426
     16422     16421     16424     16427     16423     16421     16424     16425
     16423     16421     16424     16426     16423     16421     16424     16427
     16424     16427     16429     16430     16424     16427     16429     16431
     16425     16424     16427     16428     16425     16424     16427     16429
     16426     16424     16427     16428     16426     16424     16427     16429
     16427     16429     16431     16432     16427     16429     16431     16433
     16427     16429     16431     16434     16428     16427     16429     16430
     16428     16427     16429     16431     16429     16431     16434     16435
     16429     16431     16434     16436     16429     16431     16434     16437
     16430     16429     16431     16432     16430     16429     16431     16433
     16430     16429     16431     16434     16431     16434     16437     16438
     16431     16434     16437     16439     16431     16434     16437     16440
     16432     16431     16434     16435     16432     16431     16434     16436
     16432     16431     16434     16437     16433     16431     16434     16435
     16433     16431     16434     16436     16433     16431     16434     16437
     16434     16437     16440     16441     16434     16437     16440     16442
     16434     16437     16440     16443     16435     16434     16437     16438
     16435     16434     16437     16439     16435     16434     16437     16440
     16436     16434     16437     16438     16436     16434     16437     16439
     16436     16434     16437     16440     16437     16440     16443     16444
     16437     16440     16443     16445     16437     16440     16443     16446
     16438     16437     16440     16441     16438     16437     16440     16442
     16438     16437     16440     16443     16439     16437     16440     16441
     16439     16437     16440     16442     16439     16437     16440     16443
     16440     16443     16446     16447     16440     16443     16446     16448
     16440     16443     16446     16449     16441     16440     16443     16444
     16441     16440     16443     16445     16441     16440     16443     16446
     16442     16440     16443     16444     16442     16440     16443     16445
     16442     16440     16443     16446     16443     16446     16449     16450
     16443     16446     16449     16451     16443     16446     16449     16452
     16444     16443     16446     16447     16444     16443     16446     16448
     16444     16443     16446     16449     16445     16443     16446     16447
     16445     16443     16446     16448     16445     16443     16446     16449
     16446     16449     16452     16453     16446     16449     16452     16454
     16446     16449     16452     16455     16447     16446     16449     16450
     16447     16446     16449     16451     16447     16446     16449     16452
     16448     16446     16449     16450     16448     16446     16449     16451
     16448     16446     16449     16452     16450     16449     16452     16453
     16450     16449     16452     16454     16450     16449     16452     16455
     16451     16449     16452     16453     16451     16449     16452     16454
     16451     16449     16452     16455     16456     16459     16462     16463
     16456     16459     16462     16464     16456     16459     16462     16465
     16457     16456     16459     16460     16457     16456     16459     16461
     16457     16456     16459     16462     16458     16456     16459     16460
     16458     16456     16459     16461     16458     16456     16459     16462
     16459     16462     16465     16466     16459     16462     16465     16467
     16459     16462     16465     16468     16460     16459     16462     16463
     16460     16459     16462     16464     16460     16459     16462     16465
     16461     16459     16462     16463     16461     16459     16462     16464
     16461     16459     16462     16465     16462     16465     16468     16469
     16462     16465     16468     16470     16462     16465     16468     16471
     16463     16462     16465     16466     16463     16462     16465     16467
     16463     16462     16465     16468     16464     16462     16465     16466
     16464     16462     16465     16467     16464     16462     16465     16468
     16465     16468     16471     16472     16465     16468     16471     16473
     16465     16468     16471     16474     16466     16465     16468     16469
     16466     16465     16468     16470     16466     16465     16468     16471
     16467     16465     16468     16469     16467     16465     16468     16470
     16467     16465     16468     16471     16468     16471     16474     16475
     16468     16471     16474     16476     16468     16471     16474     16477
     16469     16468     16471     16472     16469     16468     16471     16473
     16469     16468     16471     16474     16470     16468     16471     16472
     16470     16468     16471     16473     16470     16468     16471     16474
     16471     16474     16477     16478     16471     16474     16477     16479
     16471     16474     16477     16480     16472     16471     16474     16475
     16472     16471     16474     16476     16472     16471     16474     16477
     16473     16471     16474     16475     16473     16471     16474     16476
     16473     16471     16474     16477     16474     16477     16480     16481
     16474     16477     16480     16482     16474     16477     16480     16483
     16475     16474     16477     16478     16475     16474     16477     16479
     16475     16474     16477     16480     16476     16474     16477     16478
     16476     16474     16477     16479     16476     16474     16477     16480
     16477     16480     16483     16484     16477     16480     16483     16485
     16477     16480     16483     16486     16478     16477     16480     16481
     16478     16477     16480     16482     16478     16477     16480     16483
     16479     16477     16480     16481     16479     16477     16480     16482
     16479     16477     16480     16483     16480     16483     16486     16487
     16480     16483     16486     16488     16480     16483     16486     16489
     16481     16480     16483     16484     16481     16480     16483     16485
     16481     16480     16483     16486     16482     16480     16483     16484
     16482     16480     16483     16485     16482     16480     16483     16486
     16483     16486     16489     16490     16483     16486     16489     16491
     16483     16486     16489     16492     16484     16483     16486     16487
     16484     16483     16486     16488     16484     16483     16486     16489
     16485     16483     16486     16487     16485     16483     16486     16488
     16485     16483     16486     16489     16486     16489     16492     16493
     16486     16489     16492     16494     16486     16489     16492     16495
     16487     16486     16489     16490     16487     16486     16489     16491
     16487     16486     16489     16492     16488     16486     16489     16490
     16488     16486     16489     16491     16488     16486     16489     16492
     16489     16492     16495     16496     16489     16492     16495     16497
     16489     16492     16495     16498     16490     16489     16492     16493
     16490     16489     16492     16494     16490     16489     16492     16495
     16491     16489     16492     16493     16491     16489     16492     16494
     16491     16489     16492     16495     16493     16492     16495     16496
     16493     16492     16495     16497     16493     16492     16495     16498
     16494     16492     16495     16496     16494     16492     16495     16497
     16494     16492     16495     16498       815       819       822       823
       815       819       822       853       815       861       858       853
       815       861       858       859       815       861       858       860
       816       815       817       818       816       815       819       820
       816       815       819       821       816       815       819       822
       816       815       861       858       816       815       861       862
       816       815       861       863       817       815       819       820
       817       815       819       821       817       815       819       822
       817       815       861       858       817       815       861       862
       817       815       861       863       818       817       815       819
       818       817       815       861       819       815       861       858
       819       815       861       862       819       815       861       863
       819       822       823       824       819       822       823       825
       819       822       853       851       819       822       853       854
       819       822       853       858       820       819       815       861
       820       819       822       823       820       819       822       853
       821       819       815       861       821       819       822       823
       821       819       822       853       822       819       815       861
       822       823       825       826       822       823       825       827
       822       823       825       828       822       853       851       828
       822       853       851       848       822       853       851       852
       822       853       854       855       822       853       854       856
       822       853       854       857       822       853       858       859
       822       853       858       860       822       853       858       861
       823       822       853       851       823       822       853       854
       823       822       853       858       823       825       828       829
       823       825       828       830       823       825       828       851
       824       823       822       853       824       823       825       826
       824       823       825       827       824       823       825       828
       825       823       822       853       825       828       830       831
       825       828       830       832       825       828       830       840
       825       828       851       848       825       828       851       852
       825       828       851       853       826       825       828       829
       826       825       828       830       826       825       828       851
       827       825       828       829       827       825       828       830
       827       825       828       851       828       830       832       833
       828       830       832       834       828       830       832       835
       828       830       840       838       828       830       840       841
       828       830       840       845       828       851       848       845
       828       851       848       849       828       851       848       850
       828       851       853       854       828       851       853       858
       829       828       830       831       829       828       830       832
       829       828       830       840       829       828       851       848
       829       828       851       852       829       828       851       853
       830       828       851       848       830       828       851       852
       830       828       851       853       830       832       835       836
       830       832       835       837       830       832       835       838
       830       840       838       835       830       840       838       839
       830       840       838       864       830       840       841       842
       830       840       841       843       830       840       841       844
       830       840       845       846       830       840       845       847
       830       840       845       848       831       830       828       851
       831       830       832       833       831       830       832       834
       831       830       832       835       831       830       840       838
       831       830       840       841       831       830       840       845
       832       830       828       851       832       830       840       838
       832       830       840       841       832       830       840       845
       832       835       838       839       832       835       838       840
       832       835       838       864       833       832       830       840
       833       832       835       836       833       832       835       837
       833       832       835       838       834       832       830       840
       834       832       835       836       834       832       835       837
       834       832       835       838       835       832       830       840
       835       838       840       841       835       838       840       845
       835       838       864       865       835       838       864       866
       835       838       864       870       836       835       838       839
       836       835       838       840       836       835       838       864
       837       835       838       839       837       835       838       840
       837       835       838       864       838       840       841       842
       838       840       841       843       838       840       841       844
       838       840       845       846       838       840       845       847
       838       840       845       848       838       864       866       867
       838       864       866       868       838       864       866       869
       838       864       870       871       838       864       870       872
       838       864       870       873       839       838       840       841
       839       838       840       845       839       838       864       865
       839       838       864       866       839       838       864       870
       840       830       828       851       840       838       864       865
       840       838       864       866       840       838       864       870
       840       845       848       849       840       845       848       850
       840       845       848       851       841       840       838       864
       841       840       845       846       841       840       845       847
       841       840       845       848       842       841       840       845
       843       841       840       845       844       841       840       845
       845       840       838       864       845       848       851       852
       845       848       851       853       846       845       848       849
       846       845       848       850       846       845       848       851
       847       845       848       849       847       845       848       850
       847       845       848       851       848       851       853       854
       848       851       853       858       849       848       851       852
       849       848       851       853       850       848       851       852
       850       848       851       853       851       853       854       855
       851       853       854       856       851       853       854       857
       851       853       858       859       851       853       858       860
       851       853       858       861       852       851       853       854
       852       851       853       858       853       858       861       862
       853       858       861       863       854       853       858       859
       854       853       858       860       854       853       858       861
       855       854       853       858       856       854       853       858
       857       854       853       858       859       858       861       862
       859       858       861       863       860       858       861       862
       860       858       861       863       864       870       873       874
       864       870       873       875       864       870       873       876
       865       864       866       867       865       864       866       868
       865       864       866       869       865       864       870       871
       865       864       870       872       865       864       870       873
       866       864       870       871       866       864       870       872
       866       864       870       873       867       866       864       870
       868       866       864       870       869       866       864       870
       870       873       876       877       870       873       876       878
       870       873       876       879       871       870       873       874
       871       870       873       875       871       870       873       876
       872       870       873       874       872       870       873       875
       872       870       873       876       873       876       879       880
       873       876       879       881       873       876       879       885
       874       873       876       877       874       873       876       878
       874       873       876       879       875       873       876       877
       875       873       876       878       875       873       876       879
       876       879       881       882       876       879       881       883
       876       879       881       884       876       879       885       886
       876       879       885       887       876       879       885       888
       877       876       879       880       877       876       879       881
       877       876       879       885       878       876       879       880
       878       876       879       881       878       876       879       885
       880       879       881       882       880       879       881       883
       880       879       881       884       880       879       885       886
       880       879       885       887       880       879       885       888
       881       879       885       886       881       879       885       887
       881       879       885       888       882       881       879       885
       883       881       879       885       884       881       879       885
       889       893       896       897       889       893       896       927
       889       935       932       927       889       935       932       933
       889       935       932       934       890       889       891       892
       890       889       893       894       890       889       893       895
       890       889       893       896       890       889       935       932
       890       889       935       936       890       889       935       937
       891       889       893       894       891       889       893       895
       891       889       893       896       891       889       935       932
       891       889       935       936       891       889       935       937
       892       891       889       893       892       891       889       935
       893       889       935       932       893       889       935       936
       893       889       935       937       893       896       897       898
       893       896       897       899       893       896       927       925
       893       896       927       928       893       896       927       932
       894       893       889       935       894       893       896       897
       894       893       896       927       895       893       889       935
       895       893       896       897       895       893       896       927
       896       893       889       935       896       897       899       900
       896       897       899       901       896       897       899       902
       896       927       925       902       896       927       925       922
       896       927       925       926       896       927       928       929
       896       927       928       930       896       927       928       931
       896       927       932       933       896       927       932       934
       896       927       932       935       897       896       927       925
       897       896       927       928       897       896       927       932
       897       899       902       903       897       899       902       904
       897       899       902       925       898       897       896       927
       898       897       899       900       898       897       899       901
       898       897       899       902       899       897       896       927
       899       902       904       905       899       902       904       906
       899       902       904       914       899       902       925       922
       899       902       925       926       899       902       925       927
       900       899       902       903       900       899       902       904
       900       899       902       925       901       899       902       903
       901       899       902       904       901       899       902       925
       902       904       906       907       902       904       906       908
       902       904       906       909       902       904       914       912
       902       904       914       915       902       904       914       919
       902       925       922       919       902       925       922       923
       902       925       922       924       902       925       927       928
       902       925       927       932       903       902       904       905
       903       902       904       906       903       902       904       914
       903       902       925       922       903       902       925       926
       903       902       925       927       904       902       925       922
       904       902       925       926       904       902       925       927
       904       906       909       910       904       906       909       911
       904       906       909       912       904       914       912       909
       904       914       912       913       904       914       912       938
       904       914       915       916       904       914       915       917
       904       914       915       918       904       914       919       920
       904       914       919       921       904       914       919       922
       905       904       902       925       905       904       906       907
       905       904       906       908       905       904       906       909
       905       904       914       912       905       904       914       915
       905       904       914       919       906       904       902       925
       906       904       914       912       906       904       914       915
       906       904       914       919       906       909       912       913
       906       909       912       914       906       909       912       938
       907       906       904       914       907       906       909       910
       907       906       909       911       907       906       909       912
       908       906       904       914       908       906       909       910
       908       906       909       911       908       906       909       912
       909       906       904       914       909       912       914       915
       909       912       914       919       909       912       938       939
       909       912       938       940       909       912       938       944
       910       909       912       913       910       909       912       914
       910       909       912       938       911       909       912       913
       911       909       912       914       911       909       912       938
       912       914       915       916       912       914       915       917
       912       914       915       918       912       914       919       920
       912       914       919       921       912       914       919       922
       912       938       940       941       912       938       940       942
       912       938       940       943       912       938       944       945
       912       938       944       946       912       938       944       947
       913       912       914       915       913       912       914       919
       913       912       938       939       913       912       938       940
       913       912       938       944       914       904       902       925
       914       912       938       939       914       912       938       940
       914       912       938       944       914       919       922       923
       914       919       922       924       914       919       922       925
       915       914       912       938       915       914       919       920
       915       914       919       921       915       914       919       922
       916       915       914       919       917       915       914       919
       918       915       914       919       919       914       912       938
       919       922       925       926       919       922       925       927
       920       919       922       923       920       919       922       924
       920       919       922       925       921       919       922       923
       921       919       922       924       921       919       922       925
       922       925       927       928       922       925       927       932
       923       922       925       926       923       922       925       927
       924       922       925       926       924       922       925       927
       925       927       928       929       925       927       928       930
       925       927       928       931       925       927       932       933
       925       927       932       934       925       927       932       935
       926       925       927       928       926       925       927       932
       927       932       935       936       927       932       935       937
       928       927       932       933       928       927       932       934
       928       927       932       935       929       928       927       932
       930       928       927       932       931       928       927       932
       933       932       935       936       933       932       935       937
       934       932       935       936       934       932       935       937
       938       944       947       948       938       944       947       949
       938       944       947       950       939       938       940       941
       939       938       940       942       939       938       940       943
       939       938       944       945       939       938       944       946
       939       938       944       947       940       938       944       945
       940       938       944       946       940       938       944       947
       941       940       938       944       942       940       938       944
       943       940       938       944       944       947       950       951
       944       947       950       952       944       947       950       953
       945       944       947       948       945       944       947       949
       945       944       947       950       946       944       947       948
       946       944       947       949       946       944       947       950
       947       950       953       954       947       950       953       955
       947       950       953       959       948       947       950       951
       948       947       950       952       948       947       950       953
       949       947       950       951       949       947       950       952
       949       947       950       953       950       953       955       956
       950       953       955       957       950       953       955       958
       950       953       959       960       950       953       959       961
       950       953       959       962       951       950       953       954
       951       950       953       955       951       950       953       959
       952       950       953       954       952       950       953       955
       952       950       953       959       954       953       955       956
       954       953       955       957       954       953       955       958
       954       953       959       960       954       953       959       961
       954       953       959       962       955       953       959       960
       955       953       959       961       955       953       959       962
       956       955       953       959       957       955       953       959
       958       955       953       959      4596      4600      4603      4604
      4596      4600      4603      4605      4596      4600      4603      4610
      4597      4596      4600      4601      4597      4596      4600      4602
      4597      4596      4600      4603      4598      4596      4600      4601
      4598      4596      4600      4602      4598      4596      4600      4603
      4599      4596      4600      4601      4599      4596      4600      4602
      4599      4596      4600      4603      4600      4603      4610      4606
      4601      4600      4603      4604      4601      4600      4603      4605
      4601      4600      4603      4610      4602      4600      4603      4604
      4602      4600      4603      4605      4602      4600      4603      4610
      4603      4610      4606      4607      4603      4610      4606      4608
      4603      4610      4606      4609      4604      4603      4610      4606
      4605      4603      4610      4606      4606      4609      4611      4612
      4606      4609      4611      4613      4606      4609      4611      4614
      4607      4606      4609      4611      4608      4606      4609      4611
      4609      4611      4614      4615      4609      4611      4614      4616
      4609      4611      4614      4622      4610      4606      4609      4611
      4611      4614      4616      4617      4611      4614      4622      4623
      4611      4614      4622      4624      4611      4614      4622      4625
      4612      4611      4614      4615      4612      4611      4614      4616
      4612      4611      4614      4622      4613      4611      4614      4615
      4613      4611      4614      4616      4613      4611      4614      4622
      4614      4616      4617      4618      4614      4616      4617      4619
      4614      4622      4625      4626      4615      4614      4616      4617
      4615      4614      4622      4623      4615      4614      4622      4624
      4615      4614      4622      4625      4616      4614      4622      4623
      4616      4614      4622      4624      4616      4614      4622      4625
      4616      4617      4619      4620      4616      4617      4619      4621
      4616      4617      4619      4631      4617      4616      4614      4622
      4617      4619      4631      4632      4617      4619      4631      4633
      4617      4619      4631      4634      4618      4617      4619      4620
      4618      4617      4619      4621      4618      4617      4619      4631
      4619      4631      4634      4635      4619      4631      4634      4636
      4619      4631      4634      4637      4620      4619      4631      4632
      4620      4619      4631      4633      4620      4619      4631      4634
      4621      4619      4631      4632      4621      4619      4631      4633
      4621      4619      4631      4634      4622      4625      4626      4627
      4622      4625      4626      4628      4623      4622      4625      4626
      4624      4622      4625      4626      4625      4626      4628      4629
      4625      4626      4628      4630      4625      4626      4628      4678
      4626      4628      4678      4679      4626      4628      4678      4680
      4626      4628      4678      4681      4627      4626      4628      4629
      4627      4626      4628      4630      4627      4626      4628      4678
      4628      4678      4681      4682      4628      4678      4681      4683
      4628      4678      4681      4684      4629      4628      4678      4679
      4629      4628      4678      4680      4629      4628      4678      4681
      4630      4628      4678      4679      4630      4628      4678      4680
      4630      4628      4678      4681      4631      4634      4637      4638
      4631      4634      4637      4639      4631      4634      4637      4640
      4632      4631      4634      4635      4632      4631      4634      4636
      4632      4631      4634      4637      4633      4631      4634      4635
      4633      4631      4634      4636      4633      4631      4634      4637
      4634      4637      4640      4641      4634      4637      4640      4642
      4634      4637      4640      4643      4635      4634      4637      4638
      4635      4634      4637      4639      4635      4634      4637      4640
      4636      4634      4637      4638      4636      4634      4637      4639
      4636      4634      4637      4640      4637      4640      4643      4644
      4637      4640      4643      4645      4637      4640      4643      4646
      4638      4637      4640      4641      4638      4637      4640      4642
      4638      4637      4640      4643      4639      4637      4640      4641
      4639      4637      4640      4642      4639      4637      4640      4643
      4640      4643      4646      4647      4640      4643      4646      4648
      4640      4643      4646      4649      4641      4640      4643      4644
      4641      4640      4643      4645      4641      4640      4643      4646
      4642      4640      4643      4644      4642      4640      4643      4645
      4642      4640      4643      4646      4643      4646      4649      4650
      4643      4646      4649      4651      4644      4643      4646      4647
      4644      4643      4646      4648      4644      4643      4646      4649
      4645      4643      4646      4647      4645      4643      4646      4648
      4645      4643      4646      4649      4646      4649      4651      4652
      4646      4649      4651      4653      4647      4646      4649      4650
      4647      4646      4649      4651      4648      4646      4649      4650
      4648      4646      4649      4651      4649      4651      4653      4654
      4649      4651      4653      4655      4649      4651      4653      4656
      4650      4649      4651      4652      4650      4649      4651      4653
      4651      4653      4656      4657      4651      4653      4656      4658
      4651      4653      4656      4659      4652      4651      4653      4654
      4652      4651      4653      4655      4652      4651      4653      4656
      4653      4656      4659      4660      4653      4656      4659      4661
      4653      4656      4659      4662      4654      4653      4656      4657
      4654      4653      4656      4658      4654      4653      4656      4659
      4655      4653      4656      4657      4655      4653      4656      4658
      4655      4653      4656      4659      4656      4659      4662      4663
      4656      4659      4662      4664      4656      4659      4662      4665
      4657      4656      4659      4660      4657      4656      4659      4661
      4657      4656      4659      4662      4658      4656      4659      4660
      4658      4656      4659      4661      4658      4656      4659      4662
      4659      4662      4665      4666      4659      4662      4665      4667
      4659      4662      4665      4668      4660      4659      4662      4663
      4660      4659      4662      4664      4660      4659      4662      4665
      4661      4659      4662      4663      4661      4659      4662      4664
      4661      4659      4662      4665      4662      4665      4668      4669
      4662      4665      4668      4670      4662      4665      4668      4671
      4663      4662      4665      4666      4663      4662      4665      4667
      4663      4662      4665      4668      4664      4662      4665      4666
      4664      4662      4665      4667      4664      4662      4665      4668
      4665      4668      4671      4672      4665      4668      4671      4673
      4665      4668      4671      4674      4666      4665      4668      4669
      4666      4665      4668      4670      4666      4665      4668      4671
      4667      4665      4668      4669      4667      4665      4668      4670
      4667      4665      4668      4671      4668      4671      4674      4675
      4668      4671      4674      4676      4668      4671      4674      4677
      4669      4668      4671      4672      4669      4668      4671      4673
      4669      4668      4671      4674      4670      4668      4671      4672
      4670      4668      4671      4673      4670      4668      4671      4674
      4672      4671      4674      4675      4672      4671      4674      4676
      4672      4671      4674      4677      4673      4671      4674      4675
      4673      4671      4674      4676      4673      4671      4674      4677
      4678      4681      4684      4685      4678      4681      4684      4686
      4678      4681      4684      4687      4679      4678      4681      4682
      4679      4678      4681      4683      4679      4678      4681      4684
      4680      4678      4681      4682      4680      4678      4681      4683
      4680      4678      4681      4684      4681      4684      4687      4688
      4681      4684      4687      4689      4681      4684      4687      4690
      4682      4681      4684      4685      4682      4681      4684      4686
      4682      4681      4684      4687      4683      4681      4684      4685
      4683      4681      4684      4686      4683      4681      4684      4687
      4684      4687      4690      4691      4684      4687      4690      4692
      4684      4687      4690      4693      4685      4684      4687      4688
      4685      4684      4687      4689      4685      4684      4687      4690
      4686      4684      4687      4688      4686      4684      4687      4689
      4686      4684      4687      4690      4687      4690      4693      4694
      4687      4690      4693      4695      4687      4690      4693      4696
      4688      4687      4690      4691      4688      4687      4690      4692
      4688      4687      4690      4693      4689      4687      4690      4691
      4689      4687      4690      4692      4689      4687      4690      4693
      4690      4693      4696      4697      4690      4693      4696      4698
      4690      4693      4696      4699      4691      4690      4693      4694
      4691      4690      4693      4695      4691      4690      4693      4696
      4692      4690      4693      4694      4692      4690      4693      4695
      4692      4690      4693      4696      4693      4696      4699      4700
      4693      4696      4699      4701      4693      4696      4699      4702
      4694      4693      4696      4697      4694      4693      4696      4698
      4694      4693      4696      4699      4695      4693      4696      4697
      4695      4693      4696      4698      4695      4693      4696      4699
      4696      4699      4702      4703      4696      4699      4702      4704
      4696      4699      4702      4705      4697      4696      4699      4700
      4697      4696      4699      4701      4697      4696      4699      4702
      4698      4696      4699      4700      4698      4696      4699      4701
      4698      4696      4699      4702      4699      4702      4705      4706
      4699      4702      4705      4707      4699      4702      4705      4708
      4700      4699      4702      4703      4700      4699      4702      4704
      4700      4699      4702      4705      4701      4699      4702      4703
      4701      4699      4702      4704      4701      4699      4702      4705
      4702      4705      4708      4709      4702      4705      4708      4710
      4702      4705      4708      4711      4703      4702      4705      4706
      4703      4702      4705      4707      4703      4702      4705      4708
      4704      4702      4705      4706      4704      4702      4705      4707
      4704      4702      4705      4708      4705      4708      4711      4712
      4705      4708      4711      4713      4705      4708      4711      4714
      4706      4705      4708      4709      4706      4705      4708      4710
      4706      4705      4708      4711      4707      4705      4708      4709
      4707      4705      4708      4710      4707      4705      4708      4711
      4708      4711      4714      4715      4708      4711      4714      4716
      4708      4711      4714      4717      4709      4708      4711      4712
      4709      4708      4711      4713      4709      4708      4711      4714
      4710      4708      4711      4712      4710      4708      4711      4713
      4710      4708      4711      4714      4711      4714      4717      4718
      4711      4714      4717      4719      4711      4714      4717      4720
      4712      4711      4714      4715      4712      4711      4714      4716
      4712      4711      4714      4717      4713      4711      4714      4715
      4713      4711      4714      4716      4713      4711      4714      4717
      4715      4714      4717      4718      4715      4714      4717      4719
      4715      4714      4717      4720      4716      4714      4717      4718
      4716      4714      4717      4719      4716      4714      4717      4720
     21865     21869     21871     21872     21865     21869     21873     21874
     21865     21869     21873     21875     21865     21869     21873     21877
     21865     21885     21881     21877     21865     21885     21881     21882
     21865     21885     21881     21883     21865     21885     21890     21887
     21866     21865     21867     21868     21866     21865     21869     21870
     21866     21865     21869     21871     21866     21865     21869     21873
     21866     21865     21885     21881     21866     21865     21885     21886
     21866     21865     21885     21890     21867     21865     21869     21870
     21867     21865     21869     21871     21867     21865     21869     21873
     21867     21865     21885     21881     21867     21865     21885     21886
     21867     21865     21885     21890     21868     21867     21865     21869
     21868     21867     21865     21885     21869     21865     21885     21881
     21869     21865     21885     21886     21869     21865     21885     21890
     21869     21873     21875     21876     21869     21873     21877     21878
     21869     21873     21877     21879     21869     21873     21877     21881
     21870     21869     21865     21885     21870     21869     21871     21872
     21870     21869     21873     21874     21870     21869     21873     21875
     21870     21869     21873     21877     21871     21869     21865     21885
     21871     21869     21873     21874     21871     21869     21873     21875
     21871     21869     21873     21877     21872     21871     21869     21873
     21873     21869     21865     21885     21873     21877     21879     21880
     21873     21877     21881     21882     21873     21877     21881     21883
     21873     21877     21881     21885     21874     21873     21875     21876
     21874     21873     21877     21878     21874     21873     21877     21879
     21874     21873     21877     21881     21875     21873     21877     21878
     21875     21873     21877     21879     21875     21873     21877     21881
     21876     21875     21873     21877     21877     21881     21883     21884
     21877     21881     21885     21886     21877     21881     21885     21890
     21878     21877     21879     21880     21878     21877     21881     21882
     21878     21877     21881     21883     21878     21877     21881     21885
     21879     21877     21881     21882     21879     21877     21881     21883
     21879     21877     21881     21885     21880     21879     21877     21881
     21881     21885     21890     21887     21882     21881     21883     21884
     21882     21881     21885     21886     21882     21881     21885     21890
     21883     21881     21885     21886     21883     21881     21885     21890
     21884     21883     21881     21885     21885     21890     21887     21888
     21885     21890     21887     21889     21885     21890     21887     21891
     21886     21885     21890     21887     21887     21891     21892     21893
     21887     21891     21892     21894     21887     21891     21892     21895
     21888     21887     21891     21892     21889     21887     21891     21892
     21890     21887     21891     21892     21891     21892     21895     21896
     21891     21892     21895     21897     21891     21892     21895     21903
     21892     21895     21897     21898     21892     21895     21903     21904
     21892     21895     21903     21905     21892     21895     21903     21906
     21893     21892     21895     21896     21893     21892     21895     21897
     21893     21892     21895     21903     21894     21892     21895     21896
     21894     21892     21895     21897     21894     21892     21895     21903
     21895     21897     21898     21899     21895     21897     21898     21900
     21895     21903     21906     21907     21896     21895     21897     21898
     21896     21895     21903     21904     21896     21895     21903     21905
     21896     21895     21903     21906     21897     21895     21903     21904
     21897     21895     21903     21905     21897     21895     21903     21906
     21897     21898     21900     21901     21897     21898     21900     21902
     21897     21898     21900     21912     21898     21897     21895     21903
     21898     21900     21912     21913     21898     21900     21912     21914
     21898     21900     21912     21915     21899     21898     21900     21901
     21899     21898     21900     21902     21899     21898     21900     21912
     21900     21912     21915     21916     21900     21912     21915     21917
     21900     21912     21915     21918     21901     21900     21912     21913
     21901     21900     21912     21914     21901     21900     21912     21915
     21902     21900     21912     21913     21902     21900     21912     21914
     21902     21900     21912     21915     21903     21906     21907     21908
     21903     21906     21907     21909     21904     21903     21906     21907
     21905     21903     21906     21907     21906     21907     21909     21910
     21906     21907     21909     21911     21906     21907     21909     21959
     21907     21909     21959     21960     21907     21909     21959     21961
     21907     21909     21959     21962     21908     21907     21909     21910
     21908     21907     21909     21911     21908     21907     21909     21959
     21909     21959     21962     21963     21909     21959     21962     21964
     21909     21959     21962     21965     21910     21909     21959     21960
     21910     21909     21959     21961     21910     21909     21959     21962
     21911     21909     21959     21960     21911     21909     21959     21961
     21911     21909     21959     21962     21912     21915     21918     21919
     21912     21915     21918     21920     21912     21915     21918     21921
     21913     21912     21915     21916     21913     21912     21915     21917
     21913     21912     21915     21918     21914     21912     21915     21916
     21914     21912     21915     21917     21914     21912     21915     21918
     21915     21918     21921     21922     21915     21918     21921     21923
     21915     21918     21921     21924     21916     21915     21918     21919
     21916     21915     21918     21920     21916     21915     21918     21921
     21917     21915     21918     21919     21917     21915     21918     21920
     21917     21915     21918     21921     21918     21921     21924     21925
     21918     21921     21924     21926     21918     21921     21924     21927
     21919     21918     21921     21922     21919     21918     21921     21923
     21919     21918     21921     21924     21920     21918     21921     21922
     21920     21918     21921     21923     21920     21918     21921     21924
     21921     21924     21927     21928     21921     21924     21927     21929
     21921     21924     21927     21930     21922     21921     21924     21925
     21922     21921     21924     21926     21922     21921     21924     21927
     21923     21921     21924     21925     21923     21921     21924     21926
     21923     21921     21924     21927     21924     21927     21930     21931
     21924     21927     21930     21932     21925     21924     21927     21928
     21925     21924     21927     21929     21925     21924     21927     21930
     21926     21924     21927     21928     21926     21924     21927     21929
     21926     21924     21927     21930     21927     21930     21932     21933
     21927     21930     21932     21934     21928     21927     21930     21931
     21928     21927     21930     21932     21929     21927     21930     21931
     21929     21927     21930     21932     21930     21932     21934     21935
     21930     21932     21934     21936     21930     21932     21934     21937
     21931     21930     21932     21933     21931     21930     21932     21934
     21932     21934     21937     21938     21932     21934     21937     21939
     21932     21934     21937     21940     21933     21932     21934     21935
     21933     21932     21934     21936     21933     21932     21934     21937
     21934     21937     21940     21941     21934     21937     21940     21942
     21934     21937     21940     21943     21935     21934     21937     21938
     21935     21934     21937     21939     21935     21934     21937     21940
     21936     21934     21937     21938     21936     21934     21937     21939
     21936     21934     21937     21940     21937     21940     21943     21944
     21937     21940     21943     21945     21937     21940     21943     21946
     21938     21937     21940     21941     21938     21937     21940     21942
     21938     21937     21940     21943     21939     21937     21940     21941
     21939     21937     21940     21942     21939     21937     21940     21943
     21940     21943     21946     21947     21940     21943     21946     21948
     21940     21943     21946     21949     21941     21940     21943     21944
     21941     21940     21943     21945     21941     21940     21943     21946
     21942     21940     21943     21944     21942     21940     21943     21945
     21942     21940     21943     21946     21943     21946     21949     21950
     21943     21946     21949     21951     21943     21946     21949     21952
     21944     21943     21946     21947     21944     21943     21946     21948
     21944     21943     21946     21949     21945     21943     21946     21947
     21945     21943     21946     21948     21945     21943     21946     21949
     21946     21949     21952     21953     21946     21949     21952     21954
     21946     21949     21952     21955     21947     21946     21949     21950
     21947     21946     21949     21951     21947     21946     21949     21952
     21948     21946     21949     21950     21948     21946     21949     21951
     21948     21946     21949     21952     21949     21952     21955     21956
     21949     21952     21955     21957     21949     21952     21955     21958
     21950     21949     21952     21953     21950     21949     21952     21954
     21950     21949     21952     21955     21951     21949     21952     21953
     21951     21949     21952     21954     21951     21949     21952     21955
     21953     21952     21955     21956     21953     21952     21955     21957
     21953     21952     21955     21958     21954     21952     21955     21956
     21954     21952     21955     21957     21954     21952     21955     21958
     21959     21962     21965     21966     21959     21962     21965     21967
     21959     21962     21965     21968     21960     21959     21962     21963
     21960     21959     21962     21964     21960     21959     21962     21965
     21961     21959     21962     21963     21961     21959     21962     21964
     21961     21959     21962     21965     21962     21965     21968     21969
     21962     21965     21968     21970     21962     21965     21968     21971
     21963     21962     21965     21966     21963     21962     21965     21967
     21963     21962     21965     21968     21964     21962     21965     21966
     21964     21962     21965     21967     21964     21962     21965     21968
     21965     21968     21971     21972     21965     21968     21971     21973
     21965     21968     21971     21974     21966     21965     21968     21969
     21966     21965     21968     21970     21966     21965     21968     21971
     21967     21965     21968     21969     21967     21965     21968     21970
     21967     21965     21968     21971     21968     21971     21974     21975
     21968     21971     21974     21976     21968     21971     21974     21977
     21969     21968     21971     21972     21969     21968     21971     21973
     21969     21968     21971     21974     21970     21968     21971     21972
     21970     21968     21971     21973     21970     21968     21971     21974
     21971     21974     21977     21978     21971     21974     21977     21979
     21971     21974     21977     21980     21972     21971     21974     21975
     21972     21971     21974     21976     21972     21971     21974     21977
     21973     21971     21974     21975     21973     21971     21974     21976
     21973     21971     21974     21977     21974     21977     21980     21981
     21974     21977     21980     21982     21974     21977     21980     21983
     21975     21974     21977     21978     21975     21974     21977     21979
     21975     21974     21977     21980     21976     21974     21977     21978
     21976     21974     21977     21979     21976     21974     21977     21980
     21977     21980     21983     21984     21977     21980     21983     21985
     21977     21980     21983     21986     21978     21977     21980     21981
     21978     21977     21980     21982     21978     21977     21980     21983
     21979     21977     21980     21981     21979     21977     21980     21982
     21979     21977     21980     21983     21980     21983     21986     21987
     21980     21983     21986     21988     21980     21983     21986     21989
     21981     21980     21983     21984     21981     21980     21983     21985
     21981     21980     21983     21986     21982     21980     21983     21984
     21982     21980     21983     21985     21982     21980     21983     21986
     21983     21986     21989     21990     21983     21986     21989     21991
     21983     21986     21989     21992     21984     21983     21986     21987
     21984     21983     21986     21988     21984     21983     21986     21989
     21985     21983     21986     21987     21985     21983     21986     21988
     21985     21983     21986     21989     21986     21989     21992     21993
     21986     21989     21992     21994     21986     21989     21992     21995
     21987     21986     21989     21990     21987     21986     21989     21991
     21987     21986     21989     21992     21988     21986     21989     21990
     21988     21986     21989     21991     21988     21986     21989     21992
     21989     21992     21995     21996     21989     21992     21995     21997
     21989     21992     21995     21998     21990     21989     21992     21993
     21990     21989     21992     21994     21990     21989     21992     21995
     21991     21989     21992     21993     21991     21989     21992     21994
     21991     21989     21992     21995     21992     21995     21998     21999
     21992     21995     21998     22000     21992     21995     21998     22001
     21993     21992     21995     21996     21993     21992     21995     21997
     21993     21992     21995     21998     21994     21992     21995     21996
     21994     21992     21995     21997     21994     21992     21995     21998
     21996     21995     21998     21999     21996     21995     21998     22000
     21996     21995     21998     22001     21997     21995     21998     21999
     21997     21995     21998     22000     21997     21995     21998     22001
      4721      4725      4728      4729      4721      4725      4728      4730
      4721      4725      4728      4735      4722      4721      4725      4726
      4722      4721      4725      4727      4722      4721      4725      4728
      4723      4721      4725      4726      4723      4721      4725      4727
      4723      4721      4725      4728      4724      4721      4725      4726
      4724      4721      4725      4727      4724      4721      4725      4728
      4725      4728      4735      4731      4726      4725      4728      4729
      4726      4725      4728      4730      4726      4725      4728      4735
      4727      4725      4728      4729      4727      4725      4728      4730
      4727      4725      4728      4735      4728      4735      4731      4732
      4728      4735      4731      4733      4728      4735      4731      4734
      4729      4728      4735      4731      4730      4728      4735      4731
      4731      4734      4736      4737      4731      4734      4736      4738
      4731      4734      4736      4739      4732      4731      4734      4736
      4733      4731      4734      4736      4734      4736      4739      4740
      4734      4736      4739      4741      4734      4736      4739      4747
      4735      4731      4734      4736      4736      4739      4741      4742
      4736      4739      4747      4748      4736      4739      4747      4749
      4736      4739      4747      4750      4737      4736      4739      4740
      4737      4736      4739      4741      4737      4736      4739      4747
      4738      4736      4739      4740      4738      4736      4739      4741
      4738      4736      4739      4747      4739      4741      4742      4743
      4739      4741      4742      4744      4739      4747      4750      4751
      4740      4739      4741      4742      4740      4739      4747      4748
      4740      4739      4747      4749      4740      4739      4747      4750
      4741      4739      4747      4748      4741      4739      4747      4749
      4741      4739      4747      4750      4741      4742      4744      4745
      4741      4742      4744      4746      4741      4742      4744      4756
      4742      4741      4739      4747      4742      4744      4756      4757
      4742      4744      4756      4758      4742      4744      4756      4759
      4743      4742      4744      4745      4743      4742      4744      4746
      4743      4742      4744      4756      4744      4756      4759      4760
      4744      4756      4759      4761      4744      4756      4759      4762
      4745      4744      4756      4757      4745      4744      4756      4758
      4745      4744      4756      4759      4746      4744      4756      4757
      4746      4744      4756      4758      4746      4744      4756      4759
      4747      4750      4751      4752      4747      4750      4751      4753
      4748      4747      4750      4751      4749      4747      4750      4751
      4750      4751      4753      4754      4750      4751      4753      4755
      4750      4751      4753      4803      4751      4753      4803      4804
      4751      4753      4803      4805      4751      4753      4803      4806
      4752      4751      4753      4754      4752      4751      4753      4755
      4752      4751      4753      4803      4753      4803      4806      4807
      4753      4803      4806      4808      4753      4803      4806      4809
      4754      4753      4803      4804      4754      4753      4803      4805
      4754      4753      4803      4806      4755      4753      4803      4804
      4755      4753      4803      4805      4755      4753      4803      4806
      4756      4759      4762      4763      4756      4759      4762      4764
      4756      4759      4762      4765      4757      4756      4759      4760
      4757      4756      4759      4761      4757      4756      4759      4762
      4758      4756      4759      4760      4758      4756      4759      4761
      4758      4756      4759      4762      4759      4762      4765      4766
      4759      4762      4765      4767      4759      4762      4765      4768
      4760      4759      4762      4763      4760      4759      4762      4764
      4760      4759      4762      4765      4761      4759      4762      4763
      4761      4759      4762      4764      4761      4759      4762      4765
      4762      4765      4768      4769      4762      4765      4768      4770
      4762      4765      4768      4771      4763      4762      4765      4766
      4763      4762      4765      4767      4763      4762      4765      4768
      4764      4762      4765      4766      4764      4762      4765      4767
      4764      4762      4765      4768      4765      4768      4771      4772
      4765      4768      4771      4773      4765      4768      4771      4774
      4766      4765      4768      4769      4766      4765      4768      4770
      4766      4765      4768      4771      4767      4765      4768      4769
      4767      4765      4768      4770      4767      4765      4768      4771
      4768      4771      4774      4775      4768      4771      4774      4776
      4769      4768      4771      4772      4769      4768      4771      4773
      4769      4768      4771      4774      4770      4768      4771      4772
      4770      4768      4771      4773      4770      4768      4771      4774
      4771      4774      4776      4777      4771      4774      4776      4778
      4772      4771      4774      4775      4772      4771      4774      4776
      4773      4771      4774      4775      4773      4771      4774      4776
      4774      4776      4778      4779      4774      4776      4778      4780
      4774      4776      4778      4781      4775      4774      4776      4777
      4775      4774      4776      4778      4776      4778      4781      4782
      4776      4778      4781      4783      4776      4778      4781      4784
      4777      4776      4778      4779      4777      4776      4778      4780
      4777      4776      4778      4781      4778      4781      4784      4785
      4778      4781      4784      4786      4778      4781      4784      4787
      4779      4778      4781      4782      4779      4778      4781      4783
      4779      4778      4781      4784      4780      4778      4781      4782
      4780      4778      4781      4783      4780      4778      4781      4784
      4781      4784      4787      4788      4781      4784      4787      4789
      4781      4784      4787      4790      4782      4781      4784      4785
      4782      4781      4784      4786      4782      4781      4784      4787
      4783      4781      4784      4785      4783      4781      4784      4786
      4783      4781      4784      4787      4784      4787      4790      4791
      4784      4787      4790      4792      4784      4787      4790      4793
      4785      4784      4787      4788      4785      4784      4787      4789
      4785      4784      4787      4790      4786      4784      4787      4788
      4786      4784      4787      4789      4786      4784      4787      4790
      4787      4790      4793      4794      4787      4790      4793      4795
      4787      4790      4793      4796      4788      4787      4790      4791
      4788      4787      4790      4792      4788      4787      4790      4793
      4789      4787      4790      4791      4789      4787      4790      4792
      4789      4787      4790      4793      4790      4793      4796      4797
      4790      4793      4796      4798      4790      4793      4796      4799
      4791      4790      4793      4794      4791      4790      4793      4795
      4791      4790      4793      4796      4792      4790      4793      4794
      4792      4790      4793      4795      4792      4790      4793      4796
      4793      4796      4799      4800      4793      4796      4799      4801
      4793      4796      4799      4802      4794      4793      4796      4797
      4794      4793      4796      4798      4794      4793      4796      4799
      4795      4793      4796      4797      4795      4793      4796      4798
      4795      4793      4796      4799      4797      4796      4799      4800
      4797      4796      4799      4801      4797      4796      4799      4802
      4798      4796      4799      4800      4798      4796      4799      4801
      4798      4796      4799      4802      4803      4806      4809      4810
      4803      4806      4809      4811      4803      4806      4809      4812
      4804      4803      4806      4807      4804      4803      4806      4808
      4804      4803      4806      4809      4805      4803      4806      4807
      4805      4803      4806      4808      4805      4803      4806      4809
      4806      4809      4812      4813      4806      4809      4812      4814
      4806      4809      4812      4815      4807      4806      4809      4810
      4807      4806      4809      4811      4807      4806      4809      4812
      4808      4806      4809      4810      4808      4806      4809      4811
      4808      4806      4809      4812      4809      4812      4815      4816
      4809      4812      4815      4817      4809      4812      4815      4818
      4810      4809      4812      4813      4810      4809      4812      4814
      4810      4809      4812      4815      4811      4809      4812      4813
      4811      4809      4812      4814      4811      4809      4812      4815
      4812      4815      4818      4819      4812      4815      4818      4820
      4812      4815      4818      4821      4813      4812      4815      4816
      4813      4812      4815      4817      4813      4812      4815      4818
      4814      4812      4815      4816      4814      4812      4815      4817
      4814      4812      4815      4818      4815      4818      4821      4822
      4815      4818      4821      4823      4815      4818      4821      4824
      4816      4815      4818      4819      4816      4815      4818      4820
      4816      4815      4818      4821      4817      4815      4818      4819
      4817      4815      4818      4820      4817      4815      4818      4821
      4818      4821      4824      4825      4818      4821      4824      4826
      4818      4821      4824      4827      4819      4818      4821      4822
      4819      4818      4821      4823      4819      4818      4821      4824
      4820      4818      4821      4822      4820      4818      4821      4823
      4820      4818      4821      4824      4821      4824      4827      4828
      4821      4824      4827      4829      4821      4824      4827      4830
      4822      4821      4824      4825      4822      4821      4824      4826
      4822      4821      4824      4827      4823      4821      4824      4825
      4823      4821      4824      4826      4823      4821      4824      4827
      4824      4827      4830      4831      4824      4827      4830      4832
      4824      4827      4830      4833      4825      4824      4827      4828
      4825      4824      4827      4829      4825      4824      4827      4830
      4826      4824      4827      4828      4826      4824      4827      4829
      4826      4824      4827      4830      4827      4830      4833      4834
      4827      4830      4833      4835      4827      4830      4833      4836
      4828      4827      4830      4831      4828      4827      4830      4832
      4828      4827      4830      4833      4829      4827      4830      4831
      4829      4827      4830      4832      4829      4827      4830      4833
      4830      4833      4836      4837      4830      4833      4836      4838
      4830      4833      4836      4839      4831      4830      4833      4834
      4831      4830      4833      4835      4831      4830      4833      4836
      4832      4830      4833      4834      4832      4830      4833      4835
      4832      4830      4833      4836      4833      4836      4839      4840
      4833      4836      4839      4841      4833      4836      4839      4842
      4834      4833      4836      4837      4834      4833      4836      4838
      4834      4833      4836      4839      4835      4833      4836      4837
      4835      4833      4836      4838      4835      4833      4836      4839
      4836      4839      4842      4843      4836      4839      4842      4844
      4836      4839      4842      4845      4837      4836      4839      4840
      4837      4836      4839      4841      4837      4836      4839      4842
      4838      4836      4839      4840      4838      4836      4839      4841
      4838      4836      4839      4842      4840      4839      4842      4843
      4840      4839      4842      4844      4840      4839      4842      4845
      4841      4839      4842      4843      4841      4839      4842      4844
      4841      4839      4842      4845      4846      4850      4853      4854
      4846      4850      4853      4855      4846      4850      4853      4860
      4847      4846      4850      4851      4847      4846      4850      4852
      4847      4846      4850      4853      4848      4846      4850      4851
      4848      4846      4850      4852      4848      4846      4850      4853
      4849      4846      4850      4851      4849      4846      4850      4852
      4849      4846      4850      4853      4850      4853      4860      4856
      4851      4850      4853      4854      4851      4850      4853      4855
      4851      4850      4853      4860      4852      4850      4853      4854
      4852      4850      4853      4855      4852      4850      4853      4860
      4853      4860      4856      4857      4853      4860      4856      4858
      4853      4860      4856      4859      4854      4853      4860      4856
      4855      4853      4860      4856      4856      4859      4861      4862
      4856      4859      4861      4863      4856      4859      4861      4864
      4857      4856      4859      4861      4858      4856      4859      4861
      4859      4861      4864      4865      4859      4861      4864      4866
      4859      4861      4864      4872      4860      4856      4859      4861
      4861      4864      4866      4867      4861      4864      4872      4873
      4861      4864      4872      4874      4861      4864      4872      4875
      4862      4861      4864      4865      4862      4861      4864      4866
      4862      4861      4864      4872      4863      4861      4864      4865
      4863      4861      4864      4866      4863      4861      4864      4872
      4864      4866      4867      4868      4864      4866      4867      4869
      4864      4872      4875      4876      4865      4864      4866      4867
      4865      4864      4872      4873      4865      4864      4872      4874
      4865      4864      4872      4875      4866      4864      4872      4873
      4866      4864      4872      4874      4866      4864      4872      4875
      4866      4867      4869      4870      4866      4867      4869      4871
      4866      4867      4869      4881      4867      4866      4864      4872
      4867      4869      4881      4882      4867      4869      4881      4883
      4867      4869      4881      4884      4868      4867      4869      4870
      4868      4867      4869      4871      4868      4867      4869      4881
      4869      4881      4884      4885      4869      4881      4884      4886
      4869      4881      4884      4887      4870      4869      4881      4882
      4870      4869      4881      4883      4870      4869      4881      4884
      4871      4869      4881      4882      4871      4869      4881      4883
      4871      4869      4881      4884      4872      4875      4876      4877
      4872      4875      4876      4878      4873      4872      4875      4876
      4874      4872      4875      4876      4875      4876      4878      4879
      4875      4876      4878      4880      4875      4876      4878      4928
      4876      4878      4928      4929      4876      4878      4928      4930
      4876      4878      4928      4931      4877      4876      4878      4879
      4877      4876      4878      4880      4877      4876      4878      4928
      4878      4928      4931      4932      4878      4928      4931      4933
      4878      4928      4931      4934      4879      4878      4928      4929
      4879      4878      4928      4930      4879      4878      4928      4931
      4880      4878      4928      4929      4880      4878      4928      4930
      4880      4878      4928      4931      4881      4884      4887      4888
      4881      4884      4887      4889      4881      4884      4887      4890
      4882      4881      4884      4885      4882      4881      4884      4886
      4882      4881      4884      4887      4883      4881      4884      4885
      4883      4881      4884      4886      4883      4881      4884      4887
      4884      4887      4890      4891      4884      4887      4890      4892
      4884      4887      4890      4893      4885      4884      4887      4888
      4885      4884      4887      4889      4885      4884      4887      4890
      4886      4884      4887      4888      4886      4884      4887      4889
      4886      4884      4887      4890      4887      4890      4893      4894
      4887      4890      4893      4895      4887      4890      4893      4896
      4888      4887      4890      4891      4888      4887      4890      4892
      4888      4887      4890      4893      4889      4887      4890      4891
      4889      4887      4890      4892      4889      4887      4890      4893
      4890      4893      4896      4897      4890      4893      4896      4898
      4890      4893      4896      4899      4891      4890      4893      4894
      4891      4890      4893      4895      4891      4890      4893      4896
      4892      4890      4893      4894      4892      4890      4893      4895
      4892      4890      4893      4896      4893      4896      4899      4900
      4893      4896      4899      4901      4894      4893      4896      4897
      4894      4893      4896      4898      4894      4893      4896      4899
      4895      4893      4896      4897      4895      4893      4896      4898
      4895      4893      4896      4899      4896      4899      4901      4902
      4896      4899      4901      4903      4897      4896      4899      4900
      4897      4896      4899      4901      4898      4896      4899      4900
      4898      4896      4899      4901      4899      4901      4903      4904
      4899      4901      4903      4905      4899      4901      4903      4906
      4900      4899      4901      4902      4900      4899      4901      4903
      4901      4903      4906      4907      4901      4903      4906      4908
      4901      4903      4906      4909      4902      4901      4903      4904
      4902      4901      4903      4905      4902      4901      4903      4906
      4903      4906      4909      4910      4903      4906      4909      4911
      4903      4906      4909      4912      4904      4903      4906      4907
      4904      4903      4906      4908      4904      4903      4906      4909
      4905      4903      4906      4907      4905      4903      4906      4908
      4905      4903      4906      4909      4906      4909      4912      4913
      4906      4909      4912      4914      4906      4909      4912      4915
      4907      4906      4909      4910      4907      4906      4909      4911
      4907      4906      4909      4912      4908      4906      4909      4910
      4908      4906      4909      4911      4908      4906      4909      4912
      4909      4912      4915      4916      4909      4912      4915      4917
      4909      4912      4915      4918      4910      4909      4912      4913
      4910      4909      4912      4914      4910      4909      4912      4915
      4911      4909      4912      4913      4911      4909      4912      4914
      4911      4909      4912      4915      4912      4915      4918      4919
      4912      4915      4918      4920      4912      4915      4918      4921
      4913      4912      4915      4916      4913      4912      4915      4917
      4913      4912      4915      4918      4914      4912      4915      4916
      4914      4912      4915      4917      4914      4912      4915      4918
      4915      4918      4921      4922      4915      4918      4921      4923
      4915      4918      4921      4924      4916      4915      4918      4919
      4916      4915      4918      4920      4916      4915      4918      4921
      4917      4915      4918      4919      4917      4915      4918      4920
      4917      4915      4918      4921      4918      4921      4924      4925
      4918      4921      4924      4926      4918      4921      4924      4927
      4919      4918      4921      4922      4919      4918      4921      4923
      4919      4918      4921      4924      4920      4918      4921      4922
      4920      4918      4921      4923      4920      4918      4921      4924
      4922      4921      4924      4925      4922      4921      4924      4926
      4922      4921      4924      4927      4923      4921      4924      4925
      4923      4921      4924      4926      4923      4921      4924      4927
      4928      4931      4934      4935      4928      4931      4934      4936
      4928      4931      4934      4937      4929      4928      4931      4932
      4929      4928      4931      4933      4929      4928      4931      4934
      4930      4928      4931      4932      4930      4928      4931      4933
      4930      4928      4931      4934      4931      4934      4937      4938
      4931      4934      4937      4939      4931      4934      4937      4940
      4932      4931      4934      4935      4932      4931      4934      4936
      4932      4931      4934      4937      4933      4931      4934      4935
      4933      4931      4934      4936      4933      4931      4934      4937
      4934      4937      4940      4941      4934      4937      4940      4942
      4934      4937      4940      4943      4935      4934      4937      4938
      4935      4934      4937      4939      4935      4934      4937      4940
      4936      4934      4937      4938      4936      4934      4937      4939
      4936      4934      4937      4940      4937      4940      4943      4944
      4937      4940      4943      4945      4937      4940      4943      4946
      4938      4937      4940      4941      4938      4937      4940      4942
      4938      4937      4940      4943      4939      4937      4940      4941
      4939      4937      4940      4942      4939      4937      4940      4943
      4940      4943      4946      4947      4940      4943      4946      4948
      4940      4943      4946      4949      4941      4940      4943      4944
      4941      4940      4943      4945      4941      4940      4943      4946
      4942      4940      4943      4944      4942      4940      4943      4945
      4942      4940      4943      4946      4943      4946      4949      4950
      4943      4946      4949      4951      4943      4946      4949      4952
      4944      4943      4946      4947      4944      4943      4946      4948
      4944      4943      4946      4949      4945      4943      4946      4947
      4945      4943      4946      4948      4945      4943      4946      4949
      4946      4949      4952      4953      4946      4949      4952      4954
      4946      4949      4952      4955      4947      4946      4949      4950
      4947      4946      4949      4951      4947      4946      4949      4952
      4948      4946      4949      4950      4948      4946      4949      4951
      4948      4946      4949      4952      4949      4952      4955      4956
      4949      4952      4955      4957      4949      4952      4955      4958
      4950      4949      4952      4953      4950      4949      4952      4954
      4950      4949      4952      4955      4951      4949      4952      4953
      4951      4949      4952      4954      4951      4949      4952      4955
      4952      4955      4958      4959      4952      4955      4958      4960
      4952      4955      4958      4961      4953      4952      4955      4956
      4953      4952      4955      4957      4953      4952      4955      4958
      4954      4952      4955      4956      4954      4952      4955      4957
      4954      4952      4955      4958      4955      4958      4961      4962
      4955      4958      4961      4963      4955      4958      4961      4964
      4956      4955      4958      4959      4956      4955      4958      4960
      4956      4955      4958      4961      4957      4955      4958      4959
      4957      4955      4958      4960      4957      4955      4958      4961
      4958      4961      4964      4965      4958      4961      4964      4966
      4958      4961      4964      4967      4959      4958      4961      4962
      4959      4958      4961      4963      4959      4958      4961      4964
      4960      4958      4961      4962      4960      4958      4961      4963
      4960      4958      4961      4964      4961      4964      4967      4968
      4961      4964      4967      4969      4961      4964      4967      4970
      4962      4961      4964      4965      4962      4961      4964      4966
      4962      4961      4964      4967      4963      4961      4964      4965
      4963      4961      4964      4966      4963      4961      4964      4967
      4965      4964      4967      4968      4965      4964      4967      4969
      4965      4964      4967      4970      4966      4964      4967      4968
      4966      4964      4967      4969      4966      4964      4967      4970
     10122     10126     10128     10129     10122     10126     10128     10130
     10122     10126     10131     10132     10122     10126     10131     10133
     10122     10126     10131     10137     10123     10122     10126     10127
     10123     10122     10126     10128     10123     10122     10126     10131
     10124     10122     10126     10127     10124     10122     10126     10128
     10124     10122     10126     10131     10125     10122     10126     10127
     10125     10122     10126     10128     10125     10122     10126     10131
     10126     10131     10137     10134     10127     10126     10128     10129
     10127     10126     10128     10130     10127     10126     10131     10132
     10127     10126     10131     10133     10127     10126     10131     10137
     10128     10126     10131     10132     10128     10126     10131     10133
     10128     10126     10131     10137     10129     10128     10126     10131
     10130     10128     10126     10131     10131     10137     10134     10135
     10131     10137     10134     10136     10131     10137     10134     10138
     10132     10131     10137     10134     10133     10131     10137     10134
     10134     10138     10139     10140     10134     10138     10139     10141
     10134     10138     10139     10142     10135     10134     10138     10139
     10136     10134     10138     10139     10137     10134     10138     10139
     10138     10139     10142     10143     10138     10139     10142     10144
     10138     10139     10142     10150     10139     10142     10144     10145
     10139     10142     10150     10151     10139     10142     10150     10152
     10139     10142     10150     10153     10140     10139     10142     10143
     10140     10139     10142     10144     10140     10139     10142     10150
     10141     10139     10142     10143     10141     10139     10142     10144
     10141     10139     10142     10150     10142     10144     10145     10146
     10142     10144     10145     10147     10142     10150     10153     10154
     10143     10142     10144     10145     10143     10142     10150     10151
     10143     10142     10150     10152     10143     10142     10150     10153
     10144     10142     10150     10151     10144     10142     10150     10152
     10144     10142     10150     10153     10144     10145     10147     10148
     10144     10145     10147     10149     10144     10145     10147     10159
     10145     10144     10142     10150     10145     10147     10159     10160
     10145     10147     10159     10161     10145     10147     10159     10162
     10146     10145     10147     10148     10146     10145     10147     10149
     10146     10145     10147     10159     10147     10159     10162     10163
     10147     10159     10162     10164     10147     10159     10162     10165
     10148     10147     10159     10160     10148     10147     10159     10161
     10148     10147     10159     10162     10149     10147     10159     10160
     10149     10147     10159     10161     10149     10147     10159     10162
     10150     10153     10154     10155     10150     10153     10154     10156
     10151     10150     10153     10154     10152     10150     10153     10154
     10153     10154     10156     10157     10153     10154     10156     10158
     10153     10154     10156     10206     10154     10156     10206     10207
     10154     10156     10206     10208     10154     10156     10206     10209
     10155     10154     10156     10157     10155     10154     10156     10158
     10155     10154     10156     10206     10156     10206     10209     10210
     10156     10206     10209     10211     10156     10206     10209     10212
     10157     10156     10206     10207     10157     10156     10206     10208
     10157     10156     10206     10209     10158     10156     10206     10207
     10158     10156     10206     10208     10158     10156     10206     10209
     10159     10162     10165     10166     10159     10162     10165     10167
     10159     10162     10165     10168     10160     10159     10162     10163
     10160     10159     10162     10164     10160     10159     10162     10165
     10161     10159     10162     10163     10161     10159     10162     10164
     10161     10159     10162     10165     10162     10165     10168     10169
     10162     10165     10168     10170     10162     10165     10168     10171
     10163     10162     10165     10166     10163     10162     10165     10167
     10163     10162     10165     10168     10164     10162     10165     10166
     10164     10162     10165     10167     10164     10162     10165     10168
     10165     10168     10171     10172     10165     10168     10171     10173
     10165     10168     10171     10174     10166     10165     10168     10169
     10166     10165     10168     10170     10166     10165     10168     10171
     10167     10165     10168     10169     10167     10165     10168     10170
     10167     10165     10168     10171     10168     10171     10174     10175
     10168     10171     10174     10176     10168     10171     10174     10177
     10169     10168     10171     10172     10169     10168     10171     10173
     10169     10168     10171     10174     10170     10168     10171     10172
     10170     10168     10171     10173     10170     10168     10171     10174
     10171     10174     10177     10178     10171     10174     10177     10179
     10172     10171     10174     10175     10172     10171     10174     10176
     10172     10171     10174     10177     10173     10171     10174     10175
     10173     10171     10174     10176     10173     10171     10174     10177
     10174     10177     10179     10180     10174     10177     10179     10181
     10175     10174     10177     10178     10175     10174     10177     10179
     10176     10174     10177     10178     10176     10174     10177     10179
     10177     10179     10181     10182     10177     10179     10181     10183
     10177     10179     10181     10184     10178     10177     10179     10180
     10178     10177     10179     10181     10179     10181     10184     10185
     10179     10181     10184     10186     10179     10181     10184     10187
     10180     10179     10181     10182     10180     10179     10181     10183
     10180     10179     10181     10184     10181     10184     10187     10188
     10181     10184     10187     10189     10181     10184     10187     10190
     10182     10181     10184     10185     10182     10181     10184     10186
     10182     10181     10184     10187     10183     10181     10184     10185
     10183     10181     10184     10186     10183     10181     10184     10187
     10184     10187     10190     10191     10184     10187     10190     10192
     10184     10187     10190     10193     10185     10184     10187     10188
     10185     10184     10187     10189     10185     10184     10187     10190
     10186     10184     10187     10188     10186     10184     10187     10189
     10186     10184     10187     10190     10187     10190     10193     10194
     10187     10190     10193     10195     10187     10190     10193     10196
     10188     10187     10190     10191     10188     10187     10190     10192
     10188     10187     10190     10193     10189     10187     10190     10191
     10189     10187     10190     10192     10189     10187     10190     10193
     10190     10193     10196     10197     10190     10193     10196     10198
     10190     10193     10196     10199     10191     10190     10193     10194
     10191     10190     10193     10195     10191     10190     10193     10196
     10192     10190     10193     10194     10192     10190     10193     10195
     10192     10190     10193     10196     10193     10196     10199     10200
     10193     10196     10199     10201     10193     10196     10199     10202
     10194     10193     10196     10197     10194     10193     10196     10198
     10194     10193     10196     10199     10195     10193     10196     10197
     10195     10193     10196     10198     10195     10193     10196     10199
     10196     10199     10202     10203     10196     10199     10202     10204
     10196     10199     10202     10205     10197     10196     10199     10200
     10197     10196     10199     10201     10197     10196     10199     10202
     10198     10196     10199     10200     10198     10196     10199     10201
     10198     10196     10199     10202     10200     10199     10202     10203
     10200     10199     10202     10204     10200     10199     10202     10205
     10201     10199     10202     10203     10201     10199     10202     10204
     10201     10199     10202     10205     10206     10209     10212     10213
     10206     10209     10212     10214     10206     10209     10212     10215
     10207     10206     10209     10210     10207     10206     10209     10211
     10207     10206     10209     10212     10208     10206     10209     10210
     10208     10206     10209     10211     10208     10206     10209     10212
     10209     10212     10215     10216     10209     10212     10215     10217
     10209     10212     10215     10218     10210     10209     10212     10213
     10210     10209     10212     10214     10210     10209     10212     10215
     10211     10209     10212     10213     10211     10209     10212     10214
     10211     10209     10212     10215     10212     10215     10218     10219
     10212     10215     10218     10220     10212     10215     10218     10221
     10213     10212     10215     10216     10213     10212     10215     10217
     10213     10212     10215     10218     10214     10212     10215     10216
     10214     10212     10215     10217     10214     10212     10215     10218
     10215     10218     10221     10222     10215     10218     10221     10223
     10215     10218     10221     10224     10216     10215     10218     10219
     10216     10215     10218     10220     10216     10215     10218     10221
     10217     10215     10218     10219     10217     10215     10218     10220
     10217     10215     10218     10221     10218     10221     10224     10225
     10218     10221     10224     10226     10218     10221     10224     10227
     10219     10218     10221     10222     10219     10218     10221     10223
     10219     10218     10221     10224     10220     10218     10221     10222
     10220     10218     10221     10223     10220     10218     10221     10224
     10221     10224     10227     10228     10221     10224     10227     10229
     10221     10224     10227     10230     10222     10221     10224     10225
     10222     10221     10224     10226     10222     10221     10224     10227
     10223     10221     10224     10225     10223     10221     10224     10226
     10223     10221     10224     10227     10224     10227     10230     10231
     10224     10227     10230     10232     10224     10227     10230     10233
     10225     10224     10227     10228     10225     10224     10227     10229
     10225     10224     10227     10230     10226     10224     10227     10228
     10226     10224     10227     10229     10226     10224     10227     10230
     10227     10230     10233     10234     10227     10230     10233     10235
     10227     10230     10233     10236     10228     10227     10230     10231
     10228     10227     10230     10232     10228     10227     10230     10233
     10229     10227     10230     10231     10229     10227     10230     10232
     10229     10227     10230     10233     10230     10233     10236     10237
     10230     10233     10236     10238     10230     10233     10236     10239
     10231     10230     10233     10234     10231     10230     10233     10235
     10231     10230     10233     10236     10232     10230     10233     10234
     10232     10230     10233     10235     10232     10230     10233     10236
     10233     10236     10239     10240     10233     10236     10239     10241
     10233     10236     10239     10242     10234     10233     10236     10237
     10234     10233     10236     10238     10234     10233     10236     10239
     10235     10233     10236     10237     10235     10233     10236     10238
     10235     10233     10236     10239     10236     10239     10242     10243
     10236     10239     10242     10244     10236     10239     10242     10245
     10237     10236     10239     10240     10237     10236     10239     10241
     10237     10236     10239     10242     10238     10236     10239     10240
     10238     10236     10239     10241     10238     10236     10239     10242
     10239     10242     10245     10246     10239     10242     10245     10247
     10239     10242     10245     10248     10240     10239     10242     10243
     10240     10239     10242     10244     10240     10239     10242     10245
     10241     10239     10242     10243     10241     10239     10242     10244
     10241     10239     10242     10245     10243     10242     10245     10246
     10243     10242     10245     10247     10243     10242     10245     10248
     10244     10242     10245     10246     10244     10242     10245     10247
     10244     10242     10245     10248      4971      4975      4978      4979
      4971      4975      4978      4980      4971      4975      4978      4985
      4972      4971      4975      4976      4972      4971      4975      4977
      4972      4971      4975      4978      4973      4971      4975      4976
      4973      4971      4975      4977      4973      4971      4975      4978
      4974      4971      4975      4976      4974      4971      4975      4977
      4974      4971      4975      4978      4975      4978      4985      4981
      4976      4975      4978      4979      4976      4975      4978      4980
      4976      4975      4978      4985      4977      4975      4978      4979
      4977      4975      4978      4980      4977      4975      4978      4985
      4978      4985      4981      4982      4978      4985      4981      4983
      4978      4985      4981      4984      4979      4978      4985      4981
      4980      4978      4985      4981      4981      4984      4986      4987
      4981      4984      4986      4988      4981      4984      4986      4989
      4982      4981      4984      4986      4983      4981      4984      4986
      4984      4986      4989      4990      4984      4986      4989      4991
      4984      4986      4989      4997      4985      4981      4984      4986
      4986      4989      4991      4992      4986      4989      4997      4998
      4986      4989      4997      4999      4986      4989      4997      5000
      4987      4986      4989      4990      4987      4986      4989      4991
      4987      4986      4989      4997      4988      4986      4989      4990
      4988      4986      4989      4991      4988      4986      4989      4997
      4989      4991      4992      4993      4989      4991      4992      4994
      4989      4997      5000      5001      4990      4989      4991      4992
      4990      4989      4997      4998      4990      4989      4997      4999
      4990      4989      4997      5000      4991      4989      4997      4998
      4991      4989      4997      4999      4991      4989      4997      5000
      4991      4992      4994      4995      4991      4992      4994      4996
      4991      4992      4994      5006      4992      4991      4989      4997
      4992      4994      5006      5007      4992      4994      5006      5008
      4992      4994      5006      5009      4993      4992      4994      4995
      4993      4992      4994      4996      4993      4992      4994      5006
      4994      5006      5009      5010      4994      5006      5009      5011
      4994      5006      5009      5012      4995      4994      5006      5007
      4995      4994      5006      5008      4995      4994      5006      5009
      4996      4994      5006      5007      4996      4994      5006      5008
      4996      4994      5006      5009      4997      5000      5001      5002
      4997      5000      5001      5003      4998      4997      5000      5001
      4999      4997      5000      5001      5000      5001      5003      5004
      5000      5001      5003      5005      5000      5001      5003      5053
      5001      5003      5053      5054      5001      5003      5053      5055
      5001      5003      5053      5056      5002      5001      5003      5004
      5002      5001      5003      5005      5002      5001      5003      5053
      5003      5053      5056      5057      5003      5053      5056      5058
      5003      5053      5056      5059      5004      5003      5053      5054
      5004      5003      5053      5055      5004      5003      5053      5056
      5005      5003      5053      5054      5005      5003      5053      5055
      5005      5003      5053      5056      5006      5009      5012      5013
      5006      5009      5012      5014      5006      5009      5012      5015
      5007      5006      5009      5010      5007      5006      5009      5011
      5007      5006      5009      5012      5008      5006      5009      5010
      5008      5006      5009      5011      5008      5006      5009      5012
      5009      5012      5015      5016      5009      5012      5015      5017
      5009      5012      5015      5018      5010      5009      5012      5013
      5010      5009      5012      5014      5010      5009      5012      5015
      5011      5009      5012      5013      5011      5009      5012      5014
      5011      5009      5012      5015      5012      5015      5018      5019
      5012      5015      5018      5020      5012      5015      5018      5021
      5013      5012      5015      5016      5013      5012      5015      5017
      5013      5012      5015      5018      5014      5012      5015      5016
      5014      5012      5015      5017      5014      5012      5015      5018
      5015      5018      5021      5022      5015      5018      5021      5023
      5015      5018      5021      5024      5016      5015      5018      5019
      5016      5015      5018      5020      5016      5015      5018      5021
      5017      5015      5018      5019      5017      5015      5018      5020
      5017      5015      5018      5021      5018      5021      5024      5025
      5018      5021      5024      5026      5019      5018      5021      5022
      5019      5018      5021      5023      5019      5018      5021      5024
      5020      5018      5021      5022      5020      5018      5021      5023
      5020      5018      5021      5024      5021      5024      5026      5027
      5021      5024      5026      5028      5022      5021      5024      5025
      5022      5021      5024      5026      5023      5021      5024      5025
      5023      5021      5024      5026      5024      5026      5028      5029
      5024      5026      5028      5030      5024      5026      5028      5031
      5025      5024      5026      5027      5025      5024      5026      5028
      5026      5028      5031      5032      5026      5028      5031      5033
      5026      5028      5031      5034      5027      5026      5028      5029
      5027      5026      5028      5030      5027      5026      5028      5031
      5028      5031      5034      5035      5028      5031      5034      5036
      5028      5031      5034      5037      5029      5028      5031      5032
      5029      5028      5031      5033      5029      5028      5031      5034
      5030      5028      5031      5032      5030      5028      5031      5033
      5030      5028      5031      5034      5031      5034      5037      5038
      5031      5034      5037      5039      5031      5034      5037      5040
      5032      5031      5034      5035      5032      5031      5034      5036
      5032      5031      5034      5037      5033      5031      5034      5035
      5033      5031      5034      5036      5033      5031      5034      5037
      5034      5037      5040      5041      5034      5037      5040      5042
      5034      5037      5040      5043      5035      5034      5037      5038
      5035      5034      5037      5039      5035      5034      5037      5040
      5036      5034      5037      5038      5036      5034      5037      5039
      5036      5034      5037      5040      5037      5040      5043      5044
      5037      5040      5043      5045      5037      5040      5043      5046
      5038      5037      5040      5041      5038      5037      5040      5042
      5038      5037      5040      5043      5039      5037      5040      5041
      5039      5037      5040      5042      5039      5037      5040      5043
      5040      5043      5046      5047      5040      5043      5046      5048
      5040      5043      5046      5049      5041      5040      5043      5044
      5041      5040      5043      5045      5041      5040      5043      5046
      5042      5040      5043      5044      5042      5040      5043      5045
      5042      5040      5043      5046      5043      5046      5049      5050
      5043      5046      5049      5051      5043      5046      5049      5052
      5044      5043      5046      5047      5044      5043      5046      5048
      5044      5043      5046      5049      5045      5043      5046      5047
      5045      5043      5046      5048      5045      5043      5046      5049
      5047      5046      5049      5050      5047      5046      5049      5051
      5047      5046      5049      5052      5048      5046      5049      5050
      5048      5046      5049      5051      5048      5046      5049      5052
      5053      5056      5059      5060      5053      5056      5059      5061
      5053      5056      5059      5062      5054      5053      5056      5057
      5054      5053      5056      5058      5054      5053      5056      5059
      5055      5053      5056      5057      5055      5053      5056      5058
      5055      5053      5056      5059      5056      5059      5062      5063
      5056      5059      5062      5064      5056      5059      5062      5065
      5057      5056      5059      5060      5057      5056      5059      5061
      5057      5056      5059      5062      5058      5056      5059      5060
      5058      5056      5059      5061      5058      5056      5059      5062
      5059      5062      5065      5066      5059      5062      5065      5067
      5059      5062      5065      5068      5060      5059      5062      5063
      5060      5059      5062      5064      5060      5059      5062      5065
      5061      5059      5062      5063      5061      5059      5062      5064
      5061      5059      5062      5065      5062      5065      5068      5069
      5062      5065      5068      5070      5062      5065      5068      5071
      5063      5062      5065      5066      5063      5062      5065      5067
      5063      5062      5065      5068      5064      5062      5065      5066
      5064      5062      5065      5067      5064      5062      5065      5068
      5065      5068      5071      5072      5065      5068      5071      5073
      5065      5068      5071      5074      5066      5065      5068      5069
      5066      5065      5068      5070      5066      5065      5068      5071
      5067      5065      5068      5069      5067      5065      5068      5070
      5067      5065      5068      5071      5068      5071      5074      5075
      5068      5071      5074      5076      5068      5071      5074      5077
      5069      5068      5071      5072      5069      5068      5071      5073
      5069      5068      5071      5074      5070      5068      5071      5072
      5070      5068      5071      5073      5070      5068      5071      5074
      5071      5074      5077      5078      5071      5074      5077      5079
      5071      5074      5077      5080      5072      5071      5074      5075
      5072      5071      5074      5076      5072      5071      5074      5077
      5073      5071      5074      5075      5073      5071      5074      5076
      5073      5071      5074      5077      5074      5077      5080      5081
      5074      5077      5080      5082      5074      5077      5080      5083
      5075      5074      5077      5078      5075      5074      5077      5079
      5075      5074      5077      5080      5076      5074      5077      5078
      5076      5074      5077      5079      5076      5074      5077      5080
      5077      5080      5083      5084      5077      5080      5083      5085
      5077      5080      5083      5086      5078      5077      5080      5081
      5078      5077      5080      5082      5078      5077      5080      5083
      5079      5077      5080      5081      5079      5077      5080      5082
      5079      5077      5080      5083      5080      5083      5086      5087
      5080      5083      5086      5088      5080      5083      5086      5089
      5081      5080      5083      5084      5081      5080      5083      5085
      5081      5080      5083      5086      5082      5080      5083      5084
      5082      5080      5083      5085      5082      5080      5083      5086
      5083      5086      5089      5090      5083      5086      5089      5091
      5083      5086      5089      5092      5084      5083      5086      5087
      5084      5083      5086      5088      5084      5083      5086      5089
      5085      5083      5086      5087      5085      5083      5086      5088
      5085      5083      5086      5089      5086      5089      5092      5093
      5086      5089      5092      5094      5086      5089      5092      5095
      5087      5086      5089      5090      5087      5086      5089      5091
      5087      5086      5089      5092      5088      5086      5089      5090
      5088      5086      5089      5091      5088      5086      5089      5092
      5090      5089      5092      5093      5090      5089      5092      5094
      5090      5089      5092      5095      5091      5089      5092      5093
      5091      5089      5092      5094      5091      5089      5092      5095
     10249     10253     10255     10256     10249     10253     10255     10257
     10249     10253     10258     10259     10249     10253     10258     10260
     10249     10253     10258     10264     10250     10249     10253     10254
     10250     10249     10253     10255     10250     10249     10253     10258
     10251     10249     10253     10254     10251     10249     10253     10255
     10251     10249     10253     10258     10252     10249     10253     10254
     10252     10249     10253     10255     10252     10249     10253     10258
     10253     10258     10264     10261     10254     10253     10255     10256
     10254     10253     10255     10257     10254     10253     10258     10259
     10254     10253     10258     10260     10254     10253     10258     10264
     10255     10253     10258     10259     10255     10253     10258     10260
     10255     10253     10258     10264     10256     10255     10253     10258
     10257     10255     10253     10258     10258     10264     10261     10262
     10258     10264     10261     10263     10258     10264     10261     10265
     10259     10258     10264     10261     10260     10258     10264     10261
     10261     10265     10266     10267     10261     10265     10266     10268
     10261     10265     10266     10269     10262     10261     10265     10266
     10263     10261     10265     10266     10264     10261     10265     10266
     10265     10266     10269     10270     10265     10266     10269     10271
     10265     10266     10269     10277     10266     10269     10271     10272
     10266     10269     10277     10278     10266     10269     10277     10279
     10266     10269     10277     10280     10267     10266     10269     10270
     10267     10266     10269     10271     10267     10266     10269     10277
     10268     10266     10269     10270     10268     10266     10269     10271
     10268     10266     10269     10277     10269     10271     10272     10273
     10269     10271     10272     10274     10269     10277     10280     10281
     10270     10269     10271     10272     10270     10269     10277     10278
     10270     10269     10277     10279     10270     10269     10277     10280
     10271     10269     10277     10278     10271     10269     10277     10279
     10271     10269     10277     10280     10271     10272     10274     10275
     10271     10272     10274     10276     10271     10272     10274     10286
     10272     10271     10269     10277     10272     10274     10286     10287
     10272     10274     10286     10288     10272     10274     10286     10289
     10273     10272     10274     10275     10273     10272     10274     10276
     10273     10272     10274     10286     10274     10286     10289     10290
     10274     10286     10289     10291     10274     10286     10289     10292
     10275     10274     10286     10287     10275     10274     10286     10288
     10275     10274     10286     10289     10276     10274     10286     10287
     10276     10274     10286     10288     10276     10274     10286     10289
     10277     10280     10281     10282     10277     10280     10281     10283
     10278     10277     10280     10281     10279     10277     10280     10281
     10280     10281     10283     10284     10280     10281     10283     10285
     10280     10281     10283     10333     10281     10283     10333     10334
     10281     10283     10333     10335     10281     10283     10333     10336
     10282     10281     10283     10284     10282     10281     10283     10285
     10282     10281     10283     10333     10283     10333     10336     10337
     10283     10333     10336     10338     10283     10333     10336     10339
     10284     10283     10333     10334     10284     10283     10333     10335
     10284     10283     10333     10336     10285     10283     10333     10334
     10285     10283     10333     10335     10285     10283     10333     10336
     10286     10289     10292     10293     10286     10289     10292     10294
     10286     10289     10292     10295     10287     10286     10289     10290
     10287     10286     10289     10291     10287     10286     10289     10292
     10288     10286     10289     10290     10288     10286     10289     10291
     10288     10286     10289     10292     10289     10292     10295     10296
     10289     10292     10295     10297     10289     10292     10295     10298
     10290     10289     10292     10293     10290     10289     10292     10294
     10290     10289     10292     10295     10291     10289     10292     10293
     10291     10289     10292     10294     10291     10289     10292     10295
     10292     10295     10298     10299     10292     10295     10298     10300
     10292     10295     10298     10301     10293     10292     10295     10296
     10293     10292     10295     10297     10293     10292     10295     10298
     10294     10292     10295     10296     10294     10292     10295     10297
     10294     10292     10295     10298     10295     10298     10301     10302
     10295     10298     10301     10303     10295     10298     10301     10304
     10296     10295     10298     10299     10296     10295     10298     10300
     10296     10295     10298     10301     10297     10295     10298     10299
     10297     10295     10298     10300     10297     10295     10298     10301
     10298     10301     10304     10305     10298     10301     10304     10306
     10299     10298     10301     10302     10299     10298     10301     10303
     10299     10298     10301     10304     10300     10298     10301     10302
     10300     10298     10301     10303     10300     10298     10301     10304
     10301     10304     10306     10307     10301     10304     10306     10308
     10302     10301     10304     10305     10302     10301     10304     10306
     10303     10301     10304     10305     10303     10301     10304     10306
     10304     10306     10308     10309     10304     10306     10308     10310
     10304     10306     10308     10311     10305     10304     10306     10307
     10305     10304     10306     10308     10306     10308     10311     10312
     10306     10308     10311     10313     10306     10308     10311     10314
     10307     10306     10308     10309     10307     10306     10308     10310
     10307     10306     10308     10311     10308     10311     10314     10315
     10308     10311     10314     10316     10308     10311     10314     10317
     10309     10308     10311     10312     10309     10308     10311     10313
     10309     10308     10311     10314     10310     10308     10311     10312
     10310     10308     10311     10313     10310     10308     10311     10314
     10311     10314     10317     10318     10311     10314     10317     10319
     10311     10314     10317     10320     10312     10311     10314     10315
     10312     10311     10314     10316     10312     10311     10314     10317
     10313     10311     10314     10315     10313     10311     10314     10316
     10313     10311     10314     10317     10314     10317     10320     10321
     10314     10317     10320     10322     10314     10317     10320     10323
     10315     10314     10317     10318     10315     10314     10317     10319
     10315     10314     10317     10320     10316     10314     10317     10318
     10316     10314     10317     10319     10316     10314     10317     10320
     10317     10320     10323     10324     10317     10320     10323     10325
     10317     10320     10323     10326     10318     10317     10320     10321
     10318     10317     10320     10322     10318     10317     10320     10323
     10319     10317     10320     10321     10319     10317     10320     10322
     10319     10317     10320     10323     10320     10323     10326     10327
     10320     10323     10326     10328     10320     10323     10326     10329
     10321     10320     10323     10324     10321     10320     10323     10325
     10321     10320     10323     10326     10322     10320     10323     10324
     10322     10320     10323     10325     10322     10320     10323     10326
     10323     10326     10329     10330     10323     10326     10329     10331
     10323     10326     10329     10332     10324     10323     10326     10327
     10324     10323     10326     10328     10324     10323     10326     10329
     10325     10323     10326     10327     10325     10323     10326     10328
     10325     10323     10326     10329     10327     10326     10329     10330
     10327     10326     10329     10331     10327     10326     10329     10332
     10328     10326     10329     10330     10328     10326     10329     10331
     10328     10326     10329     10332     10333     10336     10339     10340
     10333     10336     10339     10341     10333     10336     10339     10342
     10334     10333     10336     10337     10334     10333     10336     10338
     10334     10333     10336     10339     10335     10333     10336     10337
     10335     10333     10336     10338     10335     10333     10336     10339
     10336     10339     10342     10343     10336     10339     10342     10344
     10336     10339     10342     10345     10337     10336     10339     10340
     10337     10336     10339     10341     10337     10336     10339     10342
     10338     10336     10339     10340     10338     10336     10339     10341
     10338     10336     10339     10342     10339     10342     10345     10346
     10339     10342     10345     10347     10339     10342     10345     10348
     10340     10339     10342     10343     10340     10339     10342     10344
     10340     10339     10342     10345     10341     10339     10342     10343
     10341     10339     10342     10344     10341     10339     10342     10345
     10342     10345     10348     10349     10342     10345     10348     10350
     10342     10345     10348     10351     10343     10342     10345     10346
     10343     10342     10345     10347     10343     10342     10345     10348
     10344     10342     10345     10346     10344     10342     10345     10347
     10344     10342     10345     10348     10345     10348     10351     10352
     10345     10348     10351     10353     10345     10348     10351     10354
     10346     10345     10348     10349     10346     10345     10348     10350
     10346     10345     10348     10351     10347     10345     10348     10349
     10347     10345     10348     10350     10347     10345     10348     10351
     10348     10351     10354     10355     10348     10351     10354     10356
     10348     10351     10354     10357     10349     10348     10351     10352
     10349     10348     10351     10353     10349     10348     10351     10354
     10350     10348     10351     10352     10350     10348     10351     10353
     10350     10348     10351     10354     10351     10354     10357     10358
     10351     10354     10357     10359     10351     10354     10357     10360
     10352     10351     10354     10355     10352     10351     10354     10356
     10352     10351     10354     10357     10353     10351     10354     10355
     10353     10351     10354     10356     10353     10351     10354     10357
     10354     10357     10360     10361     10354     10357     10360     10362
     10354     10357     10360     10363     10355     10354     10357     10358
     10355     10354     10357     10359     10355     10354     10357     10360
     10356     10354     10357     10358     10356     10354     10357     10359
     10356     10354     10357     10360     10357     10360     10363     10364
     10357     10360     10363     10365     10357     10360     10363     10366
     10358     10357     10360     10361     10358     10357     10360     10362
     10358     10357     10360     10363     10359     10357     10360     10361
     10359     10357     10360     10362     10359     10357     10360     10363
     10360     10363     10366     10367     10360     10363     10366     10368
     10360     10363     10366     10369     10361     10360     10363     10364
     10361     10360     10363     10365     10361     10360     10363     10366
     10362     10360     10363     10364     10362     10360     10363     10365
     10362     10360     10363     10366     10363     10366     10369     10370
     10363     10366     10369     10371     10363     10366     10369     10372
     10364     10363     10366     10367     10364     10363     10366     10368
     10364     10363     10366     10369     10365     10363     10366     10367
     10365     10363     10366     10368     10365     10363     10366     10369
     10366     10369     10372     10373     10366     10369     10372     10374
     10366     10369     10372     10375     10367     10366     10369     10370
     10367     10366     10369     10371     10367     10366     10369     10372
     10368     10366     10369     10370     10368     10366     10369     10371
     10368     10366     10369     10372     10370     10369     10372     10373
     10370     10369     10372     10374     10370     10369     10372     10375
     10371     10369     10372     10373     10371     10369     10372     10374
     10371     10369     10372     10375      5096      5100      5103      5104
      5096      5100      5103      5105      5096      5100      5103      5110
      5097      5096      5100      5101      5097      5096      5100      5102
      5097      5096      5100      5103      5098      5096      5100      5101
      5098      5096      5100      5102      5098      5096      5100      5103
      5099      5096      5100      5101      5099      5096      5100      5102
      5099      5096      5100      5103      5100      5103      5110      5106
      5101      5100      5103      5104      5101      5100      5103      5105
      5101      5100      5103      5110      5102      5100      5103      5104
      5102      5100      5103      5105      5102      5100      5103      5110
      5103      5110      5106      5107      5103      5110      5106      5108
      5103      5110      5106      5109      5104      5103      5110      5106
      5105      5103      5110      5106      5106      5109      5111      5112
      5106      5109      5111      5113      5106      5109      5111      5114
      5107      5106      5109      5111      5108      5106      5109      5111
      5109      5111      5114      5115      5109      5111      5114      5116
      5109      5111      5114      5122      5110      5106      5109      5111
      5111      5114      5116      5117      5111      5114      5122      5123
      5111      5114      5122      5124      5111      5114      5122      5125
      5112      5111      5114      5115      5112      5111      5114      5116
      5112      5111      5114      5122      5113      5111      5114      5115
      5113      5111      5114      5116      5113      5111      5114      5122
      5114      5116      5117      5118      5114      5116      5117      5119
      5114      5122      5125      5126      5115      5114      5116      5117
      5115      5114      5122      5123      5115      5114      5122      5124
      5115      5114      5122      5125      5116      5114      5122      5123
      5116      5114      5122      5124      5116      5114      5122      5125
      5116      5117      5119      5120      5116      5117      5119      5121
      5116      5117      5119      5131      5117      5116      5114      5122
      5117      5119      5131      5132      5117      5119      5131      5133
      5117      5119      5131      5134      5118      5117      5119      5120
      5118      5117      5119      5121      5118      5117      5119      5131
      5119      5131      5134      5135      5119      5131      5134      5136
      5119      5131      5134      5137      5120      5119      5131      5132
      5120      5119      5131      5133      5120      5119      5131      5134
      5121      5119      5131      5132      5121      5119      5131      5133
      5121      5119      5131      5134      5122      5125      5126      5127
      5122      5125      5126      5128      5123      5122      5125      5126
      5124      5122      5125      5126      5125      5126      5128      5129
      5125      5126      5128      5130      5125      5126      5128      5178
      5126      5128      5178      5179      5126      5128      5178      5180
      5126      5128      5178      5181      5127      5126      5128      5129
      5127      5126      5128      5130      5127      5126      5128      5178
      5128      5178      5181      5182      5128      5178      5181      5183
      5128      5178      5181      5184      5129      5128      5178      5179
      5129      5128      5178      5180      5129      5128      5178      5181
      5130      5128      5178      5179      5130      5128      5178      5180
      5130      5128      5178      5181      5131      5134      5137      5138
      5131      5134      5137      5139      5131      5134      5137      5140
      5132      5131      5134      5135      5132      5131      5134      5136
      5132      5131      5134      5137      5133      5131      5134      5135
      5133      5131      5134      5136      5133      5131      5134      5137
      5134      5137      5140      5141      5134      5137      5140      5142
      5134      5137      5140      5143      5135      5134      5137      5138
      5135      5134      5137      5139      5135      5134      5137      5140
      5136      5134      5137      5138      5136      5134      5137      5139
      5136      5134      5137      5140      5137      5140      5143      5144
      5137      5140      5143      5145      5137      5140      5143      5146
      5138      5137      5140      5141      5138      5137      5140      5142
      5138      5137      5140      5143      5139      5137      5140      5141
      5139      5137      5140      5142      5139      5137      5140      5143
      5140      5143      5146      5147      5140      5143      5146      5148
      5140      5143      5146      5149      5141      5140      5143      5144
      5141      5140      5143      5145      5141      5140      5143      5146
      5142      5140      5143      5144      5142      5140      5143      5145
      5142      5140      5143      5146      5143      5146      5149      5150
      5143      5146      5149      5151      5144      5143      5146      5147
      5144      5143      5146      5148      5144      5143      5146      5149
      5145      5143      5146      5147      5145      5143      5146      5148
      5145      5143      5146      5149      5146      5149      5151      5152
      5146      5149      5151      5153      5147      5146      5149      5150
      5147      5146      5149      5151      5148      5146      5149      5150
      5148      5146      5149      5151      5149      5151      5153      5154
      5149      5151      5153      5155      5149      5151      5153      5156
      5150      5149      5151      5152      5150      5149      5151      5153
      5151      5153      5156      5157      5151      5153      5156      5158
      5151      5153      5156      5159      5152      5151      5153      5154
      5152      5151      5153      5155      5152      5151      5153      5156
      5153      5156      5159      5160      5153      5156      5159      5161
      5153      5156      5159      5162      5154      5153      5156      5157
      5154      5153      5156      5158      5154      5153      5156      5159
      5155      5153      5156      5157      5155      5153      5156      5158
      5155      5153      5156      5159      5156      5159      5162      5163
      5156      5159      5162      5164      5156      5159      5162      5165
      5157      5156      5159      5160      5157      5156      5159      5161
      5157      5156      5159      5162      5158      5156      5159      5160
      5158      5156      5159      5161      5158      5156      5159      5162
      5159      5162      5165      5166      5159      5162      5165      5167
      5159      5162      5165      5168      5160      5159      5162      5163
      5160      5159      5162      5164      5160      5159      5162      5165
      5161      5159      5162      5163      5161      5159      5162      5164
      5161      5159      5162      5165      5162      5165      5168      5169
      5162      5165      5168      5170      5162      5165      5168      5171
      5163      5162      5165      5166      5163      5162      5165      5167
      5163      5162      5165      5168      5164      5162      5165      5166
      5164      5162      5165      5167      5164      5162      5165      5168
      5165      5168      5171      5172      5165      5168      5171      5173
      5165      5168      5171      5174      5166      5165      5168      5169
      5166      5165      5168      5170      5166      5165      5168      5171
      5167      5165      5168      5169      5167      5165      5168      5170
      5167      5165      5168      5171      5168      5171      5174      5175
      5168      5171      5174      5176      5168      5171      5174      5177
      5169      5168      5171      5172      5169      5168      5171      5173
      5169      5168      5171      5174      5170      5168      5171      5172
      5170      5168      5171      5173      5170      5168      5171      5174
      5172      5171      5174      5175      5172      5171      5174      5176
      5172      5171      5174      5177      5173      5171      5174      5175
      5173      5171      5174      5176      5173      5171      5174      5177
      5178      5181      5184      5185      5178      5181      5184      5186
      5178      5181      5184      5187      5179      5178      5181      5182
      5179      5178      5181      5183      5179      5178      5181      5184
      5180      5178      5181      5182      5180      5178      5181      5183
      5180      5178      5181      5184      5181      5184      5187      5188
      5181      5184      5187      5189      5181      5184      5187      5190
      5182      5181      5184      5185      5182      5181      5184      5186
      5182      5181      5184      5187      5183      5181      5184      5185
      5183      5181      5184      5186      5183      5181      5184      5187
      5184      5187      5190      5191      5184      5187      5190      5192
      5184      5187      5190      5193      5185      5184      5187      5188
      5185      5184      5187      5189      5185      5184      5187      5190
      5186      5184      5187      5188      5186      5184      5187      5189
      5186      5184      5187      5190      5187      5190      5193      5194
      5187      5190      5193      5195      5187      5190      5193      5196
      5188      5187      5190      5191      5188      5187      5190      5192
      5188      5187      5190      5193      5189      5187      5190      5191
      5189      5187      5190      5192      5189      5187      5190      5193
      5190      5193      5196      5197      5190      5193      5196      5198
      5190      5193      5196      5199      5191      5190      5193      5194
      5191      5190      5193      5195      5191      5190      5193      5196
      5192      5190      5193      5194      5192      5190      5193      5195
      5192      5190      5193      5196      5193      5196      5199      5200
      5193      5196      5199      5201      5193      5196      5199      5202
      5194      5193      5196      5197      5194      5193      5196      5198
      5194      5193      5196      5199      5195      5193      5196      5197
      5195      5193      5196      5198      5195      5193      5196      5199
      5196      5199      5202      5203      5196      5199      5202      5204
      5196      5199      5202      5205      5197      5196      5199      5200
      5197      5196      5199      5201      5197      5196      5199      5202
      5198      5196      5199      5200      5198      5196      5199      5201
      5198      5196      5199      5202      5199      5202      5205      5206
      5199      5202      5205      5207      5199      5202      5205      5208
      5200      5199      5202      5203      5200      5199      5202      5204
      5200      5199      5202      5205      5201      5199      5202      5203
      5201      5199      5202      5204      5201      5199      5202      5205
      5202      5205      5208      5209      5202      5205      5208      5210
      5202      5205      5208      5211      5203      5202      5205      5206
      5203      5202      5205      5207      5203      5202      5205      5208
      5204      5202      5205      5206      5204      5202      5205      5207
      5204      5202      5205      5208      5205      5208      5211      5212
      5205      5208      5211      5213      5205      5208      5211      5214
      5206      5205      5208      5209      5206      5205      5208      5210
      5206      5205      5208      5211      5207      5205      5208      5209
      5207      5205      5208      5210      5207      5205      5208      5211
      5208      5211      5214      5215      5208      5211      5214      5216
      5208      5211      5214      5217      5209      5208      5211      5212
      5209      5208      5211      5213      5209      5208      5211      5214
      5210      5208      5211      5212      5210      5208      5211      5213
      5210      5208      5211      5214      5211      5214      5217      5218
      5211      5214      5217      5219      5211      5214      5217      5220
      5212      5211      5214      5215      5212      5211      5214      5216
      5212      5211      5214      5217      5213      5211      5214      5215
      5213      5211      5214      5216      5213      5211      5214      5217
      5215      5214      5217      5218      5215      5214      5217      5219
      5215      5214      5217      5220      5216      5214      5217      5218
      5216      5214      5217      5219      5216      5214      5217      5220
     16499     16500     16515     16516     16499     16500     16515     16517
     16499     16500     16515     16521     16500     16499     16503     16504
     16500     16499     16503     16505     16500     16499     16503     16506
     16500     16499     16507     16508     16500     16499     16507     16509
     16500     16499     16507     16510     16500     16499     16511     16512
     16500     16499     16511     16513     16500     16499     16511     16514
     16500     16515     16521     16518     16501     16500     16499     16503
     16501     16500     16499     16507     16501     16500     16499     16511
     16501     16500     16515     16516     16501     16500     16515     16517
     16501     16500     16515     16521     16502     16500     16499     16503
     16502     16500     16499     16507     16502     16500     16499     16511
     16502     16500     16515     16516     16502     16500     16515     16517
     16502     16500     16515     16521     16503     16499     16500     16515
     16503     16499     16507     16508     16503     16499     16507     16509
     16503     16499     16507     16510     16503     16499     16511     16512
     16503     16499     16511     16513     16503     16499     16511     16514
     16504     16503     16499     16507     16504     16503     16499     16511
     16505     16503     16499     16507     16505     16503     16499     16511
     16506     16503     16499     16507     16506     16503     16499     16511
     16507     16499     16500     16515     16507     16499     16511     16512
     16507     16499     16511     16513     16507     16499     16511     16514
     16508     16507     16499     16511     16509     16507     16499     16511
     16510     16507     16499     16511     16511     16499     16500     16515
     16515     16521     16518     16519     16515     16521     16518     16520
     16515     16521     16518     16522     16516     16515     16521     16518
     16517     16515     16521     16518     16518     16522     16523     16524
     16518     16522     16523     16525     16518     16522     16523     16526
     16519     16518     16522     16523     16520     16518     16522     16523
     16521     16518     16522     16523     16522     16523     16526     16527
     16522     16523     16526     16528     16522     16523     16526     16534
     16523     16526     16528     16529     16523     16526     16534     16535
     16523     16526     16534     16536     16523     16526     16534     16537
     16524     16523     16526     16527     16524     16523     16526     16528
     16524     16523     16526     16534     16525     16523     16526     16527
     16525     16523     16526     16528     16525     16523     16526     16534
     16526     16528     16529     16530     16526     16528     16529     16531
     16526     16534     16537     16538     16527     16526     16528     16529
     16527     16526     16534     16535     16527     16526     16534     16536
     16527     16526     16534     16537     16528     16526     16534     16535
     16528     16526     16534     16536     16528     16526     16534     16537
     16528     16529     16531     16532     16528     16529     16531     16533
     16528     16529     16531     16543     16529     16528     16526     16534
     16529     16531     16543     16544     16529     16531     16543     16545
     16529     16531     16543     16546     16530     16529     16531     16532
     16530     16529     16531     16533     16530     16529     16531     16543
     16531     16543     16546     16547     16531     16543     16546     16548
     16531     16543     16546     16549     16532     16531     16543     16544
     16532     16531     16543     16545     16532     16531     16543     16546
     16533     16531     16543     16544     16533     16531     16543     16545
     16533     16531     16543     16546     16534     16537     16538     16539
     16534     16537     16538     16540     16535     16534     16537     16538
     16536     16534     16537     16538     16537     16538     16540     16541
     16537     16538     16540     16542     16537     16538     16540     16590
     16538     16540     16590     16591     16538     16540     16590     16592
     16538     16540     16590     16593     16539     16538     16540     16541
     16539     16538     16540     16542     16539     16538     16540     16590
     16540     16590     16593     16594     16540     16590     16593     16595
     16540     16590     16593     16596     16541     16540     16590     16591
     16541     16540     16590     16592     16541     16540     16590     16593
     16542     16540     16590     16591     16542     16540     16590     16592
     16542     16540     16590     16593     16543     16546     16549     16550
     16543     16546     16549     16551     16543     16546     16549     16552
     16544     16543     16546     16547     16544     16543     16546     16548
     16544     16543     16546     16549     16545     16543     16546     16547
     16545     16543     16546     16548     16545     16543     16546     16549
     16546     16549     16552     16553     16546     16549     16552     16554
     16546     16549     16552     16555     16547     16546     16549     16550
     16547     16546     16549     16551     16547     16546     16549     16552
     16548     16546     16549     16550     16548     16546     16549     16551
     16548     16546     16549     16552     16549     16552     16555     16556
     16549     16552     16555     16557     16549     16552     16555     16558
     16550     16549     16552     16553     16550     16549     16552     16554
     16550     16549     16552     16555     16551     16549     16552     16553
     16551     16549     16552     16554     16551     16549     16552     16555
     16552     16555     16558     16559     16552     16555     16558     16560
     16552     16555     16558     16561     16553     16552     16555     16556
     16553     16552     16555     16557     16553     16552     16555     16558
     16554     16552     16555     16556     16554     16552     16555     16557
     16554     16552     16555     16558     16555     16558     16561     16562
     16555     16558     16561     16563     16556     16555     16558     16559
     16556     16555     16558     16560     16556     16555     16558     16561
     16557     16555     16558     16559     16557     16555     16558     16560
     16557     16555     16558     16561     16558     16561     16563     16564
     16558     16561     16563     16565     16559     16558     16561     16562
     16559     16558     16561     16563     16560     16558     16561     16562
     16560     16558     16561     16563     16561     16563     16565     16566
     16561     16563     16565     16567     16561     16563     16565     16568
     16562     16561     16563     16564     16562     16561     16563     16565
     16563     16565     16568     16569     16563     16565     16568     16570
     16563     16565     16568     16571     16564     16563     16565     16566
     16564     16563     16565     16567     16564     16563     16565     16568
     16565     16568     16571     16572     16565     16568     16571     16573
     16565     16568     16571     16574     16566     16565     16568     16569
     16566     16565     16568     16570     16566     16565     16568     16571
     16567     16565     16568     16569     16567     16565     16568     16570
     16567     16565     16568     16571     16568     16571     16574     16575
     16568     16571     16574     16576     16568     16571     16574     16577
     16569     16568     16571     16572     16569     16568     16571     16573
     16569     16568     16571     16574     16570     16568     16571     16572
     16570     16568     16571     16573     16570     16568     16571     16574
     16571     16574     16577     16578     16571     16574     16577     16579
     16571     16574     16577     16580     16572     16571     16574     16575
     16572     16571     16574     16576     16572     16571     16574     16577
     16573     16571     16574     16575     16573     16571     16574     16576
     16573     16571     16574     16577     16574     16577     16580     16581
     16574     16577     16580     16582     16574     16577     16580     16583
     16575     16574     16577     16578     16575     16574     16577     16579
     16575     16574     16577     16580     16576     16574     16577     16578
     16576     16574     16577     16579     16576     16574     16577     16580
     16577     16580     16583     16584     16577     16580     16583     16585
     16577     16580     16583     16586     16578     16577     16580     16581
     16578     16577     16580     16582     16578     16577     16580     16583
     16579     16577     16580     16581     16579     16577     16580     16582
     16579     16577     16580     16583     16580     16583     16586     16587
     16580     16583     16586     16588     16580     16583     16586     16589
     16581     16580     16583     16584     16581     16580     16583     16585
     16581     16580     16583     16586     16582     16580     16583     16584
     16582     16580     16583     16585     16582     16580     16583     16586
     16584     16583     16586     16587     16584     16583     16586     16588
     16584     16583     16586     16589     16585     16583     16586     16587
     16585     16583     16586     16588     16585     16583     16586     16589
     16590     16593     16596     16597     16590     16593     16596     16598
     16590     16593     16596     16599     16591     16590     16593     16594
     16591     16590     16593     16595     16591     16590     16593     16596
     16592     16590     16593     16594     16592     16590     16593     16595
     16592     16590     16593     16596     16593     16596     16599     16600
     16593     16596     16599     16601     16593     16596     16599     16602
     16594     16593     16596     16597     16594     16593     16596     16598
     16594     16593     16596     16599     16595     16593     16596     16597
     16595     16593     16596     16598     16595     16593     16596     16599
     16596     16599     16602     16603     16596     16599     16602     16604
     16596     16599     16602     16605     16597     16596     16599     16600
     16597     16596     16599     16601     16597     16596     16599     16602
     16598     16596     16599     16600     16598     16596     16599     16601
     16598     16596     16599     16602     16599     16602     16605     16606
     16599     16602     16605     16607     16599     16602     16605     16608
     16600     16599     16602     16603     16600     16599     16602     16604
     16600     16599     16602     16605     16601     16599     16602     16603
     16601     16599     16602     16604     16601     16599     16602     16605
     16602     16605     16608     16609     16602     16605     16608     16610
     16602     16605     16608     16611     16603     16602     16605     16606
     16603     16602     16605     16607     16603     16602     16605     16608
     16604     16602     16605     16606     16604     16602     16605     16607
     16604     16602     16605     16608     16605     16608     16611     16612
     16605     16608     16611     16613     16605     16608     16611     16614
     16606     16605     16608     16609     16606     16605     16608     16610
     16606     16605     16608     16611     16607     16605     16608     16609
     16607     16605     16608     16610     16607     16605     16608     16611
     16608     16611     16614     16615     16608     16611     16614     16616
     16608     16611     16614     16617     16609     16608     16611     16612
     16609     16608     16611     16613     16609     16608     16611     16614
     16610     16608     16611     16612     16610     16608     16611     16613
     16610     16608     16611     16614     16611     16614     16617     16618
     16611     16614     16617     16619     16611     16614     16617     16620
     16612     16611     16614     16615     16612     16611     16614     16616
     16612     16611     16614     16617     16613     16611     16614     16615
     16613     16611     16614     16616     16613     16611     16614     16617
     16614     16617     16620     16621     16614     16617     16620     16622
     16614     16617     16620     16623     16615     16614     16617     16618
     16615     16614     16617     16619     16615     16614     16617     16620
     16616     16614     16617     16618     16616     16614     16617     16619
     16616     16614     16617     16620     16617     16620     16623     16624
     16617     16620     16623     16625     16617     16620     16623     16626
     16618     16617     16620     16621     16618     16617     16620     16622
     16618     16617     16620     16623     16619     16617     16620     16621
     16619     16617     16620     16622     16619     16617     16620     16623
     16620     16623     16626     16627     16620     16623     16626     16628
     16620     16623     16626     16629     16621     16620     16623     16624
     16621     16620     16623     16625     16621     16620     16623     16626
     16622     16620     16623     16624     16622     16620     16623     16625
     16622     16620     16623     16626     16623     16626     16629     16630
     16623     16626     16629     16631     16623     16626     16629     16632
     16624     16623     16626     16627     16624     16623     16626     16628
     16624     16623     16626     16629     16625     16623     16626     16627
     16625     16623     16626     16628     16625     16623     16626     16629
     16627     16626     16629     16630     16627     16626     16629     16631
     16627     16626     16629     16632     16628     16626     16629     16630
     16628     16626     16629     16631     16628     16626     16629     16632
      5221      5225      5228      5229      5221      5225      5228      5230
      5221      5225      5228      5235      5222      5221      5225      5226
      5222      5221      5225      5227      5222      5221      5225      5228
      5223      5221      5225      5226      5223      5221      5225      5227
      5223      5221      5225      5228      5224      5221      5225      5226
      5224      5221      5225      5227      5224      5221      5225      5228
      5225      5228      5235      5231      5226      5225      5228      5229
      5226      5225      5228      5230      5226      5225      5228      5235
      5227      5225      5228      5229      5227      5225      5228      5230
      5227      5225      5228      5235      5228      5235      5231      5232
      5228      5235      5231      5233      5228      5235      5231      5234
      5229      5228      5235      5231      5230      5228      5235      5231
      5231      5234      5236      5237      5231      5234      5236      5238
      5231      5234      5236      5239      5232      5231      5234      5236
      5233      5231      5234      5236      5234      5236      5239      5240
      5234      5236      5239      5241      5234      5236      5239      5247
      5235      5231      5234      5236      5236      5239      5241      5242
      5236      5239      5247      5248      5236      5239      5247      5249
      5236      5239      5247      5250      5237      5236      5239      5240
      5237      5236      5239      5241      5237      5236      5239      5247
      5238      5236      5239      5240      5238      5236      5239      5241
      5238      5236      5239      5247      5239      5241      5242      5243
      5239      5241      5242      5244      5239      5247      5250      5251
      5240      5239      5241      5242      5240      5239      5247      5248
      5240      5239      5247      5249      5240      5239      5247      5250
      5241      5239      5247      5248      5241      5239      5247      5249
      5241      5239      5247      5250      5241      5242      5244      5245
      5241      5242      5244      5246      5241      5242      5244      5256
      5242      5241      5239      5247      5242      5244      5256      5257
      5242      5244      5256      5258      5242      5244      5256      5259
      5243      5242      5244      5245      5243      5242      5244      5246
      5243      5242      5244      5256      5244      5256      5259      5260
      5244      5256      5259      5261      5244      5256      5259      5262
      5245      5244      5256      5257      5245      5244      5256      5258
      5245      5244      5256      5259      5246      5244      5256      5257
      5246      5244      5256      5258      5246      5244      5256      5259
      5247      5250      5251      5252      5247      5250      5251      5253
      5248      5247      5250      5251      5249      5247      5250      5251
      5250      5251      5253      5254      5250      5251      5253      5255
      5250      5251      5253      5303      5251      5253      5303      5304
      5251      5253      5303      5305      5251      5253      5303      5306
      5252      5251      5253      5254      5252      5251      5253      5255
      5252      5251      5253      5303      5253      5303      5306      5307
      5253      5303      5306      5308      5253      5303      5306      5309
      5254      5253      5303      5304      5254      5253      5303      5305
      5254      5253      5303      5306      5255      5253      5303      5304
      5255      5253      5303      5305      5255      5253      5303      5306
      5256      5259      5262      5263      5256      5259      5262      5264
      5256      5259      5262      5265      5257      5256      5259      5260
      5257      5256      5259      5261      5257      5256      5259      5262
      5258      5256      5259      5260      5258      5256      5259      5261
      5258      5256      5259      5262      5259      5262      5265      5266
      5259      5262      5265      5267      5259      5262      5265      5268
      5260      5259      5262      5263      5260      5259      5262      5264
      5260      5259      5262      5265      5261      5259      5262      5263
      5261      5259      5262      5264      5261      5259      5262      5265
      5262      5265      5268      5269      5262      5265      5268      5270
      5262      5265      5268      5271      5263      5262      5265      5266
      5263      5262      5265      5267      5263      5262      5265      5268
      5264      5262      5265      5266      5264      5262      5265      5267
      5264      5262      5265      5268      5265      5268      5271      5272
      5265      5268      5271      5273      5265      5268      5271      5274
      5266      5265      5268      5269      5266      5265      5268      5270
      5266      5265      5268      5271      5267      5265      5268      5269
      5267      5265      5268      5270      5267      5265      5268      5271
      5268      5271      5274      5275      5268      5271      5274      5276
      5269      5268      5271      5272      5269      5268      5271      5273
      5269      5268      5271      5274      5270      5268      5271      5272
      5270      5268      5271      5273      5270      5268      5271      5274
      5271      5274      5276      5277      5271      5274      5276      5278
      5272      5271      5274      5275      5272      5271      5274      5276
      5273      5271      5274      5275      5273      5271      5274      5276
      5274      5276      5278      5279      5274      5276      5278      5280
      5274      5276      5278      5281      5275      5274      5276      5277
      5275      5274      5276      5278      5276      5278      5281      5282
      5276      5278      5281      5283      5276      5278      5281      5284
      5277      5276      5278      5279      5277      5276      5278      5280
      5277      5276      5278      5281      5278      5281      5284      5285
      5278      5281      5284      5286      5278      5281      5284      5287
      5279      5278      5281      5282      5279      5278      5281      5283
      5279      5278      5281      5284      5280      5278      5281      5282
      5280      5278      5281      5283      5280      5278      5281      5284
      5281      5284      5287      5288      5281      5284      5287      5289
      5281      5284      5287      5290      5282      5281      5284      5285
      5282      5281      5284      5286      5282      5281      5284      5287
      5283      5281      5284      5285      5283      5281      5284      5286
      5283      5281      5284      5287      5284      5287      5290      5291
      5284      5287      5290      5292      5284      5287      5290      5293
      5285      5284      5287      5288      5285      5284      5287      5289
      5285      5284      5287      5290      5286      5284      5287      5288
      5286      5284      5287      5289      5286      5284      5287      5290
      5287      5290      5293      5294      5287      5290      5293      5295
      5287      5290      5293      5296      5288      5287      5290      5291
      5288      5287      5290      5292      5288      5287      5290      5293
      5289      5287      5290      5291      5289      5287      5290      5292
      5289      5287      5290      5293      5290      5293      5296      5297
      5290      5293      5296      5298      5290      5293      5296      5299
      5291      5290      5293      5294      5291      5290      5293      5295
      5291      5290      5293      5296      5292      5290      5293      5294
      5292      5290      5293      5295      5292      5290      5293      5296
      5293      5296      5299      5300      5293      5296      5299      5301
      5293      5296      5299      5302      5294      5293      5296      5297
      5294      5293      5296      5298      5294      5293      5296      5299
      5295      5293      5296      5297      5295      5293      5296      5298
      5295      5293      5296      5299      5297      5296      5299      5300
      5297      5296      5299      5301      5297      5296      5299      5302
      5298      5296      5299      5300      5298      5296      5299      5301
      5298      5296      5299      5302      5303      5306      5309      5310
      5303      5306      5309      5311      5303      5306      5309      5312
      5304      5303      5306      5307      5304      5303      5306      5308
      5304      5303      5306      5309      5305      5303      5306      5307
      5305      5303      5306      5308      5305      5303      5306      5309
      5306      5309      5312      5313      5306      5309      5312      5314
      5306      5309      5312      5315      5307      5306      5309      5310
      5307      5306      5309      5311      5307      5306      5309      5312
      5308      5306      5309      5310      5308      5306      5309      5311
      5308      5306      5309      5312      5309      5312      5315      5316
      5309      5312      5315      5317      5309      5312      5315      5318
      5310      5309      5312      5313      5310      5309      5312      5314
      5310      5309      5312      5315      5311      5309      5312      5313
      5311      5309      5312      5314      5311      5309      5312      5315
      5312      5315      5318      5319      5312      5315      5318      5320
      5312      5315      5318      5321      5313      5312      5315      5316
      5313      5312      5315      5317      5313      5312      5315      5318
      5314      5312      5315      5316      5314      5312      5315      5317
      5314      5312      5315      5318      5315      5318      5321      5322
      5315      5318      5321      5323      5315      5318      5321      5324
      5316      5315      5318      5319      5316      5315      5318      5320
      5316      5315      5318      5321      5317      5315      5318      5319
      5317      5315      5318      5320      5317      5315      5318      5321
      5318      5321      5324      5325      5318      5321      5324      5326
      5318      5321      5324      5327      5319      5318      5321      5322
      5319      5318      5321      5323      5319      5318      5321      5324
      5320      5318      5321      5322      5320      5318      5321      5323
      5320      5318      5321      5324      5321      5324      5327      5328
      5321      5324      5327      5329      5321      5324      5327      5330
      5322      5321      5324      5325      5322      5321      5324      5326
      5322      5321      5324      5327      5323      5321      5324      5325
      5323      5321      5324      5326      5323      5321      5324      5327
      5324      5327      5330      5331      5324      5327      5330      5332
      5324      5327      5330      5333      5325      5324      5327      5328
      5325      5324      5327      5329      5325      5324      5327      5330
      5326      5324      5327      5328      5326      5324      5327      5329
      5326      5324      5327      5330      5327      5330      5333      5334
      5327      5330      5333      5335      5327      5330      5333      5336
      5328      5327      5330      5331      5328      5327      5330      5332
      5328      5327      5330      5333      5329      5327      5330      5331
      5329      5327      5330      5332      5329      5327      5330      5333
      5330      5333      5336      5337      5330      5333      5336      5338
      5330      5333      5336      5339      5331      5330      5333      5334
      5331      5330      5333      5335      5331      5330      5333      5336
      5332      5330      5333      5334      5332      5330      5333      5335
      5332      5330      5333      5336      5333      5336      5339      5340
      5333      5336      5339      5341      5333      5336      5339      5342
      5334      5333      5336      5337      5334      5333      5336      5338
      5334      5333      5336      5339      5335      5333      5336      5337
      5335      5333      5336      5338      5335      5333      5336      5339
      5336      5339      5342      5343      5336      5339      5342      5344
      5336      5339      5342      5345      5337      5336      5339      5340
      5337      5336      5339      5341      5337      5336      5339      5342
      5338      5336      5339      5340      5338      5336      5339      5341
      5338      5336      5339      5342      5340      5339      5342      5343
      5340      5339      5342      5344      5340      5339      5342      5345
      5341      5339      5342      5343      5341      5339      5342      5344
      5341      5339      5342      5345     10376     10380     10382     10383
     10376     10380     10382     10384     10376     10380     10385     10386
     10376     10380     10385     10387     10376     10380     10385     10391
     10377     10376     10380     10381     10377     10376     10380     10382
     10377     10376     10380     10385     10378     10376     10380     10381
     10378     10376     10380     10382     10378     10376     10380     10385
     10379     10376     10380     10381     10379     10376     10380     10382
     10379     10376     10380     10385     10380     10385     10391     10388
     10381     10380     10382     10383     10381     10380     10382     10384
     10381     10380     10385     10386     10381     10380     10385     10387
     10381     10380     10385     10391     10382     10380     10385     10386
     10382     10380     10385     10387     10382     10380     10385     10391
     10383     10382     10380     10385     10384     10382     10380     10385
     10385     10391     10388     10389     10385     10391     10388     10390
     10385     10391     10388     10392     10386     10385     10391     10388
     10387     10385     10391     10388     10388     10392     10393     10394
     10388     10392     10393     10395     10388     10392     10393     10396
     10389     10388     10392     10393     10390     10388     10392     10393
     10391     10388     10392     10393     10392     10393     10396     10397
     10392     10393     10396     10398     10392     10393     10396     10404
     10393     10396     10398     10399     10393     10396     10404     10405
     10393     10396     10404     10406     10393     10396     10404     10407
     10394     10393     10396     10397     10394     10393     10396     10398
     10394     10393     10396     10404     10395     10393     10396     10397
     10395     10393     10396     10398     10395     10393     10396     10404
     10396     10398     10399     10400     10396     10398     10399     10401
     10396     10404     10407     10408     10397     10396     10398     10399
     10397     10396     10404     10405     10397     10396     10404     10406
     10397     10396     10404     10407     10398     10396     10404     10405
     10398     10396     10404     10406     10398     10396     10404     10407
     10398     10399     10401     10402     10398     10399     10401     10403
     10398     10399     10401     10413     10399     10398     10396     10404
     10399     10401     10413     10414     10399     10401     10413     10415
     10399     10401     10413     10416     10400     10399     10401     10402
     10400     10399     10401     10403     10400     10399     10401     10413
     10401     10413     10416     10417     10401     10413     10416     10418
     10401     10413     10416     10419     10402     10401     10413     10414
     10402     10401     10413     10415     10402     10401     10413     10416
     10403     10401     10413     10414     10403     10401     10413     10415
     10403     10401     10413     10416     10404     10407     10408     10409
     10404     10407     10408     10410     10405     10404     10407     10408
     10406     10404     10407     10408     10407     10408     10410     10411
     10407     10408     10410     10412     10407     10408     10410     10460
     10408     10410     10460     10461     10408     10410     10460     10462
     10408     10410     10460     10463     10409     10408     10410     10411
     10409     10408     10410     10412     10409     10408     10410     10460
     10410     10460     10463     10464     10410     10460     10463     10465
     10410     10460     10463     10466     10411     10410     10460     10461
     10411     10410     10460     10462     10411     10410     10460     10463
     10412     10410     10460     10461     10412     10410     10460     10462
     10412     10410     10460     10463     10413     10416     10419     10420
     10413     10416     10419     10421     10413     10416     10419     10422
     10414     10413     10416     10417     10414     10413     10416     10418
     10414     10413     10416     10419     10415     10413     10416     10417
     10415     10413     10416     10418     10415     10413     10416     10419
     10416     10419     10422     10423     10416     10419     10422     10424
     10416     10419     10422     10425     10417     10416     10419     10420
     10417     10416     10419     10421     10417     10416     10419     10422
     10418     10416     10419     10420     10418     10416     10419     10421
     10418     10416     10419     10422     10419     10422     10425     10426
     10419     10422     10425     10427     10419     10422     10425     10428
     10420     10419     10422     10423     10420     10419     10422     10424
     10420     10419     10422     10425     10421     10419     10422     10423
     10421     10419     10422     10424     10421     10419     10422     10425
     10422     10425     10428     10429     10422     10425     10428     10430
     10422     10425     10428     10431     10423     10422     10425     10426
     10423     10422     10425     10427     10423     10422     10425     10428
     10424     10422     10425     10426     10424     10422     10425     10427
     10424     10422     10425     10428     10425     10428     10431     10432
     10425     10428     10431     10433     10426     10425     10428     10429
     10426     10425     10428     10430     10426     10425     10428     10431
     10427     10425     10428     10429     10427     10425     10428     10430
     10427     10425     10428     10431     10428     10431     10433     10434
     10428     10431     10433     10435     10429     10428     10431     10432
     10429     10428     10431     10433     10430     10428     10431     10432
     10430     10428     10431     10433     10431     10433     10435     10436
     10431     10433     10435     10437     10431     10433     10435     10438
     10432     10431     10433     10434     10432     10431     10433     10435
     10433     10435     10438     10439     10433     10435     10438     10440
     10433     10435     10438     10441     10434     10433     10435     10436
     10434     10433     10435     10437     10434     10433     10435     10438
     10435     10438     10441     10442     10435     10438     10441     10443
     10435     10438     10441     10444     10436     10435     10438     10439
     10436     10435     10438     10440     10436     10435     10438     10441
     10437     10435     10438     10439     10437     10435     10438     10440
     10437     10435     10438     10441     10438     10441     10444     10445
     10438     10441     10444     10446     10438     10441     10444     10447
     10439     10438     10441     10442     10439     10438     10441     10443
     10439     10438     10441     10444     10440     10438     10441     10442
     10440     10438     10441     10443     10440     10438     10441     10444
     10441     10444     10447     10448     10441     10444     10447     10449
     10441     10444     10447     10450     10442     10441     10444     10445
     10442     10441     10444     10446     10442     10441     10444     10447
     10443     10441     10444     10445     10443     10441     10444     10446
     10443     10441     10444     10447     10444     10447     10450     10451
     10444     10447     10450     10452     10444     10447     10450     10453
     10445     10444     10447     10448     10445     10444     10447     10449
     10445     10444     10447     10450     10446     10444     10447     10448
     10446     10444     10447     10449     10446     10444     10447     10450
     10447     10450     10453     10454     10447     10450     10453     10455
     10447     10450     10453     10456     10448     10447     10450     10451
     10448     10447     10450     10452     10448     10447     10450     10453
     10449     10447     10450     10451     10449     10447     10450     10452
     10449     10447     10450     10453     10450     10453     10456     10457
     10450     10453     10456     10458     10450     10453     10456     10459
     10451     10450     10453     10454     10451     10450     10453     10455
     10451     10450     10453     10456     10452     10450     10453     10454
     10452     10450     10453     10455     10452     10450     10453     10456
     10454     10453     10456     10457     10454     10453     10456     10458
     10454     10453     10456     10459     10455     10453     10456     10457
     10455     10453     10456     10458     10455     10453     10456     10459
     10460     10463     10466     10467     10460     10463     10466     10468
     10460     10463     10466     10469     10461     10460     10463     10464
     10461     10460     10463     10465     10461     10460     10463     10466
     10462     10460     10463     10464     10462     10460     10463     10465
     10462     10460     10463     10466     10463     10466     10469     10470
     10463     10466     10469     10471     10463     10466     10469     10472
     10464     10463     10466     10467     10464     10463     10466     10468
     10464     10463     10466     10469     10465     10463     10466     10467
     10465     10463     10466     10468     10465     10463     10466     10469
     10466     10469     10472     10473     10466     10469     10472     10474
     10466     10469     10472     10475     10467     10466     10469     10470
     10467     10466     10469     10471     10467     10466     10469     10472
     10468     10466     10469     10470     10468     10466     10469     10471
     10468     10466     10469     10472     10469     10472     10475     10476
     10469     10472     10475     10477     10469     10472     10475     10478
     10470     10469     10472     10473     10470     10469     10472     10474
     10470     10469     10472     10475     10471     10469     10472     10473
     10471     10469     10472     10474     10471     10469     10472     10475
     10472     10475     10478     10479     10472     10475     10478     10480
     10472     10475     10478     10481     10473     10472     10475     10476
     10473     10472     10475     10477     10473     10472     10475     10478
     10474     10472     10475     10476     10474     10472     10475     10477
     10474     10472     10475     10478     10475     10478     10481     10482
     10475     10478     10481     10483     10475     10478     10481     10484
     10476     10475     10478     10479     10476     10475     10478     10480
     10476     10475     10478     10481     10477     10475     10478     10479
     10477     10475     10478     10480     10477     10475     10478     10481
     10478     10481     10484     10485     10478     10481     10484     10486
     10478     10481     10484     10487     10479     10478     10481     10482
     10479     10478     10481     10483     10479     10478     10481     10484
     10480     10478     10481     10482     10480     10478     10481     10483
     10480     10478     10481     10484     10481     10484     10487     10488
     10481     10484     10487     10489     10481     10484     10487     10490
     10482     10481     10484     10485     10482     10481     10484     10486
     10482     10481     10484     10487     10483     10481     10484     10485
     10483     10481     10484     10486     10483     10481     10484     10487
     10484     10487     10490     10491     10484     10487     10490     10492
     10484     10487     10490     10493     10485     10484     10487     10488
     10485     10484     10487     10489     10485     10484     10487     10490
     10486     10484     10487     10488     10486     10484     10487     10489
     10486     10484     10487     10490     10487     10490     10493     10494
     10487     10490     10493     10495     10487     10490     10493     10496
     10488     10487     10490     10491     10488     10487     10490     10492
     10488     10487     10490     10493     10489     10487     10490     10491
     10489     10487     10490     10492     10489     10487     10490     10493
     10490     10493     10496     10497     10490     10493     10496     10498
     10490     10493     10496     10499     10491     10490     10493     10494
     10491     10490     10493     10495     10491     10490     10493     10496
     10492     10490     10493     10494     10492     10490     10493     10495
     10492     10490     10493     10496     10493     10496     10499     10500
     10493     10496     10499     10501     10493     10496     10499     10502
     10494     10493     10496     10497     10494     10493     10496     10498
     10494     10493     10496     10499     10495     10493     10496     10497
     10495     10493     10496     10498     10495     10493     10496     10499
     10497     10496     10499     10500     10497     10496     10499     10501
     10497     10496     10499     10502     10498     10496     10499     10500
     10498     10496     10499     10501     10498     10496     10499     10502
     16633     16634     16649     16650     16633     16634     16649     16651
     16633     16634     16649     16655     16634     16633     16637     16638
     16634     16633     16637     16639     16634     16633     16637     16640
     16634     16633     16641     16642     16634     16633     16641     16643
     16634     16633     16641     16644     16634     16633     16645     16646
     16634     16633     16645     16647     16634     16633     16645     16648
     16634     16649     16655     16652     16635     16634     16633     16637
     16635     16634     16633     16641     16635     16634     16633     16645
     16635     16634     16649     16650     16635     16634     16649     16651
     16635     16634     16649     16655     16636     16634     16633     16637
     16636     16634     16633     16641     16636     16634     16633     16645
     16636     16634     16649     16650     16636     16634     16649     16651
     16636     16634     16649     16655     16637     16633     16634     16649
     16637     16633     16641     16642     16637     16633     16641     16643
     16637     16633     16641     16644     16637     16633     16645     16646
     16637     16633     16645     16647     16637     16633     16645     16648
     16638     16637     16633     16641     16638     16637     16633     16645
     16639     16637     16633     16641     16639     16637     16633     16645
     16640     16637     16633     16641     16640     16637     16633     16645
     16641     16633     16634     16649     16641     16633     16645     16646
     16641     16633     16645     16647     16641     16633     16645     16648
     16642     16641     16633     16645     16643     16641     16633     16645
     16644     16641     16633     16645     16645     16633     16634     16649
     16649     16655     16652     16653     16649     16655     16652     16654
     16649     16655     16652     16656     16650     16649     16655     16652
     16651     16649     16655     16652     16652     16656     16657     16658
     16652     16656     16657     16659     16652     16656     16657     16660
     16653     16652     16656     16657     16654     16652     16656     16657
     16655     16652     16656     16657     16656     16657     16660     16661
     16656     16657     16660     16662     16656     16657     16660     16668
     16657     16660     16662     16663     16657     16660     16668     16669
     16657     16660     16668     16670     16657     16660     16668     16671
     16658     16657     16660     16661     16658     16657     16660     16662
     16658     16657     16660     16668     16659     16657     16660     16661
     16659     16657     16660     16662     16659     16657     16660     16668
     16660     16662     16663     16664     16660     16662     16663     16665
     16660     16668     16671     16672     16661     16660     16662     16663
     16661     16660     16668     16669     16661     16660     16668     16670
     16661     16660     16668     16671     16662     16660     16668     16669
     16662     16660     16668     16670     16662     16660     16668     16671
     16662     16663     16665     16666     16662     16663     16665     16667
     16662     16663     16665     16677     16663     16662     16660     16668
     16663     16665     16677     16678     16663     16665     16677     16679
     16663     16665     16677     16680     16664     16663     16665     16666
     16664     16663     16665     16667     16664     16663     16665     16677
     16665     16677     16680     16681     16665     16677     16680     16682
     16665     16677     16680     16683     16666     16665     16677     16678
     16666     16665     16677     16679     16666     16665     16677     16680
     16667     16665     16677     16678     16667     16665     16677     16679
     16667     16665     16677     16680     16668     16671     16672     16673
     16668     16671     16672     16674     16669     16668     16671     16672
     16670     16668     16671     16672     16671     16672     16674     16675
     16671     16672     16674     16676     16671     16672     16674     16724
     16672     16674     16724     16725     16672     16674     16724     16726
     16672     16674     16724     16727     16673     16672     16674     16675
     16673     16672     16674     16676     16673     16672     16674     16724
     16674     16724     16727     16728     16674     16724     16727     16729
     16674     16724     16727     16730     16675     16674     16724     16725
     16675     16674     16724     16726     16675     16674     16724     16727
     16676     16674     16724     16725     16676     16674     16724     16726
     16676     16674     16724     16727     16677     16680     16683     16684
     16677     16680     16683     16685     16677     16680     16683     16686
     16678     16677     16680     16681     16678     16677     16680     16682
     16678     16677     16680     16683     16679     16677     16680     16681
     16679     16677     16680     16682     16679     16677     16680     16683
     16680     16683     16686     16687     16680     16683     16686     16688
     16680     16683     16686     16689     16681     16680     16683     16684
     16681     16680     16683     16685     16681     16680     16683     16686
     16682     16680     16683     16684     16682     16680     16683     16685
     16682     16680     16683     16686     16683     16686     16689     16690
     16683     16686     16689     16691     16683     16686     16689     16692
     16684     16683     16686     16687     16684     16683     16686     16688
     16684     16683     16686     16689     16685     16683     16686     16687
     16685     16683     16686     16688     16685     16683     16686     16689
     16686     16689     16692     16693     16686     16689     16692     16694
     16686     16689     16692     16695     16687     16686     16689     16690
     16687     16686     16689     16691     16687     16686     16689     16692
     16688     16686     16689     16690     16688     16686     16689     16691
     16688     16686     16689     16692     16689     16692     16695     16696
     16689     16692     16695     16697     16690     16689     16692     16693
     16690     16689     16692     16694     16690     16689     16692     16695
     16691     16689     16692     16693     16691     16689     16692     16694
     16691     16689     16692     16695     16692     16695     16697     16698
     16692     16695     16697     16699     16693     16692     16695     16696
     16693     16692     16695     16697     16694     16692     16695     16696
     16694     16692     16695     16697     16695     16697     16699     16700
     16695     16697     16699     16701     16695     16697     16699     16702
     16696     16695     16697     16698     16696     16695     16697     16699
     16697     16699     16702     16703     16697     16699     16702     16704
     16697     16699     16702     16705     16698     16697     16699     16700
     16698     16697     16699     16701     16698     16697     16699     16702
     16699     16702     16705     16706     16699     16702     16705     16707
     16699     16702     16705     16708     16700     16699     16702     16703
     16700     16699     16702     16704     16700     16699     16702     16705
     16701     16699     16702     16703     16701     16699     16702     16704
     16701     16699     16702     16705     16702     16705     16708     16709
     16702     16705     16708     16710     16702     16705     16708     16711
     16703     16702     16705     16706     16703     16702     16705     16707
     16703     16702     16705     16708     16704     16702     16705     16706
     16704     16702     16705     16707     16704     16702     16705     16708
     16705     16708     16711     16712     16705     16708     16711     16713
     16705     16708     16711     16714     16706     16705     16708     16709
     16706     16705     16708     16710     16706     16705     16708     16711
     16707     16705     16708     16709     16707     16705     16708     16710
     16707     16705     16708     16711     16708     16711     16714     16715
     16708     16711     16714     16716     16708     16711     16714     16717
     16709     16708     16711     16712     16709     16708     16711     16713
     16709     16708     16711     16714     16710     16708     16711     16712
     16710     16708     16711     16713     16710     16708     16711     16714
     16711     16714     16717     16718     16711     16714     16717     16719
     16711     16714     16717     16720     16712     16711     16714     16715
     16712     16711     16714     16716     16712     16711     16714     16717
     16713     16711     16714     16715     16713     16711     16714     16716
     16713     16711     16714     16717     16714     16717     16720     16721
     16714     16717     16720     16722     16714     16717     16720     16723
     16715     16714     16717     16718     16715     16714     16717     16719
     16715     16714     16717     16720     16716     16714     16717     16718
     16716     16714     16717     16719     16716     16714     16717     16720
     16718     16717     16720     16721     16718     16717     16720     16722
     16718     16717     16720     16723     16719     16717     16720     16721
     16719     16717     16720     16722     16719     16717     16720     16723
     16724     16727     16730     16731     16724     16727     16730     16732
     16724     16727     16730     16733     16725     16724     16727     16728
     16725     16724     16727     16729     16725     16724     16727     16730
     16726     16724     16727     16728     16726     16724     16727     16729
     16726     16724     16727     16730     16727     16730     16733     16734
     16727     16730     16733     16735     16727     16730     16733     16736
     16728     16727     16730     16731     16728     16727     16730     16732
     16728     16727     16730     16733     16729     16727     16730     16731
     16729     16727     16730     16732     16729     16727     16730     16733
     16730     16733     16736     16737     16730     16733     16736     16738
     16730     16733     16736     16739     16731     16730     16733     16734
     16731     16730     16733     16735     16731     16730     16733     16736
     16732     16730     16733     16734     16732     16730     16733     16735
     16732     16730     16733     16736     16733     16736     16739     16740
     16733     16736     16739     16741     16733     16736     16739     16742
     16734     16733     16736     16737     16734     16733     16736     16738
     16734     16733     16736     16739     16735     16733     16736     16737
     16735     16733     16736     16738     16735     16733     16736     16739
     16736     16739     16742     16743     16736     16739     16742     16744
     16736     16739     16742     16745     16737     16736     16739     16740
     16737     16736     16739     16741     16737     16736     16739     16742
     16738     16736     16739     16740     16738     16736     16739     16741
     16738     16736     16739     16742     16739     16742     16745     16746
     16739     16742     16745     16747     16739     16742     16745     16748
     16740     16739     16742     16743     16740     16739     16742     16744
     16740     16739     16742     16745     16741     16739     16742     16743
     16741     16739     16742     16744     16741     16739     16742     16745
     16742     16745     16748     16749     16742     16745     16748     16750
     16742     16745     16748     16751     16743     16742     16745     16746
     16743     16742     16745     16747     16743     16742     16745     16748
     16744     16742     16745     16746     16744     16742     16745     16747
     16744     16742     16745     16748     16745     16748     16751     16752
     16745     16748     16751     16753     16745     16748     16751     16754
     16746     16745     16748     16749     16746     16745     16748     16750
     16746     16745     16748     16751     16747     16745     16748     16749
     16747     16745     16748     16750     16747     16745     16748     16751
     16748     16751     16754     16755     16748     16751     16754     16756
     16748     16751     16754     16757     16749     16748     16751     16752
     16749     16748     16751     16753     16749     16748     16751     16754
     16750     16748     16751     16752     16750     16748     16751     16753
     16750     16748     16751     16754     16751     16754     16757     16758
     16751     16754     16757     16759     16751     16754     16757     16760
     16752     16751     16754     16755     16752     16751     16754     16756
     16752     16751     16754     16757     16753     16751     16754     16755
     16753     16751     16754     16756     16753     16751     16754     16757
     16754     16757     16760     16761     16754     16757     16760     16762
     16754     16757     16760     16763     16755     16754     16757     16758
     16755     16754     16757     16759     16755     16754     16757     16760
     16756     16754     16757     16758     16756     16754     16757     16759
     16756     16754     16757     16760     16757     16760     16763     16764
     16757     16760     16763     16765     16757     16760     16763     16766
     16758     16757     16760     16761     16758     16757     16760     16762
     16758     16757     16760     16763     16759     16757     16760     16761
     16759     16757     16760     16762     16759     16757     16760     16763
     16761     16760     16763     16764     16761     16760     16763     16765
     16761     16760     16763     16766     16762     16760     16763     16764
     16762     16760     16763     16765     16762     16760     16763     16766
     16767     16768     16783     16784     16767     16768     16783     16785
     16767     16768     16783     16789     16768     16767     16771     16772
     16768     16767     16771     16773     16768     16767     16771     16774
     16768     16767     16775     16776     16768     16767     16775     16777
     16768     16767     16775     16778     16768     16767     16779     16780
     16768     16767     16779     16781     16768     16767     16779     16782
     16768     16783     16789     16786     16769     16768     16767     16771
     16769     16768     16767     16775     16769     16768     16767     16779
     16769     16768     16783     16784     16769     16768     16783     16785
     16769     16768     16783     16789     16770     16768     16767     16771
     16770     16768     16767     16775     16770     16768     16767     16779
     16770     16768     16783     16784     16770     16768     16783     16785
     16770     16768     16783     16789     16771     16767     16768     16783
     16771     16767     16775     16776     16771     16767     16775     16777
     16771     16767     16775     16778     16771     16767     16779     16780
     16771     16767     16779     16781     16771     16767     16779     16782
     16772     16771     16767     16775     16772     16771     16767     16779
     16773     16771     16767     16775     16773     16771     16767     16779
     16774     16771     16767     16775     16774     16771     16767     16779
     16775     16767     16768     16783     16775     16767     16779     16780
     16775     16767     16779     16781     16775     16767     16779     16782
     16776     16775     16767     16779     16777     16775     16767     16779
     16778     16775     16767     16779     16779     16767     16768     16783
     16783     16789     16786     16787     16783     16789     16786     16788
     16783     16789     16786     16790     16784     16783     16789     16786
     16785     16783     16789     16786     16786     16790     16791     16792
     16786     16790     16791     16793     16786     16790     16791     16794
     16787     16786     16790     16791     16788     16786     16790     16791
     16789     16786     16790     16791     16790     16791     16794     16795
     16790     16791     16794     16796     16790     16791     16794     16802
     16791     16794     16796     16797     16791     16794     16802     16803
     16791     16794     16802     16804     16791     16794     16802     16805
     16792     16791     16794     16795     16792     16791     16794     16796
     16792     16791     16794     16802     16793     16791     16794     16795
     16793     16791     16794     16796     16793     16791     16794     16802
     16794     16796     16797     16798     16794     16796     16797     16799
     16794     16802     16805     16806     16795     16794     16796     16797
     16795     16794     16802     16803     16795     16794     16802     16804
     16795     16794     16802     16805     16796     16794     16802     16803
     16796     16794     16802     16804     16796     16794     16802     16805
     16796     16797     16799     16800     16796     16797     16799     16801
     16796     16797     16799     16811     16797     16796     16794     16802
     16797     16799     16811     16812     16797     16799     16811     16813
     16797     16799     16811     16814     16798     16797     16799     16800
     16798     16797     16799     16801     16798     16797     16799     16811
     16799     16811     16814     16815     16799     16811     16814     16816
     16799     16811     16814     16817     16800     16799     16811     16812
     16800     16799     16811     16813     16800     16799     16811     16814
     16801     16799     16811     16812     16801     16799     16811     16813
     16801     16799     16811     16814     16802     16805     16806     16807
     16802     16805     16806     16808     16803     16802     16805     16806
     16804     16802     16805     16806     16805     16806     16808     16809
     16805     16806     16808     16810     16805     16806     16808     16858
     16806     16808     16858     16859     16806     16808     16858     16860
     16806     16808     16858     16861     16807     16806     16808     16809
     16807     16806     16808     16810     16807     16806     16808     16858
     16808     16858     16861     16862     16808     16858     16861     16863
     16808     16858     16861     16864     16809     16808     16858     16859
     16809     16808     16858     16860     16809     16808     16858     16861
     16810     16808     16858     16859     16810     16808     16858     16860
     16810     16808     16858     16861     16811     16814     16817     16818
     16811     16814     16817     16819     16811     16814     16817     16820
     16812     16811     16814     16815     16812     16811     16814     16816
     16812     16811     16814     16817     16813     16811     16814     16815
     16813     16811     16814     16816     16813     16811     16814     16817
     16814     16817     16820     16821     16814     16817     16820     16822
     16814     16817     16820     16823     16815     16814     16817     16818
     16815     16814     16817     16819     16815     16814     16817     16820
     16816     16814     16817     16818     16816     16814     16817     16819
     16816     16814     16817     16820     16817     16820     16823     16824
     16817     16820     16823     16825     16817     16820     16823     16826
     16818     16817     16820     16821     16818     16817     16820     16822
     16818     16817     16820     16823     16819     16817     16820     16821
     16819     16817     16820     16822     16819     16817     16820     16823
     16820     16823     16826     16827     16820     16823     16826     16828
     16820     16823     16826     16829     16821     16820     16823     16824
     16821     16820     16823     16825     16821     16820     16823     16826
     16822     16820     16823     16824     16822     16820     16823     16825
     16822     16820     16823     16826     16823     16826     16829     16830
     16823     16826     16829     16831     16824     16823     16826     16827
     16824     16823     16826     16828     16824     16823     16826     16829
     16825     16823     16826     16827     16825     16823     16826     16828
     16825     16823     16826     16829     16826     16829     16831     16832
     16826     16829     16831     16833     16827     16826     16829     16830
     16827     16826     16829     16831     16828     16826     16829     16830
     16828     16826     16829     16831     16829     16831     16833     16834
     16829     16831     16833     16835     16829     16831     16833     16836
     16830     16829     16831     16832     16830     16829     16831     16833
     16831     16833     16836     16837     16831     16833     16836     16838
     16831     16833     16836     16839     16832     16831     16833     16834
     16832     16831     16833     16835     16832     16831     16833     16836
     16833     16836     16839     16840     16833     16836     16839     16841
     16833     16836     16839     16842     16834     16833     16836     16837
     16834     16833     16836     16838     16834     16833     16836     16839
     16835     16833     16836     16837     16835     16833     16836     16838
     16835     16833     16836     16839     16836     16839     16842     16843
     16836     16839     16842     16844     16836     16839     16842     16845
     16837     16836     16839     16840     16837     16836     16839     16841
     16837     16836     16839     16842     16838     16836     16839     16840
     16838     16836     16839     16841     16838     16836     16839     16842
     16839     16842     16845     16846     16839     16842     16845     16847
     16839     16842     16845     16848     16840     16839     16842     16843
     16840     16839     16842     16844     16840     16839     16842     16845
     16841     16839     16842     16843     16841     16839     16842     16844
     16841     16839     16842     16845     16842     16845     16848     16849
     16842     16845     16848     16850     16842     16845     16848     16851
     16843     16842     16845     16846     16843     16842     16845     16847
     16843     16842     16845     16848     16844     16842     16845     16846
     16844     16842     16845     16847     16844     16842     16845     16848
     16845     16848     16851     16852     16845     16848     16851     16853
     16845     16848     16851     16854     16846     16845     16848     16849
     16846     16845     16848     16850     16846     16845     16848     16851
     16847     16845     16848     16849     16847     16845     16848     16850
     16847     16845     16848     16851     16848     16851     16854     16855
     16848     16851     16854     16856     16848     16851     16854     16857
     16849     16848     16851     16852     16849     16848     16851     16853
     16849     16848     16851     16854     16850     16848     16851     16852
     16850     16848     16851     16853     16850     16848     16851     16854
     16852     16851     16854     16855     16852     16851     16854     16856
     16852     16851     16854     16857     16853     16851     16854     16855
     16853     16851     16854     16856     16853     16851     16854     16857
     16858     16861     16864     16865     16858     16861     16864     16866
     16858     16861     16864     16867     16859     16858     16861     16862
     16859     16858     16861     16863     16859     16858     16861     16864
     16860     16858     16861     16862     16860     16858     16861     16863
     16860     16858     16861     16864     16861     16864     16867     16868
     16861     16864     16867     16869     16861     16864     16867     16870
     16862     16861     16864     16865     16862     16861     16864     16866
     16862     16861     16864     16867     16863     16861     16864     16865
     16863     16861     16864     16866     16863     16861     16864     16867
     16864     16867     16870     16871     16864     16867     16870     16872
     16864     16867     16870     16873     16865     16864     16867     16868
     16865     16864     16867     16869     16865     16864     16867     16870
     16866     16864     16867     16868     16866     16864     16867     16869
     16866     16864     16867     16870     16867     16870     16873     16874
     16867     16870     16873     16875     16867     16870     16873     16876
     16868     16867     16870     16871     16868     16867     16870     16872
     16868     16867     16870     16873     16869     16867     16870     16871
     16869     16867     16870     16872     16869     16867     16870     16873
     16870     16873     16876     16877     16870     16873     16876     16878
     16870     16873     16876     16879     16871     16870     16873     16874
     16871     16870     16873     16875     16871     16870     16873     16876
     16872     16870     16873     16874     16872     16870     16873     16875
     16872     16870     16873     16876     16873     16876     16879     16880
     16873     16876     16879     16881     16873     16876     16879     16882
     16874     16873     16876     16877     16874     16873     16876     16878
     16874     16873     16876     16879     16875     16873     16876     16877
     16875     16873     16876     16878     16875     16873     16876     16879
     16876     16879     16882     16883     16876     16879     16882     16884
     16876     16879     16882     16885     16877     16876     16879     16880
     16877     16876     16879     16881     16877     16876     16879     16882
     16878     16876     16879     16880     16878     16876     16879     16881
     16878     16876     16879     16882     16879     16882     16885     16886
     16879     16882     16885     16887     16879     16882     16885     16888
     16880     16879     16882     16883     16880     16879     16882     16884
     16880     16879     16882     16885     16881     16879     16882     16883
     16881     16879     16882     16884     16881     16879     16882     16885
     16882     16885     16888     16889     16882     16885     16888     16890
     16882     16885     16888     16891     16883     16882     16885     16886
     16883     16882     16885     16887     16883     16882     16885     16888
     16884     16882     16885     16886     16884     16882     16885     16887
     16884     16882     16885     16888     16885     16888     16891     16892
     16885     16888     16891     16893     16885     16888     16891     16894
     16886     16885     16888     16889     16886     16885     16888     16890
     16886     16885     16888     16891     16887     16885     16888     16889
     16887     16885     16888     16890     16887     16885     16888     16891
     16888     16891     16894     16895     16888     16891     16894     16896
     16888     16891     16894     16897     16889     16888     16891     16892
     16889     16888     16891     16893     16889     16888     16891     16894
     16890     16888     16891     16892     16890     16888     16891     16893
     16890     16888     16891     16894     16891     16894     16897     16898
     16891     16894     16897     16899     16891     16894     16897     16900
     16892     16891     16894     16895     16892     16891     16894     16896
     16892     16891     16894     16897     16893     16891     16894     16895
     16893     16891     16894     16896     16893     16891     16894     16897
     16895     16894     16897     16898     16895     16894     16897     16899
     16895     16894     16897     16900     16896     16894     16897     16898
     16896     16894     16897     16899     16896     16894     16897     16900
     16901     16902     16917     16918     16901     16902     16917     16919
     16901     16902     16917     16923     16902     16901     16905     16906
     16902     16901     16905     16907     16902     16901     16905     16908
     16902     16901     16909     16910     16902     16901     16909     16911
     16902     16901     16909     16912     16902     16901     16913     16914
     16902     16901     16913     16915     16902     16901     16913     16916
     16902     16917     16923     16920     16903     16902     16901     16905
     16903     16902     16901     16909     16903     16902     16901     16913
     16903     16902     16917     16918     16903     16902     16917     16919
     16903     16902     16917     16923     16904     16902     16901     16905
     16904     16902     16901     16909     16904     16902     16901     16913
     16904     16902     16917     16918     16904     16902     16917     16919
     16904     16902     16917     16923     16905     16901     16902     16917
     16905     16901     16909     16910     16905     16901     16909     16911
     16905     16901     16909     16912     16905     16901     16913     16914
     16905     16901     16913     16915     16905     16901     16913     16916
     16906     16905     16901     16909     16906     16905     16901     16913
     16907     16905     16901     16909     16907     16905     16901     16913
     16908     16905     16901     16909     16908     16905     16901     16913
     16909     16901     16902     16917     16909     16901     16913     16914
     16909     16901     16913     16915     16909     16901     16913     16916
     16910     16909     16901     16913     16911     16909     16901     16913
     16912     16909     16901     16913     16913     16901     16902     16917
     16917     16923     16920     16921     16917     16923     16920     16922
     16917     16923     16920     16924     16918     16917     16923     16920
     16919     16917     16923     16920     16920     16924     16925     16926
     16920     16924     16925     16927     16920     16924     16925     16928
     16921     16920     16924     16925     16922     16920     16924     16925
     16923     16920     16924     16925     16924     16925     16928     16929
     16924     16925     16928     16930     16924     16925     16928     16936
     16925     16928     16930     16931     16925     16928     16936     16937
     16925     16928     16936     16938     16925     16928     16936     16939
     16926     16925     16928     16929     16926     16925     16928     16930
     16926     16925     16928     16936     16927     16925     16928     16929
     16927     16925     16928     16930     16927     16925     16928     16936
     16928     16930     16931     16932     16928     16930     16931     16933
     16928     16936     16939     16940     16929     16928     16930     16931
     16929     16928     16936     16937     16929     16928     16936     16938
     16929     16928     16936     16939     16930     16928     16936     16937
     16930     16928     16936     16938     16930     16928     16936     16939
     16930     16931     16933     16934     16930     16931     16933     16935
     16930     16931     16933     16945     16931     16930     16928     16936
     16931     16933     16945     16946     16931     16933     16945     16947
     16931     16933     16945     16948     16932     16931     16933     16934
     16932     16931     16933     16935     16932     16931     16933     16945
     16933     16945     16948     16949     16933     16945     16948     16950
     16933     16945     16948     16951     16934     16933     16945     16946
     16934     16933     16945     16947     16934     16933     16945     16948
     16935     16933     16945     16946     16935     16933     16945     16947
     16935     16933     16945     16948     16936     16939     16940     16941
     16936     16939     16940     16942     16937     16936     16939     16940
     16938     16936     16939     16940     16939     16940     16942     16943
     16939     16940     16942     16944     16939     16940     16942     16992
     16940     16942     16992     16993     16940     16942     16992     16994
     16940     16942     16992     16995     16941     16940     16942     16943
     16941     16940     16942     16944     16941     16940     16942     16992
     16942     16992     16995     16996     16942     16992     16995     16997
     16942     16992     16995     16998     16943     16942     16992     16993
     16943     16942     16992     16994     16943     16942     16992     16995
     16944     16942     16992     16993     16944     16942     16992     16994
     16944     16942     16992     16995     16945     16948     16951     16952
     16945     16948     16951     16953     16945     16948     16951     16954
     16946     16945     16948     16949     16946     16945     16948     16950
     16946     16945     16948     16951     16947     16945     16948     16949
     16947     16945     16948     16950     16947     16945     16948     16951
     16948     16951     16954     16955     16948     16951     16954     16956
     16948     16951     16954     16957     16949     16948     16951     16952
     16949     16948     16951     16953     16949     16948     16951     16954
     16950     16948     16951     16952     16950     16948     16951     16953
     16950     16948     16951     16954     16951     16954     16957     16958
     16951     16954     16957     16959     16951     16954     16957     16960
     16952     16951     16954     16955     16952     16951     16954     16956
     16952     16951     16954     16957     16953     16951     16954     16955
     16953     16951     16954     16956     16953     16951     16954     16957
     16954     16957     16960     16961     16954     16957     16960     16962
     16954     16957     16960     16963     16955     16954     16957     16958
     16955     16954     16957     16959     16955     16954     16957     16960
     16956     16954     16957     16958     16956     16954     16957     16959
     16956     16954     16957     16960     16957     16960     16963     16964
     16957     16960     16963     16965     16958     16957     16960     16961
     16958     16957     16960     16962     16958     16957     16960     16963
     16959     16957     16960     16961     16959     16957     16960     16962
     16959     16957     16960     16963     16960     16963     16965     16966
     16960     16963     16965     16967     16961     16960     16963     16964
     16961     16960     16963     16965     16962     16960     16963     16964
     16962     16960     16963     16965     16963     16965     16967     16968
     16963     16965     16967     16969     16963     16965     16967     16970
     16964     16963     16965     16966     16964     16963     16965     16967
     16965     16967     16970     16971     16965     16967     16970     16972
     16965     16967     16970     16973     16966     16965     16967     16968
     16966     16965     16967     16969     16966     16965     16967     16970
     16967     16970     16973     16974     16967     16970     16973     16975
     16967     16970     16973     16976     16968     16967     16970     16971
     16968     16967     16970     16972     16968     16967     16970     16973
     16969     16967     16970     16971     16969     16967     16970     16972
     16969     16967     16970     16973     16970     16973     16976     16977
     16970     16973     16976     16978     16970     16973     16976     16979
     16971     16970     16973     16974     16971     16970     16973     16975
     16971     16970     16973     16976     16972     16970     16973     16974
     16972     16970     16973     16975     16972     16970     16973     16976
     16973     16976     16979     16980     16973     16976     16979     16981
     16973     16976     16979     16982     16974     16973     16976     16977
     16974     16973     16976     16978     16974     16973     16976     16979
     16975     16973     16976     16977     16975     16973     16976     16978
     16975     16973     16976     16979     16976     16979     16982     16983
     16976     16979     16982     16984     16976     16979     16982     16985
     16977     16976     16979     16980     16977     16976     16979     16981
     16977     16976     16979     16982     16978     16976     16979     16980
     16978     16976     16979     16981     16978     16976     16979     16982
     16979     16982     16985     16986     16979     16982     16985     16987
     16979     16982     16985     16988     16980     16979     16982     16983
     16980     16979     16982     16984     16980     16979     16982     16985
     16981     16979     16982     16983     16981     16979     16982     16984
     16981     16979     16982     16985     16982     16985     16988     16989
     16982     16985     16988     16990     16982     16985     16988     16991
     16983     16982     16985     16986     16983     16982     16985     16987
     16983     16982     16985     16988     16984     16982     16985     16986
     16984     16982     16985     16987     16984     16982     16985     16988
     16986     16985     16988     16989     16986     16985     16988     16990
     16986     16985     16988     16991     16987     16985     16988     16989
     16987     16985     16988     16990     16987     16985     16988     16991
     16992     16995     16998     16999     16992     16995     16998     17000
     16992     16995     16998     17001     16993     16992     16995     16996
     16993     16992     16995     16997     16993     16992     16995     16998
     16994     16992     16995     16996     16994     16992     16995     16997
     16994     16992     16995     16998     16995     16998     17001     17002
     16995     16998     17001     17003     16995     16998     17001     17004
     16996     16995     16998     16999     16996     16995     16998     17000
     16996     16995     16998     17001     16997     16995     16998     16999
     16997     16995     16998     17000     16997     16995     16998     17001
     16998     17001     17004     17005     16998     17001     17004     17006
     16998     17001     17004     17007     16999     16998     17001     17002
     16999     16998     17001     17003     16999     16998     17001     17004
     17000     16998     17001     17002     17000     16998     17001     17003
     17000     16998     17001     17004     17001     17004     17007     17008
     17001     17004     17007     17009     17001     17004     17007     17010
     17002     17001     17004     17005     17002     17001     17004     17006
     17002     17001     17004     17007     17003     17001     17004     17005
     17003     17001     17004     17006     17003     17001     17004     17007
     17004     17007     17010     17011     17004     17007     17010     17012
     17004     17007     17010     17013     17005     17004     17007     17008
     17005     17004     17007     17009     17005     17004     17007     17010
     17006     17004     17007     17008     17006     17004     17007     17009
     17006     17004     17007     17010     17007     17010     17013     17014
     17007     17010     17013     17015     17007     17010     17013     17016
     17008     17007     17010     17011     17008     17007     17010     17012
     17008     17007     17010     17013     17009     17007     17010     17011
     17009     17007     17010     17012     17009     17007     17010     17013
     17010     17013     17016     17017     17010     17013     17016     17018
     17010     17013     17016     17019     17011     17010     17013     17014
     17011     17010     17013     17015     17011     17010     17013     17016
     17012     17010     17013     17014     17012     17010     17013     17015
     17012     17010     17013     17016     17013     17016     17019     17020
     17013     17016     17019     17021     17013     17016     17019     17022
     17014     17013     17016     17017     17014     17013     17016     17018
     17014     17013     17016     17019     17015     17013     17016     17017
     17015     17013     17016     17018     17015     17013     17016     17019
     17016     17019     17022     17023     17016     17019     17022     17024
     17016     17019     17022     17025     17017     17016     17019     17020
     17017     17016     17019     17021     17017     17016     17019     17022
     17018     17016     17019     17020     17018     17016     17019     17021
     17018     17016     17019     17022     17019     17022     17025     17026
     17019     17022     17025     17027     17019     17022     17025     17028
     17020     17019     17022     17023     17020     17019     17022     17024
     17020     17019     17022     17025     17021     17019     17022     17023
     17021     17019     17022     17024     17021     17019     17022     17025
     17022     17025     17028     17029     17022     17025     17028     17030
     17022     17025     17028     17031     17023     17022     17025     17026
     17023     17022     17025     17027     17023     17022     17025     17028
     17024     17022     17025     17026     17024     17022     17025     17027
     17024     17022     17025     17028     17025     17028     17031     17032
     17025     17028     17031     17033     17025     17028     17031     17034
     17026     17025     17028     17029     17026     17025     17028     17030
     17026     17025     17028     17031     17027     17025     17028     17029
     17027     17025     17028     17030     17027     17025     17028     17031
     17029     17028     17031     17032     17029     17028     17031     17033
     17029     17028     17031     17034     17030     17028     17031     17032
     17030     17028     17031     17033     17030     17028     17031     17034
     17035     17036     17051     17052     17035     17036     17051     17053
     17035     17036     17051     17057     17036     17035     17039     17040
     17036     17035     17039     17041     17036     17035     17039     17042
     17036     17035     17043     17044     17036     17035     17043     17045
     17036     17035     17043     17046     17036     17035     17047     17048
     17036     17035     17047     17049     17036     17035     17047     17050
     17036     17051     17057     17054     17037     17036     17035     17039
     17037     17036     17035     17043     17037     17036     17035     17047
     17037     17036     17051     17052     17037     17036     17051     17053
     17037     17036     17051     17057     17038     17036     17035     17039
     17038     17036     17035     17043     17038     17036     17035     17047
     17038     17036     17051     17052     17038     17036     17051     17053
     17038     17036     17051     17057     17039     17035     17036     17051
     17039     17035     17043     17044     17039     17035     17043     17045
     17039     17035     17043     17046     17039     17035     17047     17048
     17039     17035     17047     17049     17039     17035     17047     17050
     17040     17039     17035     17043     17040     17039     17035     17047
     17041     17039     17035     17043     17041     17039     17035     17047
     17042     17039     17035     17043     17042     17039     17035     17047
     17043     17035     17036     17051     17043     17035     17047     17048
     17043     17035     17047     17049     17043     17035     17047     17050
     17044     17043     17035     17047     17045     17043     17035     17047
     17046     17043     17035     17047     17047     17035     17036     17051
     17051     17057     17054     17055     17051     17057     17054     17056
     17051     17057     17054     17058     17052     17051     17057     17054
     17053     17051     17057     17054     17054     17058     17059     17060
     17054     17058     17059     17061     17054     17058     17059     17062
     17055     17054     17058     17059     17056     17054     17058     17059
     17057     17054     17058     17059     17058     17059     17062     17063
     17058     17059     17062     17064     17058     17059     17062     17070
     17059     17062     17064     17065     17059     17062     17070     17071
     17059     17062     17070     17072     17059     17062     17070     17073
     17060     17059     17062     17063     17060     17059     17062     17064
     17060     17059     17062     17070     17061     17059     17062     17063
     17061     17059     17062     17064     17061     17059     17062     17070
     17062     17064     17065     17066     17062     17064     17065     17067
     17062     17070     17073     17074     17063     17062     17064     17065
     17063     17062     17070     17071     17063     17062     17070     17072
     17063     17062     17070     17073     17064     17062     17070     17071
     17064     17062     17070     17072     17064     17062     17070     17073
     17064     17065     17067     17068     17064     17065     17067     17069
     17064     17065     17067     17079     17065     17064     17062     17070
     17065     17067     17079     17080     17065     17067     17079     17081
     17065     17067     17079     17082     17066     17065     17067     17068
     17066     17065     17067     17069     17066     17065     17067     17079
     17067     17079     17082     17083     17067     17079     17082     17084
     17067     17079     17082     17085     17068     17067     17079     17080
     17068     17067     17079     17081     17068     17067     17079     17082
     17069     17067     17079     17080     17069     17067     17079     17081
     17069     17067     17079     17082     17070     17073     17074     17075
     17070     17073     17074     17076     17071     17070     17073     17074
     17072     17070     17073     17074     17073     17074     17076     17077
     17073     17074     17076     17078     17073     17074     17076     17126
     17074     17076     17126     17127     17074     17076     17126     17128
     17074     17076     17126     17129     17075     17074     17076     17077
     17075     17074     17076     17078     17075     17074     17076     17126
     17076     17126     17129     17130     17076     17126     17129     17131
     17076     17126     17129     17132     17077     17076     17126     17127
     17077     17076     17126     17128     17077     17076     17126     17129
     17078     17076     17126     17127     17078     17076     17126     17128
     17078     17076     17126     17129     17079     17082     17085     17086
     17079     17082     17085     17087     17079     17082     17085     17088
     17080     17079     17082     17083     17080     17079     17082     17084
     17080     17079     17082     17085     17081     17079     17082     17083
     17081     17079     17082     17084     17081     17079     17082     17085
     17082     17085     17088     17089     17082     17085     17088     17090
     17082     17085     17088     17091     17083     17082     17085     17086
     17083     17082     17085     17087     17083     17082     17085     17088
     17084     17082     17085     17086     17084     17082     17085     17087
     17084     17082     17085     17088     17085     17088     17091     17092
     17085     17088     17091     17093     17085     17088     17091     17094
     17086     17085     17088     17089     17086     17085     17088     17090
     17086     17085     17088     17091     17087     17085     17088     17089
     17087     17085     17088     17090     17087     17085     17088     17091
     17088     17091     17094     17095     17088     17091     17094     17096
     17088     17091     17094     17097     17089     17088     17091     17092
     17089     17088     17091     17093     17089     17088     17091     17094
     17090     17088     17091     17092     17090     17088     17091     17093
     17090     17088     17091     17094     17091     17094     17097     17098
     17091     17094     17097     17099     17092     17091     17094     17095
     17092     17091     17094     17096     17092     17091     17094     17097
     17093     17091     17094     17095     17093     17091     17094     17096
     17093     17091     17094     17097     17094     17097     17099     17100
     17094     17097     17099     17101     17095     17094     17097     17098
     17095     17094     17097     17099     17096     17094     17097     17098
     17096     17094     17097     17099     17097     17099     17101     17102
     17097     17099     17101     17103     17097     17099     17101     17104
     17098     17097     17099     17100     17098     17097     17099     17101
     17099     17101     17104     17105     17099     17101     17104     17106
     17099     17101     17104     17107     17100     17099     17101     17102
     17100     17099     17101     17103     17100     17099     17101     17104
     17101     17104     17107     17108     17101     17104     17107     17109
     17101     17104     17107     17110     17102     17101     17104     17105
     17102     17101     17104     17106     17102     17101     17104     17107
     17103     17101     17104     17105     17103     17101     17104     17106
     17103     17101     17104     17107     17104     17107     17110     17111
     17104     17107     17110     17112     17104     17107     17110     17113
     17105     17104     17107     17108     17105     17104     17107     17109
     17105     17104     17107     17110     17106     17104     17107     17108
     17106     17104     17107     17109     17106     17104     17107     17110
     17107     17110     17113     17114     17107     17110     17113     17115
     17107     17110     17113     17116     17108     17107     17110     17111
     17108     17107     17110     17112     17108     17107     17110     17113
     17109     17107     17110     17111     17109     17107     17110     17112
     17109     17107     17110     17113     17110     17113     17116     17117
     17110     17113     17116     17118     17110     17113     17116     17119
     17111     17110     17113     17114     17111     17110     17113     17115
     17111     17110     17113     17116     17112     17110     17113     17114
     17112     17110     17113     17115     17112     17110     17113     17116
     17113     17116     17119     17120     17113     17116     17119     17121
     17113     17116     17119     17122     17114     17113     17116     17117
     17114     17113     17116     17118     17114     17113     17116     17119
     17115     17113     17116     17117     17115     17113     17116     17118
     17115     17113     17116     17119     17116     17119     17122     17123
     17116     17119     17122     17124     17116     17119     17122     17125
     17117     17116     17119     17120     17117     17116     17119     17121
     17117     17116     17119     17122     17118     17116     17119     17120
     17118     17116     17119     17121     17118     17116     17119     17122
     17120     17119     17122     17123     17120     17119     17122     17124
     17120     17119     17122     17125     17121     17119     17122     17123
     17121     17119     17122     17124     17121     17119     17122     17125
     17126     17129     17132     17133     17126     17129     17132     17134
     17126     17129     17132     17135     17127     17126     17129     17130
     17127     17126     17129     17131     17127     17126     17129     17132
     17128     17126     17129     17130     17128     17126     17129     17131
     17128     17126     17129     17132     17129     17132     17135     17136
     17129     17132     17135     17137     17129     17132     17135     17138
     17130     17129     17132     17133     17130     17129     17132     17134
     17130     17129     17132     17135     17131     17129     17132     17133
     17131     17129     17132     17134     17131     17129     17132     17135
     17132     17135     17138     17139     17132     17135     17138     17140
     17132     17135     17138     17141     17133     17132     17135     17136
     17133     17132     17135     17137     17133     17132     17135     17138
     17134     17132     17135     17136     17134     17132     17135     17137
     17134     17132     17135     17138     17135     17138     17141     17142
     17135     17138     17141     17143     17135     17138     17141     17144
     17136     17135     17138     17139     17136     17135     17138     17140
     17136     17135     17138     17141     17137     17135     17138     17139
     17137     17135     17138     17140     17137     17135     17138     17141
     17138     17141     17144     17145     17138     17141     17144     17146
     17138     17141     17144     17147     17139     17138     17141     17142
     17139     17138     17141     17143     17139     17138     17141     17144
     17140     17138     17141     17142     17140     17138     17141     17143
     17140     17138     17141     17144     17141     17144     17147     17148
     17141     17144     17147     17149     17141     17144     17147     17150
     17142     17141     17144     17145     17142     17141     17144     17146
     17142     17141     17144     17147     17143     17141     17144     17145
     17143     17141     17144     17146     17143     17141     17144     17147
     17144     17147     17150     17151     17144     17147     17150     17152
     17144     17147     17150     17153     17145     17144     17147     17148
     17145     17144     17147     17149     17145     17144     17147     17150
     17146     17144     17147     17148     17146     17144     17147     17149
     17146     17144     17147     17150     17147     17150     17153     17154
     17147     17150     17153     17155     17147     17150     17153     17156
     17148     17147     17150     17151     17148     17147     17150     17152
     17148     17147     17150     17153     17149     17147     17150     17151
     17149     17147     17150     17152     17149     17147     17150     17153
     17150     17153     17156     17157     17150     17153     17156     17158
     17150     17153     17156     17159     17151     17150     17153     17154
     17151     17150     17153     17155     17151     17150     17153     17156
     17152     17150     17153     17154     17152     17150     17153     17155
     17152     17150     17153     17156     17153     17156     17159     17160
     17153     17156     17159     17161     17153     17156     17159     17162
     17154     17153     17156     17157     17154     17153     17156     17158
     17154     17153     17156     17159     17155     17153     17156     17157
     17155     17153     17156     17158     17155     17153     17156     17159
     17156     17159     17162     17163     17156     17159     17162     17164
     17156     17159     17162     17165     17157     17156     17159     17160
     17157     17156     17159     17161     17157     17156     17159     17162
     17158     17156     17159     17160     17158     17156     17159     17161
     17158     17156     17159     17162     17159     17162     17165     17166
     17159     17162     17165     17167     17159     17162     17165     17168
     17160     17159     17162     17163     17160     17159     17162     17164
     17160     17159     17162     17165     17161     17159     17162     17163
     17161     17159     17162     17164     17161     17159     17162     17165
     17163     17162     17165     17166     17163     17162     17165     17167
     17163     17162     17165     17168     17164     17162     17165     17166
     17164     17162     17165     17167     17164     17162     17165     17168
     10503     10507     10509     10510     10503     10507     10509     10511
     10503     10507     10512     10513     10503     10507     10512     10514
     10503     10507     10512     10518     10504     10503     10507     10508
     10504     10503     10507     10509     10504     10503     10507     10512
     10505     10503     10507     10508     10505     10503     10507     10509
     10505     10503     10507     10512     10506     10503     10507     10508
     10506     10503     10507     10509     10506     10503     10507     10512
     10507     10512     10518     10515     10508     10507     10509     10510
     10508     10507     10509     10511     10508     10507     10512     10513
     10508     10507     10512     10514     10508     10507     10512     10518
     10509     10507     10512     10513     10509     10507     10512     10514
     10509     10507     10512     10518     10510     10509     10507     10512
     10511     10509     10507     10512     10512     10518     10515     10516
     10512     10518     10515     10517     10512     10518     10515     10519
     10513     10512     10518     10515     10514     10512     10518     10515
     10515     10519     10520     10521     10515     10519     10520     10522
     10515     10519     10520     10523     10516     10515     10519     10520
     10517     10515     10519     10520     10518     10515     10519     10520
     10519     10520     10523     10524     10519     10520     10523     10525
     10519     10520     10523     10531     10520     10523     10525     10526
     10520     10523     10531     10532     10520     10523     10531     10533
     10520     10523     10531     10534     10521     10520     10523     10524
     10521     10520     10523     10525     10521     10520     10523     10531
     10522     10520     10523     10524     10522     10520     10523     10525
     10522     10520     10523     10531     10523     10525     10526     10527
     10523     10525     10526     10528     10523     10531     10534     10535
     10524     10523     10525     10526     10524     10523     10531     10532
     10524     10523     10531     10533     10524     10523     10531     10534
     10525     10523     10531     10532     10525     10523     10531     10533
     10525     10523     10531     10534     10525     10526     10528     10529
     10525     10526     10528     10530     10525     10526     10528     10540
     10526     10525     10523     10531     10526     10528     10540     10541
     10526     10528     10540     10542     10526     10528     10540     10543
     10527     10526     10528     10529     10527     10526     10528     10530
     10527     10526     10528     10540     10528     10540     10543     10544
     10528     10540     10543     10545     10528     10540     10543     10546
     10529     10528     10540     10541     10529     10528     10540     10542
     10529     10528     10540     10543     10530     10528     10540     10541
     10530     10528     10540     10542     10530     10528     10540     10543
     10531     10534     10535     10536     10531     10534     10535     10537
     10532     10531     10534     10535     10533     10531     10534     10535
     10534     10535     10537     10538     10534     10535     10537     10539
     10534     10535     10537     10587     10535     10537     10587     10588
     10535     10537     10587     10589     10535     10537     10587     10590
     10536     10535     10537     10538     10536     10535     10537     10539
     10536     10535     10537     10587     10537     10587     10590     10591
     10537     10587     10590     10592     10537     10587     10590     10593
     10538     10537     10587     10588     10538     10537     10587     10589
     10538     10537     10587     10590     10539     10537     10587     10588
     10539     10537     10587     10589     10539     10537     10587     10590
     10540     10543     10546     10547     10540     10543     10546     10548
     10540     10543     10546     10549     10541     10540     10543     10544
     10541     10540     10543     10545     10541     10540     10543     10546
     10542     10540     10543     10544     10542     10540     10543     10545
     10542     10540     10543     10546     10543     10546     10549     10550
     10543     10546     10549     10551     10543     10546     10549     10552
     10544     10543     10546     10547     10544     10543     10546     10548
     10544     10543     10546     10549     10545     10543     10546     10547
     10545     10543     10546     10548     10545     10543     10546     10549
     10546     10549     10552     10553     10546     10549     10552     10554
     10546     10549     10552     10555     10547     10546     10549     10550
     10547     10546     10549     10551     10547     10546     10549     10552
     10548     10546     10549     10550     10548     10546     10549     10551
     10548     10546     10549     10552     10549     10552     10555     10556
     10549     10552     10555     10557     10549     10552     10555     10558
     10550     10549     10552     10553     10550     10549     10552     10554
     10550     10549     10552     10555     10551     10549     10552     10553
     10551     10549     10552     10554     10551     10549     10552     10555
     10552     10555     10558     10559     10552     10555     10558     10560
     10553     10552     10555     10556     10553     10552     10555     10557
     10553     10552     10555     10558     10554     10552     10555     10556
     10554     10552     10555     10557     10554     10552     10555     10558
     10555     10558     10560     10561     10555     10558     10560     10562
     10556     10555     10558     10559     10556     10555     10558     10560
     10557     10555     10558     10559     10557     10555     10558     10560
     10558     10560     10562     10563     10558     10560     10562     10564
     10558     10560     10562     10565     10559     10558     10560     10561
     10559     10558     10560     10562     10560     10562     10565     10566
     10560     10562     10565     10567     10560     10562     10565     10568
     10561     10560     10562     10563     10561     10560     10562     10564
     10561     10560     10562     10565     10562     10565     10568     10569
     10562     10565     10568     10570     10562     10565     10568     10571
     10563     10562     10565     10566     10563     10562     10565     10567
     10563     10562     10565     10568     10564     10562     10565     10566
     10564     10562     10565     10567     10564     10562     10565     10568
     10565     10568     10571     10572     10565     10568     10571     10573
     10565     10568     10571     10574     10566     10565     10568     10569
     10566     10565     10568     10570     10566     10565     10568     10571
     10567     10565     10568     10569     10567     10565     10568     10570
     10567     10565     10568     10571     10568     10571     10574     10575
     10568     10571     10574     10576     10568     10571     10574     10577
     10569     10568     10571     10572     10569     10568     10571     10573
     10569     10568     10571     10574     10570     10568     10571     10572
     10570     10568     10571     10573     10570     10568     10571     10574
     10571     10574     10577     10578     10571     10574     10577     10579
     10571     10574     10577     10580     10572     10571     10574     10575
     10572     10571     10574     10576     10572     10571     10574     10577
     10573     10571     10574     10575     10573     10571     10574     10576
     10573     10571     10574     10577     10574     10577     10580     10581
     10574     10577     10580     10582     10574     10577     10580     10583
     10575     10574     10577     10578     10575     10574     10577     10579
     10575     10574     10577     10580     10576     10574     10577     10578
     10576     10574     10577     10579     10576     10574     10577     10580
     10577     10580     10583     10584     10577     10580     10583     10585
     10577     10580     10583     10586     10578     10577     10580     10581
     10578     10577     10580     10582     10578     10577     10580     10583
     10579     10577     10580     10581     10579     10577     10580     10582
     10579     10577     10580     10583     10581     10580     10583     10584
     10581     10580     10583     10585     10581     10580     10583     10586
     10582     10580     10583     10584     10582     10580     10583     10585
     10582     10580     10583     10586     10587     10590     10593     10594
     10587     10590     10593     10595     10587     10590     10593     10596
     10588     10587     10590     10591     10588     10587     10590     10592
     10588     10587     10590     10593     10589     10587     10590     10591
     10589     10587     10590     10592     10589     10587     10590     10593
     10590     10593     10596     10597     10590     10593     10596     10598
     10590     10593     10596     10599     10591     10590     10593     10594
     10591     10590     10593     10595     10591     10590     10593     10596
     10592     10590     10593     10594     10592     10590     10593     10595
     10592     10590     10593     10596     10593     10596     10599     10600
     10593     10596     10599     10601     10593     10596     10599     10602
     10594     10593     10596     10597     10594     10593     10596     10598
     10594     10593     10596     10599     10595     10593     10596     10597
     10595     10593     10596     10598     10595     10593     10596     10599
     10596     10599     10602     10603     10596     10599     10602     10604
     10596     10599     10602     10605     10597     10596     10599     10600
     10597     10596     10599     10601     10597     10596     10599     10602
     10598     10596     10599     10600     10598     10596     10599     10601
     10598     10596     10599     10602     10599     10602     10605     10606
     10599     10602     10605     10607     10599     10602     10605     10608
     10600     10599     10602     10603     10600     10599     10602     10604
     10600     10599     10602     10605     10601     10599     10602     10603
     10601     10599     10602     10604     10601     10599     10602     10605
     10602     10605     10608     10609     10602     10605     10608     10610
     10602     10605     10608     10611     10603     10602     10605     10606
     10603     10602     10605     10607     10603     10602     10605     10608
     10604     10602     10605     10606     10604     10602     10605     10607
     10604     10602     10605     10608     10605     10608     10611     10612
     10605     10608     10611     10613     10605     10608     10611     10614
     10606     10605     10608     10609     10606     10605     10608     10610
     10606     10605     10608     10611     10607     10605     10608     10609
     10607     10605     10608     10610     10607     10605     10608     10611
     10608     10611     10614     10615     10608     10611     10614     10616
     10608     10611     10614     10617     10609     10608     10611     10612
     10609     10608     10611     10613     10609     10608     10611     10614
     10610     10608     10611     10612     10610     10608     10611     10613
     10610     10608     10611     10614     10611     10614     10617     10618
     10611     10614     10617     10619     10611     10614     10617     10620
     10612     10611     10614     10615     10612     10611     10614     10616
     10612     10611     10614     10617     10613     10611     10614     10615
     10613     10611     10614     10616     10613     10611     10614     10617
     10614     10617     10620     10621     10614     10617     10620     10622
     10614     10617     10620     10623     10615     10614     10617     10618
     10615     10614     10617     10619     10615     10614     10617     10620
     10616     10614     10617     10618     10616     10614     10617     10619
     10616     10614     10617     10620     10617     10620     10623     10624
     10617     10620     10623     10625     10617     10620     10623     10626
     10618     10617     10620     10621     10618     10617     10620     10622
     10618     10617     10620     10623     10619     10617     10620     10621
     10619     10617     10620     10622     10619     10617     10620     10623
     10620     10623     10626     10627     10620     10623     10626     10628
     10620     10623     10626     10629     10621     10620     10623     10624
     10621     10620     10623     10625     10621     10620     10623     10626
     10622     10620     10623     10624     10622     10620     10623     10625
     10622     10620     10623     10626     10624     10623     10626     10627
     10624     10623     10626     10628     10624     10623     10626     10629
     10625     10623     10626     10627     10625     10623     10626     10628
     10625     10623     10626     10629     17169     17170     17185     17186
     17169     17170     17185     17187     17169     17170     17185     17191
     17170     17169     17173     17174     17170     17169     17173     17175
     17170     17169     17173     17176     17170     17169     17177     17178
     17170     17169     17177     17179     17170     17169     17177     17180
     17170     17169     17181     17182     17170     17169     17181     17183
     17170     17169     17181     17184     17170     17185     17191     17188
     17171     17170     17169     17173     17171     17170     17169     17177
     17171     17170     17169     17181     17171     17170     17185     17186
     17171     17170     17185     17187     17171     17170     17185     17191
     17172     17170     17169     17173     17172     17170     17169     17177
     17172     17170     17169     17181     17172     17170     17185     17186
     17172     17170     17185     17187     17172     17170     17185     17191
     17173     17169     17170     17185     17173     17169     17177     17178
     17173     17169     17177     17179     17173     17169     17177     17180
     17173     17169     17181     17182     17173     17169     17181     17183
     17173     17169     17181     17184     17174     17173     17169     17177
     17174     17173     17169     17181     17175     17173     17169     17177
     17175     17173     17169     17181     17176     17173     17169     17177
     17176     17173     17169     17181     17177     17169     17170     17185
     17177     17169     17181     17182     17177     17169     17181     17183
     17177     17169     17181     17184     17178     17177     17169     17181
     17179     17177     17169     17181     17180     17177     17169     17181
     17181     17169     17170     17185     17185     17191     17188     17189
     17185     17191     17188     17190     17185     17191     17188     17192
     17186     17185     17191     17188     17187     17185     17191     17188
     17188     17192     17193     17194     17188     17192     17193     17195
     17188     17192     17193     17196     17189     17188     17192     17193
     17190     17188     17192     17193     17191     17188     17192     17193
     17192     17193     17196     17197     17192     17193     17196     17198
     17192     17193     17196     17204     17193     17196     17198     17199
     17193     17196     17204     17205     17193     17196     17204     17206
     17193     17196     17204     17207     17194     17193     17196     17197
     17194     17193     17196     17198     17194     17193     17196     17204
     17195     17193     17196     17197     17195     17193     17196     17198
     17195     17193     17196     17204     17196     17198     17199     17200
     17196     17198     17199     17201     17196     17204     17207     17208
     17197     17196     17198     17199     17197     17196     17204     17205
     17197     17196     17204     17206     17197     17196     17204     17207
     17198     17196     17204     17205     17198     17196     17204     17206
     17198     17196     17204     17207     17198     17199     17201     17202
     17198     17199     17201     17203     17198     17199     17201     17213
     17199     17198     17196     17204     17199     17201     17213     17214
     17199     17201     17213     17215     17199     17201     17213     17216
     17200     17199     17201     17202     17200     17199     17201     17203
     17200     17199     17201     17213     17201     17213     17216     17217
     17201     17213     17216     17218     17201     17213     17216     17219
     17202     17201     17213     17214     17202     17201     17213     17215
     17202     17201     17213     17216     17203     17201     17213     17214
     17203     17201     17213     17215     17203     17201     17213     17216
     17204     17207     17208     17209     17204     17207     17208     17210
     17205     17204     17207     17208     17206     17204     17207     17208
     17207     17208     17210     17211     17207     17208     17210     17212
     17207     17208     17210     17260     17208     17210     17260     17261
     17208     17210     17260     17262     17208     17210     17260     17263
     17209     17208     17210     17211     17209     17208     17210     17212
     17209     17208     17210     17260     17210     17260     17263     17264
     17210     17260     17263     17265     17210     17260     17263     17266
     17211     17210     17260     17261     17211     17210     17260     17262
     17211     17210     17260     17263     17212     17210     17260     17261
     17212     17210     17260     17262     17212     17210     17260     17263
     17213     17216     17219     17220     17213     17216     17219     17221
     17213     17216     17219     17222     17214     17213     17216     17217
     17214     17213     17216     17218     17214     17213     17216     17219
     17215     17213     17216     17217     17215     17213     17216     17218
     17215     17213     17216     17219     17216     17219     17222     17223
     17216     17219     17222     17224     17216     17219     17222     17225
     17217     17216     17219     17220     17217     17216     17219     17221
     17217     17216     17219     17222     17218     17216     17219     17220
     17218     17216     17219     17221     17218     17216     17219     17222
     17219     17222     17225     17226     17219     17222     17225     17227
     17219     17222     17225     17228     17220     17219     17222     17223
     17220     17219     17222     17224     17220     17219     17222     17225
     17221     17219     17222     17223     17221     17219     17222     17224
     17221     17219     17222     17225     17222     17225     17228     17229
     17222     17225     17228     17230     17222     17225     17228     17231
     17223     17222     17225     17226     17223     17222     17225     17227
     17223     17222     17225     17228     17224     17222     17225     17226
     17224     17222     17225     17227     17224     17222     17225     17228
     17225     17228     17231     17232     17225     17228     17231     17233
     17226     17225     17228     17229     17226     17225     17228     17230
     17226     17225     17228     17231     17227     17225     17228     17229
     17227     17225     17228     17230     17227     17225     17228     17231
     17228     17231     17233     17234     17228     17231     17233     17235
     17229     17228     17231     17232     17229     17228     17231     17233
     17230     17228     17231     17232     17230     17228     17231     17233
     17231     17233     17235     17236     17231     17233     17235     17237
     17231     17233     17235     17238     17232     17231     17233     17234
     17232     17231     17233     17235     17233     17235     17238     17239
     17233     17235     17238     17240     17233     17235     17238     17241
     17234     17233     17235     17236     17234     17233     17235     17237
     17234     17233     17235     17238     17235     17238     17241     17242
     17235     17238     17241     17243     17235     17238     17241     17244
     17236     17235     17238     17239     17236     17235     17238     17240
     17236     17235     17238     17241     17237     17235     17238     17239
     17237     17235     17238     17240     17237     17235     17238     17241
     17238     17241     17244     17245     17238     17241     17244     17246
     17238     17241     17244     17247     17239     17238     17241     17242
     17239     17238     17241     17243     17239     17238     17241     17244
     17240     17238     17241     17242     17240     17238     17241     17243
     17240     17238     17241     17244     17241     17244     17247     17248
     17241     17244     17247     17249     17241     17244     17247     17250
     17242     17241     17244     17245     17242     17241     17244     17246
     17242     17241     17244     17247     17243     17241     17244     17245
     17243     17241     17244     17246     17243     17241     17244     17247
     17244     17247     17250     17251     17244     17247     17250     17252
     17244     17247     17250     17253     17245     17244     17247     17248
     17245     17244     17247     17249     17245     17244     17247     17250
     17246     17244     17247     17248     17246     17244     17247     17249
     17246     17244     17247     17250     17247     17250     17253     17254
     17247     17250     17253     17255     17247     17250     17253     17256
     17248     17247     17250     17251     17248     17247     17250     17252
     17248     17247     17250     17253     17249     17247     17250     17251
     17249     17247     17250     17252     17249     17247     17250     17253
     17250     17253     17256     17257     17250     17253     17256     17258
     17250     17253     17256     17259     17251     17250     17253     17254
     17251     17250     17253     17255     17251     17250     17253     17256
     17252     17250     17253     17254     17252     17250     17253     17255
     17252     17250     17253     17256     17254     17253     17256     17257
     17254     17253     17256     17258     17254     17253     17256     17259
     17255     17253     17256     17257     17255     17253     17256     17258
     17255     17253     17256     17259     17260     17263     17266     17267
     17260     17263     17266     17268     17260     17263     17266     17269
     17261     17260     17263     17264     17261     17260     17263     17265
     17261     17260     17263     17266     17262     17260     17263     17264
     17262     17260     17263     17265     17262     17260     17263     17266
     17263     17266     17269     17270     17263     17266     17269     17271
     17263     17266     17269     17272     17264     17263     17266     17267
     17264     17263     17266     17268     17264     17263     17266     17269
     17265     17263     17266     17267     17265     17263     17266     17268
     17265     17263     17266     17269     17266     17269     17272     17273
     17266     17269     17272     17274     17266     17269     17272     17275
     17267     17266     17269     17270     17267     17266     17269     17271
     17267     17266     17269     17272     17268     17266     17269     17270
     17268     17266     17269     17271     17268     17266     17269     17272
     17269     17272     17275     17276     17269     17272     17275     17277
     17269     17272     17275     17278     17270     17269     17272     17273
     17270     17269     17272     17274     17270     17269     17272     17275
     17271     17269     17272     17273     17271     17269     17272     17274
     17271     17269     17272     17275     17272     17275     17278     17279
     17272     17275     17278     17280     17272     17275     17278     17281
     17273     17272     17275     17276     17273     17272     17275     17277
     17273     17272     17275     17278     17274     17272     17275     17276
     17274     17272     17275     17277     17274     17272     17275     17278
     17275     17278     17281     17282     17275     17278     17281     17283
     17275     17278     17281     17284     17276     17275     17278     17279
     17276     17275     17278     17280     17276     17275     17278     17281
     17277     17275     17278     17279     17277     17275     17278     17280
     17277     17275     17278     17281     17278     17281     17284     17285
     17278     17281     17284     17286     17278     17281     17284     17287
     17279     17278     17281     17282     17279     17278     17281     17283
     17279     17278     17281     17284     17280     17278     17281     17282
     17280     17278     17281     17283     17280     17278     17281     17284
     17281     17284     17287     17288     17281     17284     17287     17289
     17281     17284     17287     17290     17282     17281     17284     17285
     17282     17281     17284     17286     17282     17281     17284     17287
     17283     17281     17284     17285     17283     17281     17284     17286
     17283     17281     17284     17287     17284     17287     17290     17291
     17284     17287     17290     17292     17284     17287     17290     17293
     17285     17284     17287     17288     17285     17284     17287     17289
     17285     17284     17287     17290     17286     17284     17287     17288
     17286     17284     17287     17289     17286     17284     17287     17290
     17287     17290     17293     17294     17287     17290     17293     17295
     17287     17290     17293     17296     17288     17287     17290     17291
     17288     17287     17290     17292     17288     17287     17290     17293
     17289     17287     17290     17291     17289     17287     17290     17292
     17289     17287     17290     17293     17290     17293     17296     17297
     17290     17293     17296     17298     17290     17293     17296     17299
     17291     17290     17293     17294     17291     17290     17293     17295
     17291     17290     17293     17296     17292     17290     17293     17294
     17292     17290     17293     17295     17292     17290     17293     17296
     17293     17296     17299     17300     17293     17296     17299     17301
     17293     17296     17299     17302     17294     17293     17296     17297
     17294     17293     17296     17298     17294     17293     17296     17299
     17295     17293     17296     17297     17295     17293     17296     17298
     17295     17293     17296     17299     17297     17296     17299     17300
     17297     17296     17299     17301     17297     17296     17299     17302
     17298     17296     17299     17300     17298     17296     17299     17301
     17298     17296     17299     17302     10630     10634     10636     10637
     10630     10634     10636     10638     10630     10634     10639     10640
     10630     10634     10639     10641     10630     10634     10639     10645
     10631     10630     10634     10635     10631     10630     10634     10636
     10631     10630     10634     10639     10632     10630     10634     10635
     10632     10630     10634     10636     10632     10630     10634     10639
     10633     10630     10634     10635     10633     10630     10634     10636
     10633     10630     10634     10639     10634     10639     10645     10642
     10635     10634     10636     10637     10635     10634     10636     10638
     10635     10634     10639     10640     10635     10634     10639     10641
     10635     10634     10639     10645     10636     10634     10639     10640
     10636     10634     10639     10641     10636     10634     10639     10645
     10637     10636     10634     10639     10638     10636     10634     10639
     10639     10645     10642     10643     10639     10645     10642     10644
     10639     10645     10642     10646     10640     10639     10645     10642
     10641     10639     10645     10642     10642     10646     10647     10648
     10642     10646     10647     10649     10642     10646     10647     10650
     10643     10642     10646     10647     10644     10642     10646     10647
     10645     10642     10646     10647     10646     10647     10650     10651
     10646     10647     10650     10652     10646     10647     10650     10658
     10647     10650     10652     10653     10647     10650     10658     10659
     10647     10650     10658     10660     10647     10650     10658     10661
     10648     10647     10650     10651     10648     10647     10650     10652
     10648     10647     10650     10658     10649     10647     10650     10651
     10649     10647     10650     10652     10649     10647     10650     10658
     10650     10652     10653     10654     10650     10652     10653     10655
     10650     10658     10661     10662     10651     10650     10652     10653
     10651     10650     10658     10659     10651     10650     10658     10660
     10651     10650     10658     10661     10652     10650     10658     10659
     10652     10650     10658     10660     10652     10650     10658     10661
     10652     10653     10655     10656     10652     10653     10655     10657
     10652     10653     10655     10667     10653     10652     10650     10658
     10653     10655     10667     10668     10653     10655     10667     10669
     10653     10655     10667     10670     10654     10653     10655     10656
     10654     10653     10655     10657     10654     10653     10655     10667
     10655     10667     10670     10671     10655     10667     10670     10672
     10655     10667     10670     10673     10656     10655     10667     10668
     10656     10655     10667     10669     10656     10655     10667     10670
     10657     10655     10667     10668     10657     10655     10667     10669
     10657     10655     10667     10670     10658     10661     10662     10663
     10658     10661     10662     10664     10659     10658     10661     10662
     10660     10658     10661     10662     10661     10662     10664     10665
     10661     10662     10664     10666     10661     10662     10664     10714
     10662     10664     10714     10715     10662     10664     10714     10716
     10662     10664     10714     10717     10663     10662     10664     10665
     10663     10662     10664     10666     10663     10662     10664     10714
     10664     10714     10717     10718     10664     10714     10717     10719
     10664     10714     10717     10720     10665     10664     10714     10715
     10665     10664     10714     10716     10665     10664     10714     10717
     10666     10664     10714     10715     10666     10664     10714     10716
     10666     10664     10714     10717     10667     10670     10673     10674
     10667     10670     10673     10675     10667     10670     10673     10676
     10668     10667     10670     10671     10668     10667     10670     10672
     10668     10667     10670     10673     10669     10667     10670     10671
     10669     10667     10670     10672     10669     10667     10670     10673
     10670     10673     10676     10677     10670     10673     10676     10678
     10670     10673     10676     10679     10671     10670     10673     10674
     10671     10670     10673     10675     10671     10670     10673     10676
     10672     10670     10673     10674     10672     10670     10673     10675
     10672     10670     10673     10676     10673     10676     10679     10680
     10673     10676     10679     10681     10673     10676     10679     10682
     10674     10673     10676     10677     10674     10673     10676     10678
     10674     10673     10676     10679     10675     10673     10676     10677
     10675     10673     10676     10678     10675     10673     10676     10679
     10676     10679     10682     10683     10676     10679     10682     10684
     10676     10679     10682     10685     10677     10676     10679     10680
     10677     10676     10679     10681     10677     10676     10679     10682
     10678     10676     10679     10680     10678     10676     10679     10681
     10678     10676     10679     10682     10679     10682     10685     10686
     10679     10682     10685     10687     10680     10679     10682     10683
     10680     10679     10682     10684     10680     10679     10682     10685
     10681     10679     10682     10683     10681     10679     10682     10684
     10681     10679     10682     10685     10682     10685     10687     10688
     10682     10685     10687     10689     10683     10682     10685     10686
     10683     10682     10685     10687     10684     10682     10685     10686
     10684     10682     10685     10687     10685     10687     10689     10690
     10685     10687     10689     10691     10685     10687     10689     10692
     10686     10685     10687     10688     10686     10685     10687     10689
     10687     10689     10692     10693     10687     10689     10692     10694
     10687     10689     10692     10695     10688     10687     10689     10690
     10688     10687     10689     10691     10688     10687     10689     10692
     10689     10692     10695     10696     10689     10692     10695     10697
     10689     10692     10695     10698     10690     10689     10692     10693
     10690     10689     10692     10694     10690     10689     10692     10695
     10691     10689     10692     10693     10691     10689     10692     10694
     10691     10689     10692     10695     10692     10695     10698     10699
     10692     10695     10698     10700     10692     10695     10698     10701
     10693     10692     10695     10696     10693     10692     10695     10697
     10693     10692     10695     10698     10694     10692     10695     10696
     10694     10692     10695     10697     10694     10692     10695     10698
     10695     10698     10701     10702     10695     10698     10701     10703
     10695     10698     10701     10704     10696     10695     10698     10699
     10696     10695     10698     10700     10696     10695     10698     10701
     10697     10695     10698     10699     10697     10695     10698     10700
     10697     10695     10698     10701     10698     10701     10704     10705
     10698     10701     10704     10706     10698     10701     10704     10707
     10699     10698     10701     10702     10699     10698     10701     10703
     10699     10698     10701     10704     10700     10698     10701     10702
     10700     10698     10701     10703     10700     10698     10701     10704
     10701     10704     10707     10708     10701     10704     10707     10709
     10701     10704     10707     10710     10702     10701     10704     10705
     10702     10701     10704     10706     10702     10701     10704     10707
     10703     10701     10704     10705     10703     10701     10704     10706
     10703     10701     10704     10707     10704     10707     10710     10711
     10704     10707     10710     10712     10704     10707     10710     10713
     10705     10704     10707     10708     10705     10704     10707     10709
     10705     10704     10707     10710     10706     10704     10707     10708
     10706     10704     10707     10709     10706     10704     10707     10710
     10708     10707     10710     10711     10708     10707     10710     10712
     10708     10707     10710     10713     10709     10707     10710     10711
     10709     10707     10710     10712     10709     10707     10710     10713
     10714     10717     10720     10721     10714     10717     10720     10722
     10714     10717     10720     10723     10715     10714     10717     10718
     10715     10714     10717     10719     10715     10714     10717     10720
     10716     10714     10717     10718     10716     10714     10717     10719
     10716     10714     10717     10720     10717     10720     10723     10724
     10717     10720     10723     10725     10717     10720     10723     10726
     10718     10717     10720     10721     10718     10717     10720     10722
     10718     10717     10720     10723     10719     10717     10720     10721
     10719     10717     10720     10722     10719     10717     10720     10723
     10720     10723     10726     10727     10720     10723     10726     10728
     10720     10723     10726     10729     10721     10720     10723     10724
     10721     10720     10723     10725     10721     10720     10723     10726
     10722     10720     10723     10724     10722     10720     10723     10725
     10722     10720     10723     10726     10723     10726     10729     10730
     10723     10726     10729     10731     10723     10726     10729     10732
     10724     10723     10726     10727     10724     10723     10726     10728
     10724     10723     10726     10729     10725     10723     10726     10727
     10725     10723     10726     10728     10725     10723     10726     10729
     10726     10729     10732     10733     10726     10729     10732     10734
     10726     10729     10732     10735     10727     10726     10729     10730
     10727     10726     10729     10731     10727     10726     10729     10732
     10728     10726     10729     10730     10728     10726     10729     10731
     10728     10726     10729     10732     10729     10732     10735     10736
     10729     10732     10735     10737     10729     10732     10735     10738
     10730     10729     10732     10733     10730     10729     10732     10734
     10730     10729     10732     10735     10731     10729     10732     10733
     10731     10729     10732     10734     10731     10729     10732     10735
     10732     10735     10738     10739     10732     10735     10738     10740
     10732     10735     10738     10741     10733     10732     10735     10736
     10733     10732     10735     10737     10733     10732     10735     10738
     10734     10732     10735     10736     10734     10732     10735     10737
     10734     10732     10735     10738     10735     10738     10741     10742
     10735     10738     10741     10743     10735     10738     10741     10744
     10736     10735     10738     10739     10736     10735     10738     10740
     10736     10735     10738     10741     10737     10735     10738     10739
     10737     10735     10738     10740     10737     10735     10738     10741
     10738     10741     10744     10745     10738     10741     10744     10746
     10738     10741     10744     10747     10739     10738     10741     10742
     10739     10738     10741     10743     10739     10738     10741     10744
     10740     10738     10741     10742     10740     10738     10741     10743
     10740     10738     10741     10744     10741     10744     10747     10748
     10741     10744     10747     10749     10741     10744     10747     10750
     10742     10741     10744     10745     10742     10741     10744     10746
     10742     10741     10744     10747     10743     10741     10744     10745
     10743     10741     10744     10746     10743     10741     10744     10747
     10744     10747     10750     10751     10744     10747     10750     10752
     10744     10747     10750     10753     10745     10744     10747     10748
     10745     10744     10747     10749     10745     10744     10747     10750
     10746     10744     10747     10748     10746     10744     10747     10749
     10746     10744     10747     10750     10747     10750     10753     10754
     10747     10750     10753     10755     10747     10750     10753     10756
     10748     10747     10750     10751     10748     10747     10750     10752
     10748     10747     10750     10753     10749     10747     10750     10751
     10749     10747     10750     10752     10749     10747     10750     10753
     10751     10750     10753     10754     10751     10750     10753     10755
     10751     10750     10753     10756     10752     10750     10753     10754
     10752     10750     10753     10755     10752     10750     10753     10756
       963       967       970       971       963       967       970      1001
       963      1009      1006      1001       963      1009      1006      1007
       963      1009      1006      1008       964       963       965       966
       964       963       967       968       964       963       967       969
       964       963       967       970       964       963      1009      1006
       964       963      1009      1010       964       963      1009      1011
       965       963       967       968       965       963       967       969
       965       963       967       970       965       963      1009      1006
       965       963      1009      1010       965       963      1009      1011
       966       965       963       967       966       965       963      1009
       967       963      1009      1006       967       963      1009      1010
       967       963      1009      1011       967       970       971       972
       967       970       971       973       967       970      1001       999
       967       970      1001      1002       967       970      1001      1006
       968       967       963      1009       968       967       970       971
       968       967       970      1001       969       967       963      1009
       969       967       970       971       969       967       970      1001
       970       967       963      1009       970       971       973       974
       970       971       973       975       970       971       973       976
       970      1001       999       976       970      1001       999       996
       970      1001       999      1000       970      1001      1002      1003
       970      1001      1002      1004       970      1001      1002      1005
       970      1001      1006      1007       970      1001      1006      1008
       970      1001      1006      1009       971       970      1001       999
       971       970      1001      1002       971       970      1001      1006
       971       973       976       977       971       973       976       978
       971       973       976       999       972       971       970      1001
       972       971       973       974       972       971       973       975
       972       971       973       976       973       971       970      1001
       973       976       978       979       973       976       978       980
       973       976       978       988       973       976       999       996
       973       976       999      1000       973       976       999      1001
       974       973       976       977       974       973       976       978
       974       973       976       999       975       973       976       977
       975       973       976       978       975       973       976       999
       976       978       980       981       976       978       980       982
       976       978       980       983       976       978       988       986
       976       978       988       989       976       978       988       993
       976       999       996       993       976       999       996       997
       976       999       996       998       976       999      1001      1002
       976       999      1001      1006       977       976       978       979
       977       976       978       980       977       976       978       988
       977       976       999       996       977       976       999      1000
       977       976       999      1001       978       976       999       996
       978       976       999      1000       978       976       999      1001
       978       980       983       984       978       980       983       985
       978       980       983       986       978       988       986       983
       978       988       986       987       978       988       986      1012
       978       988       989       990       978       988       989       991
       978       988       989       992       978       988       993       994
       978       988       993       995       978       988       993       996
       979       978       976       999       979       978       980       981
       979       978       980       982       979       978       980       983
       979       978       988       986       979       978       988       989
       979       978       988       993       980       978       976       999
       980       978       988       986       980       978       988       989
       980       978       988       993       980       983       986       987
       980       983       986       988       980       983       986      1012
       981       980       978       988       981       980       983       984
       981       980       983       985       981       980       983       986
       982       980       978       988       982       980       983       984
       982       980       983       985       982       980       983       986
       983       980       978       988       983       986       988       989
       983       986       988       993       983       986      1012      1013
       983       986      1012      1014       983       986      1012      1018
       984       983       986       987       984       983       986       988
       984       983       986      1012       985       983       986       987
       985       983       986       988       985       983       986      1012
       986       988       989       990       986       988       989       991
       986       988       989       992       986       988       993       994
       986       988       993       995       986       988       993       996
       986      1012      1014      1015       986      1012      1014      1016
       986      1012      1014      1017       986      1012      1018      1019
       986      1012      1018      1020       986      1012      1018      1021
       987       986       988       989       987       986       988       993
       987       986      1012      1013       987       986      1012      1014
       987       986      1012      1018       988       978       976       999
       988       986      1012      1013       988       986      1012      1014
       988       986      1012      1018       988       993       996       997
       988       993       996       998       988       993       996       999
       989       988       986      1012       989       988       993       994
       989       988       993       995       989       988       993       996
       990       989       988       993       991       989       988       993
       992       989       988       993       993       988       986      1012
       993       996       999      1000       993       996       999      1001
       994       993       996       997       994       993       996       998
       994       993       996       999       995       993       996       997
       995       993       996       998       995       993       996       999
       996       999      1001      1002       996       999      1001      1006
       997       996       999      1000       997       996       999      1001
       998       996       999      1000       998       996       999      1001
       999      1001      1002      1003       999      1001      1002      1004
       999      1001      1002      1005       999      1001      1006      1007
       999      1001      1006      1008       999      1001      1006      1009
      1000       999      1001      1002      1000       999      1001      1006
      1001      1006      1009      1010      1001      1006      1009      1011
      1002      1001      1006      1007      1002      1001      1006      1008
      1002      1001      1006      1009      1003      1002      1001      1006
      1004      1002      1001      1006      1005      1002      1001      1006
      1007      1006      1009      1010      1007      1006      1009      1011
      1008      1006      1009      1010      1008      1006      1009      1011
      1012      1018      1021      1022      1012      1018      1021      1023
      1012      1018      1021      1024      1013      1012      1014      1015
      1013      1012      1014      1016      1013      1012      1014      1017
      1013      1012      1018      1019      1013      1012      1018      1020
      1013      1012      1018      1021      1014      1012      1018      1019
      1014      1012      1018      1020      1014      1012      1018      1021
      1015      1014      1012      1018      1016      1014      1012      1018
      1017      1014      1012      1018      1018      1021      1024      1025
      1018      1021      1024      1026      1018      1021      1024      1027
      1019      1018      1021      1022      1019      1018      1021      1023
      1019      1018      1021      1024      1020      1018      1021      1022
      1020      1018      1021      1023      1020      1018      1021      1024
      1021      1024      1027      1028      1021      1024      1027      1029
      1021      1024      1027      1033      1022      1021      1024      1025
      1022      1021      1024      1026      1022      1021      1024      1027
      1023      1021      1024      1025      1023      1021      1024      1026
      1023      1021      1024      1027      1024      1027      1029      1030
      1024      1027      1029      1031      1024      1027      1029      1032
      1024      1027      1033      1034      1024      1027      1033      1035
      1024      1027      1033      1036      1025      1024      1027      1028
      1025      1024      1027      1029      1025      1024      1027      1033
      1026      1024      1027      1028      1026      1024      1027      1029
      1026      1024      1027      1033      1028      1027      1029      1030
      1028      1027      1029      1031      1028      1027      1029      1032
      1028      1027      1033      1034      1028      1027      1033      1035
      1028      1027      1033      1036      1029      1027      1033      1034
      1029      1027      1033      1035      1029      1027      1033      1036
      1030      1029      1027      1033      1031      1029      1027      1033
      1032      1029      1027      1033     10757     10761     10763     10764
     10757     10761     10763     10765     10757     10761     10766     10767
     10757     10761     10766     10768     10757     10761     10766     10772
     10758     10757     10761     10762     10758     10757     10761     10763
     10758     10757     10761     10766     10759     10757     10761     10762
     10759     10757     10761     10763     10759     10757     10761     10766
     10760     10757     10761     10762     10760     10757     10761     10763
     10760     10757     10761     10766     10761     10766     10772     10769
     10762     10761     10763     10764     10762     10761     10763     10765
     10762     10761     10766     10767     10762     10761     10766     10768
     10762     10761     10766     10772     10763     10761     10766     10767
     10763     10761     10766     10768     10763     10761     10766     10772
     10764     10763     10761     10766     10765     10763     10761     10766
     10766     10772     10769     10770     10766     10772     10769     10771
     10766     10772     10769     10773     10767     10766     10772     10769
     10768     10766     10772     10769     10769     10773     10774     10775
     10769     10773     10774     10776     10769     10773     10774     10777
     10770     10769     10773     10774     10771     10769     10773     10774
     10772     10769     10773     10774     10773     10774     10777     10778
     10773     10774     10777     10779     10773     10774     10777     10785
     10774     10777     10779     10780     10774     10777     10785     10786
     10774     10777     10785     10787     10774     10777     10785     10788
     10775     10774     10777     10778     10775     10774     10777     10779
     10775     10774     10777     10785     10776     10774     10777     10778
     10776     10774     10777     10779     10776     10774     10777     10785
     10777     10779     10780     10781     10777     10779     10780     10782
     10777     10785     10788     10789     10778     10777     10779     10780
     10778     10777     10785     10786     10778     10777     10785     10787
     10778     10777     10785     10788     10779     10777     10785     10786
     10779     10777     10785     10787     10779     10777     10785     10788
     10779     10780     10782     10783     10779     10780     10782     10784
     10779     10780     10782     10794     10780     10779     10777     10785
     10780     10782     10794     10795     10780     10782     10794     10796
     10780     10782     10794     10797     10781     10780     10782     10783
     10781     10780     10782     10784     10781     10780     10782     10794
     10782     10794     10797     10798     10782     10794     10797     10799
     10782     10794     10797     10800     10783     10782     10794     10795
     10783     10782     10794     10796     10783     10782     10794     10797
     10784     10782     10794     10795     10784     10782     10794     10796
     10784     10782     10794     10797     10785     10788     10789     10790
     10785     10788     10789     10791     10786     10785     10788     10789
     10787     10785     10788     10789     10788     10789     10791     10792
     10788     10789     10791     10793     10788     10789     10791     10841
     10789     10791     10841     10842     10789     10791     10841     10843
     10789     10791     10841     10844     10790     10789     10791     10792
     10790     10789     10791     10793     10790     10789     10791     10841
     10791     10841     10844     10845     10791     10841     10844     10846
     10791     10841     10844     10847     10792     10791     10841     10842
     10792     10791     10841     10843     10792     10791     10841     10844
     10793     10791     10841     10842     10793     10791     10841     10843
     10793     10791     10841     10844     10794     10797     10800     10801
     10794     10797     10800     10802     10794     10797     10800     10803
     10795     10794     10797     10798     10795     10794     10797     10799
     10795     10794     10797     10800     10796     10794     10797     10798
     10796     10794     10797     10799     10796     10794     10797     10800
     10797     10800     10803     10804     10797     10800     10803     10805
     10797     10800     10803     10806     10798     10797     10800     10801
     10798     10797     10800     10802     10798     10797     10800     10803
     10799     10797     10800     10801     10799     10797     10800     10802
     10799     10797     10800     10803     10800     10803     10806     10807
     10800     10803     10806     10808     10800     10803     10806     10809
     10801     10800     10803     10804     10801     10800     10803     10805
     10801     10800     10803     10806     10802     10800     10803     10804
     10802     10800     10803     10805     10802     10800     10803     10806
     10803     10806     10809     10810     10803     10806     10809     10811
     10803     10806     10809     10812     10804     10803     10806     10807
     10804     10803     10806     10808     10804     10803     10806     10809
     10805     10803     10806     10807     10805     10803     10806     10808
     10805     10803     10806     10809     10806     10809     10812     10813
     10806     10809     10812     10814     10807     10806     10809     10810
     10807     10806     10809     10811     10807     10806     10809     10812
     10808     10806     10809     10810     10808     10806     10809     10811
     10808     10806     10809     10812     10809     10812     10814     10815
     10809     10812     10814     10816     10810     10809     10812     10813
     10810     10809     10812     10814     10811     10809     10812     10813
     10811     10809     10812     10814     10812     10814     10816     10817
     10812     10814     10816     10818     10812     10814     10816     10819
     10813     10812     10814     10815     10813     10812     10814     10816
     10814     10816     10819     10820     10814     10816     10819     10821
     10814     10816     10819     10822     10815     10814     10816     10817
     10815     10814     10816     10818     10815     10814     10816     10819
     10816     10819     10822     10823     10816     10819     10822     10824
     10816     10819     10822     10825     10817     10816     10819     10820
     10817     10816     10819     10821     10817     10816     10819     10822
     10818     10816     10819     10820     10818     10816     10819     10821
     10818     10816     10819     10822     10819     10822     10825     10826
     10819     10822     10825     10827     10819     10822     10825     10828
     10820     10819     10822     10823     10820     10819     10822     10824
     10820     10819     10822     10825     10821     10819     10822     10823
     10821     10819     10822     10824     10821     10819     10822     10825
     10822     10825     10828     10829     10822     10825     10828     10830
     10822     10825     10828     10831     10823     10822     10825     10826
     10823     10822     10825     10827     10823     10822     10825     10828
     10824     10822     10825     10826     10824     10822     10825     10827
     10824     10822     10825     10828     10825     10828     10831     10832
     10825     10828     10831     10833     10825     10828     10831     10834
     10826     10825     10828     10829     10826     10825     10828     10830
     10826     10825     10828     10831     10827     10825     10828     10829
     10827     10825     10828     10830     10827     10825     10828     10831
     10828     10831     10834     10835     10828     10831     10834     10836
     10828     10831     10834     10837     10829     10828     10831     10832
     10829     10828     10831     10833     10829     10828     10831     10834
     10830     10828     10831     10832     10830     10828     10831     10833
     10830     10828     10831     10834     10831     10834     10837     10838
     10831     10834     10837     10839     10831     10834     10837     10840
     10832     10831     10834     10835     10832     10831     10834     10836
     10832     10831     10834     10837     10833     10831     10834     10835
     10833     10831     10834     10836     10833     10831     10834     10837
     10835     10834     10837     10838     10835     10834     10837     10839
     10835     10834     10837     10840     10836     10834     10837     10838
     10836     10834     10837     10839     10836     10834     10837     10840
     10841     10844     10847     10848     10841     10844     10847     10849
     10841     10844     10847     10850     10842     10841     10844     10845
     10842     10841     10844     10846     10842     10841     10844     10847
     10843     10841     10844     10845     10843     10841     10844     10846
     10843     10841     10844     10847     10844     10847     10850     10851
     10844     10847     10850     10852     10844     10847     10850     10853
     10845     10844     10847     10848     10845     10844     10847     10849
     10845     10844     10847     10850     10846     10844     10847     10848
     10846     10844     10847     10849     10846     10844     10847     10850
     10847     10850     10853     10854     10847     10850     10853     10855
     10847     10850     10853     10856     10848     10847     10850     10851
     10848     10847     10850     10852     10848     10847     10850     10853
     10849     10847     10850     10851     10849     10847     10850     10852
     10849     10847     10850     10853     10850     10853     10856     10857
     10850     10853     10856     10858     10850     10853     10856     10859
     10851     10850     10853     10854     10851     10850     10853     10855
     10851     10850     10853     10856     10852     10850     10853     10854
     10852     10850     10853     10855     10852     10850     10853     10856
     10853     10856     10859     10860     10853     10856     10859     10861
     10853     10856     10859     10862     10854     10853     10856     10857
     10854     10853     10856     10858     10854     10853     10856     10859
     10855     10853     10856     10857     10855     10853     10856     10858
     10855     10853     10856     10859     10856     10859     10862     10863
     10856     10859     10862     10864     10856     10859     10862     10865
     10857     10856     10859     10860     10857     10856     10859     10861
     10857     10856     10859     10862     10858     10856     10859     10860
     10858     10856     10859     10861     10858     10856     10859     10862
     10859     10862     10865     10866     10859     10862     10865     10867
     10859     10862     10865     10868     10860     10859     10862     10863
     10860     10859     10862     10864     10860     10859     10862     10865
     10861     10859     10862     10863     10861     10859     10862     10864
     10861     10859     10862     10865     10862     10865     10868     10869
     10862     10865     10868     10870     10862     10865     10868     10871
     10863     10862     10865     10866     10863     10862     10865     10867
     10863     10862     10865     10868     10864     10862     10865     10866
     10864     10862     10865     10867     10864     10862     10865     10868
     10865     10868     10871     10872     10865     10868     10871     10873
     10865     10868     10871     10874     10866     10865     10868     10869
     10866     10865     10868     10870     10866     10865     10868     10871
     10867     10865     10868     10869     10867     10865     10868     10870
     10867     10865     10868     10871     10868     10871     10874     10875
     10868     10871     10874     10876     10868     10871     10874     10877
     10869     10868     10871     10872     10869     10868     10871     10873
     10869     10868     10871     10874     10870     10868     10871     10872
     10870     10868     10871     10873     10870     10868     10871     10874
     10871     10874     10877     10878     10871     10874     10877     10879
     10871     10874     10877     10880     10872     10871     10874     10875
     10872     10871     10874     10876     10872     10871     10874     10877
     10873     10871     10874     10875     10873     10871     10874     10876
     10873     10871     10874     10877     10874     10877     10880     10881
     10874     10877     10880     10882     10874     10877     10880     10883
     10875     10874     10877     10878     10875     10874     10877     10879
     10875     10874     10877     10880     10876     10874     10877     10878
     10876     10874     10877     10879     10876     10874     10877     10880
     10878     10877     10880     10881     10878     10877     10880     10882
     10878     10877     10880     10883     10879     10877     10880     10881
     10879     10877     10880     10882     10879     10877     10880     10883
     17303     17304     17319     17320     17303     17304     17319     17321
     17303     17304     17319     17325     17304     17303     17307     17308
     17304     17303     17307     17309     17304     17303     17307     17310
     17304     17303     17311     17312     17304     17303     17311     17313
     17304     17303     17311     17314     17304     17303     17315     17316
     17304     17303     17315     17317     17304     17303     17315     17318
     17304     17319     17325     17322     17305     17304     17303     17307
     17305     17304     17303     17311     17305     17304     17303     17315
     17305     17304     17319     17320     17305     17304     17319     17321
     17305     17304     17319     17325     17306     17304     17303     17307
     17306     17304     17303     17311     17306     17304     17303     17315
     17306     17304     17319     17320     17306     17304     17319     17321
     17306     17304     17319     17325     17307     17303     17304     17319
     17307     17303     17311     17312     17307     17303     17311     17313
     17307     17303     17311     17314     17307     17303     17315     17316
     17307     17303     17315     17317     17307     17303     17315     17318
     17308     17307     17303     17311     17308     17307     17303     17315
     17309     17307     17303     17311     17309     17307     17303     17315
     17310     17307     17303     17311     17310     17307     17303     17315
     17311     17303     17304     17319     17311     17303     17315     17316
     17311     17303     17315     17317     17311     17303     17315     17318
     17312     17311     17303     17315     17313     17311     17303     17315
     17314     17311     17303     17315     17315     17303     17304     17319
     17319     17325     17322     17323     17319     17325     17322     17324
     17319     17325     17322     17326     17320     17319     17325     17322
     17321     17319     17325     17322     17322     17326     17327     17328
     17322     17326     17327     17329     17322     17326     17327     17330
     17323     17322     17326     17327     17324     17322     17326     17327
     17325     17322     17326     17327     17326     17327     17330     17331
     17326     17327     17330     17332     17326     17327     17330     17338
     17327     17330     17332     17333     17327     17330     17338     17339
     17327     17330     17338     17340     17327     17330     17338     17341
     17328     17327     17330     17331     17328     17327     17330     17332
     17328     17327     17330     17338     17329     17327     17330     17331
     17329     17327     17330     17332     17329     17327     17330     17338
     17330     17332     17333     17334     17330     17332     17333     17335
     17330     17338     17341     17342     17331     17330     17332     17333
     17331     17330     17338     17339     17331     17330     17338     17340
     17331     17330     17338     17341     17332     17330     17338     17339
     17332     17330     17338     17340     17332     17330     17338     17341
     17332     17333     17335     17336     17332     17333     17335     17337
     17332     17333     17335     17347     17333     17332     17330     17338
     17333     17335     17347     17348     17333     17335     17347     17349
     17333     17335     17347     17350     17334     17333     17335     17336
     17334     17333     17335     17337     17334     17333     17335     17347
     17335     17347     17350     17351     17335     17347     17350     17352
     17335     17347     17350     17353     17336     17335     17347     17348
     17336     17335     17347     17349     17336     17335     17347     17350
     17337     17335     17347     17348     17337     17335     17347     17349
     17337     17335     17347     17350     17338     17341     17342     17343
     17338     17341     17342     17344     17339     17338     17341     17342
     17340     17338     17341     17342     17341     17342     17344     17345
     17341     17342     17344     17346     17341     17342     17344     17394
     17342     17344     17394     17395     17342     17344     17394     17396
     17342     17344     17394     17397     17343     17342     17344     17345
     17343     17342     17344     17346     17343     17342     17344     17394
     17344     17394     17397     17398     17344     17394     17397     17399
     17344     17394     17397     17400     17345     17344     17394     17395
     17345     17344     17394     17396     17345     17344     17394     17397
     17346     17344     17394     17395     17346     17344     17394     17396
     17346     17344     17394     17397     17347     17350     17353     17354
     17347     17350     17353     17355     17347     17350     17353     17356
     17348     17347     17350     17351     17348     17347     17350     17352
     17348     17347     17350     17353     17349     17347     17350     17351
     17349     17347     17350     17352     17349     17347     17350     17353
     17350     17353     17356     17357     17350     17353     17356     17358
     17350     17353     17356     17359     17351     17350     17353     17354
     17351     17350     17353     17355     17351     17350     17353     17356
     17352     17350     17353     17354     17352     17350     17353     17355
     17352     17350     17353     17356     17353     17356     17359     17360
     17353     17356     17359     17361     17353     17356     17359     17362
     17354     17353     17356     17357     17354     17353     17356     17358
     17354     17353     17356     17359     17355     17353     17356     17357
     17355     17353     17356     17358     17355     17353     17356     17359
     17356     17359     17362     17363     17356     17359     17362     17364
     17356     17359     17362     17365     17357     17356     17359     17360
     17357     17356     17359     17361     17357     17356     17359     17362
     17358     17356     17359     17360     17358     17356     17359     17361
     17358     17356     17359     17362     17359     17362     17365     17366
     17359     17362     17365     17367     17360     17359     17362     17363
     17360     17359     17362     17364     17360     17359     17362     17365
     17361     17359     17362     17363     17361     17359     17362     17364
     17361     17359     17362     17365     17362     17365     17367     17368
     17362     17365     17367     17369     17363     17362     17365     17366
     17363     17362     17365     17367     17364     17362     17365     17366
     17364     17362     17365     17367     17365     17367     17369     17370
     17365     17367     17369     17371     17365     17367     17369     17372
     17366     17365     17367     17368     17366     17365     17367     17369
     17367     17369     17372     17373     17367     17369     17372     17374
     17367     17369     17372     17375     17368     17367     17369     17370
     17368     17367     17369     17371     17368     17367     17369     17372
     17369     17372     17375     17376     17369     17372     17375     17377
     17369     17372     17375     17378     17370     17369     17372     17373
     17370     17369     17372     17374     17370     17369     17372     17375
     17371     17369     17372     17373     17371     17369     17372     17374
     17371     17369     17372     17375     17372     17375     17378     17379
     17372     17375     17378     17380     17372     17375     17378     17381
     17373     17372     17375     17376     17373     17372     17375     17377
     17373     17372     17375     17378     17374     17372     17375     17376
     17374     17372     17375     17377     17374     17372     17375     17378
     17375     17378     17381     17382     17375     17378     17381     17383
     17375     17378     17381     17384     17376     17375     17378     17379
     17376     17375     17378     17380     17376     17375     17378     17381
     17377     17375     17378     17379     17377     17375     17378     17380
     17377     17375     17378     17381     17378     17381     17384     17385
     17378     17381     17384     17386     17378     17381     17384     17387
     17379     17378     17381     17382     17379     17378     17381     17383
     17379     17378     17381     17384     17380     17378     17381     17382
     17380     17378     17381     17383     17380     17378     17381     17384
     17381     17384     17387     17388     17381     17384     17387     17389
     17381     17384     17387     17390     17382     17381     17384     17385
     17382     17381     17384     17386     17382     17381     17384     17387
     17383     17381     17384     17385     17383     17381     17384     17386
     17383     17381     17384     17387     17384     17387     17390     17391
     17384     17387     17390     17392     17384     17387     17390     17393
     17385     17384     17387     17388     17385     17384     17387     17389
     17385     17384     17387     17390     17386     17384     17387     17388
     17386     17384     17387     17389     17386     17384     17387     17390
     17388     17387     17390     17391     17388     17387     17390     17392
     17388     17387     17390     17393     17389     17387     17390     17391
     17389     17387     17390     17392     17389     17387     17390     17393
     17394     17397     17400     17401     17394     17397     17400     17402
     17394     17397     17400     17403     17395     17394     17397     17398
     17395     17394     17397     17399     17395     17394     17397     17400
     17396     17394     17397     17398     17396     17394     17397     17399
     17396     17394     17397     17400     17397     17400     17403     17404
     17397     17400     17403     17405     17397     17400     17403     17406
     17398     17397     17400     17401     17398     17397     17400     17402
     17398     17397     17400     17403     17399     17397     17400     17401
     17399     17397     17400     17402     17399     17397     17400     17403
     17400     17403     17406     17407     17400     17403     17406     17408
     17400     17403     17406     17409     17401     17400     17403     17404
     17401     17400     17403     17405     17401     17400     17403     17406
     17402     17400     17403     17404     17402     17400     17403     17405
     17402     17400     17403     17406     17403     17406     17409     17410
     17403     17406     17409     17411     17403     17406     17409     17412
     17404     17403     17406     17407     17404     17403     17406     17408
     17404     17403     17406     17409     17405     17403     17406     17407
     17405     17403     17406     17408     17405     17403     17406     17409
     17406     17409     17412     17413     17406     17409     17412     17414
     17406     17409     17412     17415     17407     17406     17409     17410
     17407     17406     17409     17411     17407     17406     17409     17412
     17408     17406     17409     17410     17408     17406     17409     17411
     17408     17406     17409     17412     17409     17412     17415     17416
     17409     17412     17415     17417     17409     17412     17415     17418
     17410     17409     17412     17413     17410     17409     17412     17414
     17410     17409     17412     17415     17411     17409     17412     17413
     17411     17409     17412     17414     17411     17409     17412     17415
     17412     17415     17418     17419     17412     17415     17418     17420
     17412     17415     17418     17421     17413     17412     17415     17416
     17413     17412     17415     17417     17413     17412     17415     17418
     17414     17412     17415     17416     17414     17412     17415     17417
     17414     17412     17415     17418     17415     17418     17421     17422
     17415     17418     17421     17423     17415     17418     17421     17424
     17416     17415     17418     17419     17416     17415     17418     17420
     17416     17415     17418     17421     17417     17415     17418     17419
     17417     17415     17418     17420     17417     17415     17418     17421
     17418     17421     17424     17425     17418     17421     17424     17426
     17418     17421     17424     17427     17419     17418     17421     17422
     17419     17418     17421     17423     17419     17418     17421     17424
     17420     17418     17421     17422     17420     17418     17421     17423
     17420     17418     17421     17424     17421     17424     17427     17428
     17421     17424     17427     17429     17421     17424     17427     17430
     17422     17421     17424     17425     17422     17421     17424     17426
     17422     17421     17424     17427     17423     17421     17424     17425
     17423     17421     17424     17426     17423     17421     17424     17427
     17424     17427     17430     17431     17424     17427     17430     17432
     17424     17427     17430     17433     17425     17424     17427     17428
     17425     17424     17427     17429     17425     17424     17427     17430
     17426     17424     17427     17428     17426     17424     17427     17429
     17426     17424     17427     17430     17427     17430     17433     17434
     17427     17430     17433     17435     17427     17430     17433     17436
     17428     17427     17430     17431     17428     17427     17430     17432
     17428     17427     17430     17433     17429     17427     17430     17431
     17429     17427     17430     17432     17429     17427     17430     17433
     17431     17430     17433     17434     17431     17430     17433     17435
     17431     17430     17433     17436     17432     17430     17433     17434
     17432     17430     17433     17435     17432     17430     17433     17436
     10884     10888     10890     10891     10884     10888     10890     10892
     10884     10888     10893     10894     10884     10888     10893     10895
     10884     10888     10893     10899     10885     10884     10888     10889
     10885     10884     10888     10890     10885     10884     10888     10893
     10886     10884     10888     10889     10886     10884     10888     10890
     10886     10884     10888     10893     10887     10884     10888     10889
     10887     10884     10888     10890     10887     10884     10888     10893
     10888     10893     10899     10896     10889     10888     10890     10891
     10889     10888     10890     10892     10889     10888     10893     10894
     10889     10888     10893     10895     10889     10888     10893     10899
     10890     10888     10893     10894     10890     10888     10893     10895
     10890     10888     10893     10899     10891     10890     10888     10893
     10892     10890     10888     10893     10893     10899     10896     10897
     10893     10899     10896     10898     10893     10899     10896     10900
     10894     10893     10899     10896     10895     10893     10899     10896
     10896     10900     10901     10902     10896     10900     10901     10903
     10896     10900     10901     10904     10897     10896     10900     10901
     10898     10896     10900     10901     10899     10896     10900     10901
     10900     10901     10904     10905     10900     10901     10904     10906
     10900     10901     10904     10912     10901     10904     10906     10907
     10901     10904     10912     10913     10901     10904     10912     10914
     10901     10904     10912     10915     10902     10901     10904     10905
     10902     10901     10904     10906     10902     10901     10904     10912
     10903     10901     10904     10905     10903     10901     10904     10906
     10903     10901     10904     10912     10904     10906     10907     10908
     10904     10906     10907     10909     10904     10912     10915     10916
     10905     10904     10906     10907     10905     10904     10912     10913
     10905     10904     10912     10914     10905     10904     10912     10915
     10906     10904     10912     10913     10906     10904     10912     10914
     10906     10904     10912     10915     10906     10907     10909     10910
     10906     10907     10909     10911     10906     10907     10909     10921
     10907     10906     10904     10912     10907     10909     10921     10922
     10907     10909     10921     10923     10907     10909     10921     10924
     10908     10907     10909     10910     10908     10907     10909     10911
     10908     10907     10909     10921     10909     10921     10924     10925
     10909     10921     10924     10926     10909     10921     10924     10927
     10910     10909     10921     10922     10910     10909     10921     10923
     10910     10909     10921     10924     10911     10909     10921     10922
     10911     10909     10921     10923     10911     10909     10921     10924
     10912     10915     10916     10917     10912     10915     10916     10918
     10913     10912     10915     10916     10914     10912     10915     10916
     10915     10916     10918     10919     10915     10916     10918     10920
     10915     10916     10918     10968     10916     10918     10968     10969
     10916     10918     10968     10970     10916     10918     10968     10971
     10917     10916     10918     10919     10917     10916     10918     10920
     10917     10916     10918     10968     10918     10968     10971     10972
     10918     10968     10971     10973     10918     10968     10971     10974
     10919     10918     10968     10969     10919     10918     10968     10970
     10919     10918     10968     10971     10920     10918     10968     10969
     10920     10918     10968     10970     10920     10918     10968     10971
     10921     10924     10927     10928     10921     10924     10927     10929
     10921     10924     10927     10930     10922     10921     10924     10925
     10922     10921     10924     10926     10922     10921     10924     10927
     10923     10921     10924     10925     10923     10921     10924     10926
     10923     10921     10924     10927     10924     10927     10930     10931
     10924     10927     10930     10932     10924     10927     10930     10933
     10925     10924     10927     10928     10925     10924     10927     10929
     10925     10924     10927     10930     10926     10924     10927     10928
     10926     10924     10927     10929     10926     10924     10927     10930
     10927     10930     10933     10934     10927     10930     10933     10935
     10927     10930     10933     10936     10928     10927     10930     10931
     10928     10927     10930     10932     10928     10927     10930     10933
     10929     10927     10930     10931     10929     10927     10930     10932
     10929     10927     10930     10933     10930     10933     10936     10937
     10930     10933     10936     10938     10930     10933     10936     10939
     10931     10930     10933     10934     10931     10930     10933     10935
     10931     10930     10933     10936     10932     10930     10933     10934
     10932     10930     10933     10935     10932     10930     10933     10936
     10933     10936     10939     10940     10933     10936     10939     10941
     10934     10933     10936     10937     10934     10933     10936     10938
     10934     10933     10936     10939     10935     10933     10936     10937
     10935     10933     10936     10938     10935     10933     10936     10939
     10936     10939     10941     10942     10936     10939     10941     10943
     10937     10936     10939     10940     10937     10936     10939     10941
     10938     10936     10939     10940     10938     10936     10939     10941
     10939     10941     10943     10944     10939     10941     10943     10945
     10939     10941     10943     10946     10940     10939     10941     10942
     10940     10939     10941     10943     10941     10943     10946     10947
     10941     10943     10946     10948     10941     10943     10946     10949
     10942     10941     10943     10944     10942     10941     10943     10945
     10942     10941     10943     10946     10943     10946     10949     10950
     10943     10946     10949     10951     10943     10946     10949     10952
     10944     10943     10946     10947     10944     10943     10946     10948
     10944     10943     10946     10949     10945     10943     10946     10947
     10945     10943     10946     10948     10945     10943     10946     10949
     10946     10949     10952     10953     10946     10949     10952     10954
     10946     10949     10952     10955     10947     10946     10949     10950
     10947     10946     10949     10951     10947     10946     10949     10952
     10948     10946     10949     10950     10948     10946     10949     10951
     10948     10946     10949     10952     10949     10952     10955     10956
     10949     10952     10955     10957     10949     10952     10955     10958
     10950     10949     10952     10953     10950     10949     10952     10954
     10950     10949     10952     10955     10951     10949     10952     10953
     10951     10949     10952     10954     10951     10949     10952     10955
     10952     10955     10958     10959     10952     10955     10958     10960
     10952     10955     10958     10961     10953     10952     10955     10956
     10953     10952     10955     10957     10953     10952     10955     10958
     10954     10952     10955     10956     10954     10952     10955     10957
     10954     10952     10955     10958     10955     10958     10961     10962
     10955     10958     10961     10963     10955     10958     10961     10964
     10956     10955     10958     10959     10956     10955     10958     10960
     10956     10955     10958     10961     10957     10955     10958     10959
     10957     10955     10958     10960     10957     10955     10958     10961
     10958     10961     10964     10965     10958     10961     10964     10966
     10958     10961     10964     10967     10959     10958     10961     10962
     10959     10958     10961     10963     10959     10958     10961     10964
     10960     10958     10961     10962     10960     10958     10961     10963
     10960     10958     10961     10964     10962     10961     10964     10965
     10962     10961     10964     10966     10962     10961     10964     10967
     10963     10961     10964     10965     10963     10961     10964     10966
     10963     10961     10964     10967     10968     10971     10974     10975
     10968     10971     10974     10976     10968     10971     10974     10977
     10969     10968     10971     10972     10969     10968     10971     10973
     10969     10968     10971     10974     10970     10968     10971     10972
     10970     10968     10971     10973     10970     10968     10971     10974
     10971     10974     10977     10978     10971     10974     10977     10979
     10971     10974     10977     10980     10972     10971     10974     10975
     10972     10971     10974     10976     10972     10971     10974     10977
     10973     10971     10974     10975     10973     10971     10974     10976
     10973     10971     10974     10977     10974     10977     10980     10981
     10974     10977     10980     10982     10974     10977     10980     10983
     10975     10974     10977     10978     10975     10974     10977     10979
     10975     10974     10977     10980     10976     10974     10977     10978
     10976     10974     10977     10979     10976     10974     10977     10980
     10977     10980     10983     10984     10977     10980     10983     10985
     10977     10980     10983     10986     10978     10977     10980     10981
     10978     10977     10980     10982     10978     10977     10980     10983
     10979     10977     10980     10981     10979     10977     10980     10982
     10979     10977     10980     10983     10980     10983     10986     10987
     10980     10983     10986     10988     10980     10983     10986     10989
     10981     10980     10983     10984     10981     10980     10983     10985
     10981     10980     10983     10986     10982     10980     10983     10984
     10982     10980     10983     10985     10982     10980     10983     10986
     10983     10986     10989     10990     10983     10986     10989     10991
     10983     10986     10989     10992     10984     10983     10986     10987
     10984     10983     10986     10988     10984     10983     10986     10989
     10985     10983     10986     10987     10985     10983     10986     10988
     10985     10983     10986     10989     10986     10989     10992     10993
     10986     10989     10992     10994     10986     10989     10992     10995
     10987     10986     10989     10990     10987     10986     10989     10991
     10987     10986     10989     10992     10988     10986     10989     10990
     10988     10986     10989     10991     10988     10986     10989     10992
     10989     10992     10995     10996     10989     10992     10995     10997
     10989     10992     10995     10998     10990     10989     10992     10993
     10990     10989     10992     10994     10990     10989     10992     10995
     10991     10989     10992     10993     10991     10989     10992     10994
     10991     10989     10992     10995     10992     10995     10998     10999
     10992     10995     10998     11000     10992     10995     10998     11001
     10993     10992     10995     10996     10993     10992     10995     10997
     10993     10992     10995     10998     10994     10992     10995     10996
     10994     10992     10995     10997     10994     10992     10995     10998
     10995     10998     11001     11002     10995     10998     11001     11003
     10995     10998     11001     11004     10996     10995     10998     10999
     10996     10995     10998     11000     10996     10995     10998     11001
     10997     10995     10998     10999     10997     10995     10998     11000
     10997     10995     10998     11001     10998     11001     11004     11005
     10998     11001     11004     11006     10998     11001     11004     11007
     10999     10998     11001     11002     10999     10998     11001     11003
     10999     10998     11001     11004     11000     10998     11001     11002
     11000     10998     11001     11003     11000     10998     11001     11004
     11001     11004     11007     11008     11001     11004     11007     11009
     11001     11004     11007     11010     11002     11001     11004     11005
     11002     11001     11004     11006     11002     11001     11004     11007
     11003     11001     11004     11005     11003     11001     11004     11006
     11003     11001     11004     11007     11005     11004     11007     11008
     11005     11004     11007     11009     11005     11004     11007     11010
     11006     11004     11007     11008     11006     11004     11007     11009
     11006     11004     11007     11010      1037      1041      1044      1045
      1037      1041      1044      1075      1037      1083      1080      1075
      1037      1083      1080      1081      1037      1083      1080      1082
      1038      1037      1039      1040      1038      1037      1041      1042
      1038      1037      1041      1043      1038      1037      1041      1044
      1038      1037      1083      1080      1038      1037      1083      1084
      1038      1037      1083      1085      1039      1037      1041      1042
      1039      1037      1041      1043      1039      1037      1041      1044
      1039      1037      1083      1080      1039      1037      1083      1084
      1039      1037      1083      1085      1040      1039      1037      1041
      1040      1039      1037      1083      1041      1037      1083      1080
      1041      1037      1083      1084      1041      1037      1083      1085
      1041      1044      1045      1046      1041      1044      1045      1047
      1041      1044      1075      1073      1041      1044      1075      1076
      1041      1044      1075      1080      1042      1041      1037      1083
      1042      1041      1044      1045      1042      1041      1044      1075
      1043      1041      1037      1083      1043      1041      1044      1045
      1043      1041      1044      1075      1044      1041      1037      1083
      1044      1045      1047      1048      1044      1045      1047      1049
      1044      1045      1047      1050      1044      1075      1073      1050
      1044      1075      1073      1070      1044      1075      1073      1074
      1044      1075      1076      1077      1044      1075      1076      1078
      1044      1075      1076      1079      1044      1075      1080      1081
      1044      1075      1080      1082      1044      1075      1080      1083
      1045      1044      1075      1073      1045      1044      1075      1076
      1045      1044      1075      1080      1045      1047      1050      1051
      1045      1047      1050      1052      1045      1047      1050      1073
      1046      1045      1044      1075      1046      1045      1047      1048
      1046      1045      1047      1049      1046      1045      1047      1050
      1047      1045      1044      1075      1047      1050      1052      1053
      1047      1050      1052      1054      1047      1050      1052      1062
      1047      1050      1073      1070      1047      1050      1073      1074
      1047      1050      1073      1075      1048      1047      1050      1051
      1048      1047      1050      1052      1048      1047      1050      1073
      1049      1047      1050      1051      1049      1047      1050      1052
      1049      1047      1050      1073      1050      1052      1054      1055
      1050      1052      1054      1056      1050      1052      1054      1057
      1050      1052      1062      1060      1050      1052      1062      1063
      1050      1052      1062      1067      1050      1073      1070      1067
      1050      1073      1070      1071      1050      1073      1070      1072
      1050      1073      1075      1076      1050      1073      1075      1080
      1051      1050      1052      1053      1051      1050      1052      1054
      1051      1050      1052      1062      1051      1050      1073      1070
      1051      1050      1073      1074      1051      1050      1073      1075
      1052      1050      1073      1070      1052      1050      1073      1074
      1052      1050      1073      1075      1052      1054      1057      1058
      1052      1054      1057      1059      1052      1054      1057      1060
      1052      1062      1060      1057      1052      1062      1060      1061
      1052      1062      1060      1086      1052      1062      1063      1064
      1052      1062      1063      1065      1052      1062      1063      1066
      1052      1062      1067      1068      1052      1062      1067      1069
      1052      1062      1067      1070      1053      1052      1050      1073
      1053      1052      1054      1055      1053      1052      1054      1056
      1053      1052      1054      1057      1053      1052      1062      1060
      1053      1052      1062      1063      1053      1052      1062      1067
      1054      1052      1050      1073      1054      1052      1062      1060
      1054      1052      1062      1063      1054      1052      1062      1067
      1054      1057      1060      1061      1054      1057      1060      1062
      1054      1057      1060      1086      1055      1054      1052      1062
      1055      1054      1057      1058      1055      1054      1057      1059
      1055      1054      1057      1060      1056      1054      1052      1062
      1056      1054      1057      1058      1056      1054      1057      1059
      1056      1054      1057      1060      1057      1054      1052      1062
      1057      1060      1062      1063      1057      1060      1062      1067
      1057      1060      1086      1087      1057      1060      1086      1088
      1057      1060      1086      1092      1058      1057      1060      1061
      1058      1057      1060      1062      1058      1057      1060      1086
      1059      1057      1060      1061      1059      1057      1060      1062
      1059      1057      1060      1086      1060      1062      1063      1064
      1060      1062      1063      1065      1060      1062      1063      1066
      1060      1062      1067      1068      1060      1062      1067      1069
      1060      1062      1067      1070      1060      1086      1088      1089
      1060      1086      1088      1090      1060      1086      1088      1091
      1060      1086      1092      1093      1060      1086      1092      1094
      1060      1086      1092      1095      1061      1060      1062      1063
      1061      1060      1062      1067      1061      1060      1086      1087
      1061      1060      1086      1088      1061      1060      1086      1092
      1062      1052      1050      1073      1062      1060      1086      1087
      1062      1060      1086      1088      1062      1060      1086      1092
      1062      1067      1070      1071      1062      1067      1070      1072
      1062      1067      1070      1073      1063      1062      1060      1086
      1063      1062      1067      1068      1063      1062      1067      1069
      1063      1062      1067      1070      1064      1063      1062      1067
      1065      1063      1062      1067      1066      1063      1062      1067
      1067      1062      1060      1086      1067      1070      1073      1074
      1067      1070      1073      1075      1068      1067      1070      1071
      1068      1067      1070      1072      1068      1067      1070      1073
      1069      1067      1070      1071      1069      1067      1070      1072
      1069      1067      1070      1073      1070      1073      1075      1076
      1070      1073      1075      1080      1071      1070      1073      1074
      1071      1070      1073      1075      1072      1070      1073      1074
      1072      1070      1073      1075      1073      1075      1076      1077
      1073      1075      1076      1078      1073      1075      1076      1079
      1073      1075      1080      1081      1073      1075      1080      1082
      1073      1075      1080      1083      1074      1073      1075      1076
      1074      1073      1075      1080      1075      1080      1083      1084
      1075      1080      1083      1085      1076      1075      1080      1081
      1076      1075      1080      1082      1076      1075      1080      1083
      1077      1076      1075      1080      1078      1076      1075      1080
      1079      1076      1075      1080      1081      1080      1083      1084
      1081      1080      1083      1085      1082      1080      1083      1084
      1082      1080      1083      1085      1086      1092      1095      1096
      1086      1092      1095      1097      1086      1092      1095      1098
      1087      1086      1088      1089      1087      1086      1088      1090
      1087      1086      1088      1091      1087      1086      1092      1093
      1087      1086      1092      1094      1087      1086      1092      1095
      1088      1086      1092      1093      1088      1086      1092      1094
      1088      1086      1092      1095      1089      1088      1086      1092
      1090      1088      1086      1092      1091      1088      1086      1092
      1092      1095      1098      1099      1092      1095      1098      1100
      1092      1095      1098      1101      1093      1092      1095      1096
      1093      1092      1095      1097      1093      1092      1095      1098
      1094      1092      1095      1096      1094      1092      1095      1097
      1094      1092      1095      1098      1095      1098      1101      1102
      1095      1098      1101      1103      1095      1098      1101      1107
      1096      1095      1098      1099      1096      1095      1098      1100
      1096      1095      1098      1101      1097      1095      1098      1099
      1097      1095      1098      1100      1097      1095      1098      1101
      1098      1101      1103      1104      1098      1101      1103      1105
      1098      1101      1103      1106      1098      1101      1107      1108
      1098      1101      1107      1109      1098      1101      1107      1110
      1099      1098      1101      1102      1099      1098      1101      1103
      1099      1098      1101      1107      1100      1098      1101      1102
      1100      1098      1101      1103      1100      1098      1101      1107
      1102      1101      1103      1104      1102      1101      1103      1105
      1102      1101      1103      1106      1102      1101      1107      1108
      1102      1101      1107      1109      1102      1101      1107      1110
      1103      1101      1107      1108      1103      1101      1107      1109
      1103      1101      1107      1110      1104      1103      1101      1107
      1105      1103      1101      1107      1106      1103      1101      1107
     17437     17438     17453     17454     17437     17438     17453     17455
     17437     17438     17453     17459     17438     17437     17441     17442
     17438     17437     17441     17443     17438     17437     17441     17444
     17438     17437     17445     17446     17438     17437     17445     17447
     17438     17437     17445     17448     17438     17437     17449     17450
     17438     17437     17449     17451     17438     17437     17449     17452
     17438     17453     17459     17456     17439     17438     17437     17441
     17439     17438     17437     17445     17439     17438     17437     17449
     17439     17438     17453     17454     17439     17438     17453     17455
     17439     17438     17453     17459     17440     17438     17437     17441
     17440     17438     17437     17445     17440     17438     17437     17449
     17440     17438     17453     17454     17440     17438     17453     17455
     17440     17438     17453     17459     17441     17437     17438     17453
     17441     17437     17445     17446     17441     17437     17445     17447
     17441     17437     17445     17448     17441     17437     17449     17450
     17441     17437     17449     17451     17441     17437     17449     17452
     17442     17441     17437     17445     17442     17441     17437     17449
     17443     17441     17437     17445     17443     17441     17437     17449
     17444     17441     17437     17445     17444     17441     17437     17449
     17445     17437     17438     17453     17445     17437     17449     17450
     17445     17437     17449     17451     17445     17437     17449     17452
     17446     17445     17437     17449     17447     17445     17437     17449
     17448     17445     17437     17449     17449     17437     17438     17453
     17453     17459     17456     17457     17453     17459     17456     17458
     17453     17459     17456     17460     17454     17453     17459     17456
     17455     17453     17459     17456     17456     17460     17461     17462
     17456     17460     17461     17463     17456     17460     17461     17464
     17457     17456     17460     17461     17458     17456     17460     17461
     17459     17456     17460     17461     17460     17461     17464     17465
     17460     17461     17464     17466     17460     17461     17464     17472
     17461     17464     17466     17467     17461     17464     17472     17473
     17461     17464     17472     17474     17461     17464     17472     17475
     17462     17461     17464     17465     17462     17461     17464     17466
     17462     17461     17464     17472     17463     17461     17464     17465
     17463     17461     17464     17466     17463     17461     17464     17472
     17464     17466     17467     17468     17464     17466     17467     17469
     17464     17472     17475     17476     17465     17464     17466     17467
     17465     17464     17472     17473     17465     17464     17472     17474
     17465     17464     17472     17475     17466     17464     17472     17473
     17466     17464     17472     17474     17466     17464     17472     17475
     17466     17467     17469     17470     17466     17467     17469     17471
     17466     17467     17469     17481     17467     17466     17464     17472
     17467     17469     17481     17482     17467     17469     17481     17483
     17467     17469     17481     17484     17468     17467     17469     17470
     17468     17467     17469     17471     17468     17467     17469     17481
     17469     17481     17484     17485     17469     17481     17484     17486
     17469     17481     17484     17487     17470     17469     17481     17482
     17470     17469     17481     17483     17470     17469     17481     17484
     17471     17469     17481     17482     17471     17469     17481     17483
     17471     17469     17481     17484     17472     17475     17476     17477
     17472     17475     17476     17478     17473     17472     17475     17476
     17474     17472     17475     17476     17475     17476     17478     17479
     17475     17476     17478     17480     17475     17476     17478     17528
     17476     17478     17528     17529     17476     17478     17528     17530
     17476     17478     17528     17531     17477     17476     17478     17479
     17477     17476     17478     17480     17477     17476     17478     17528
     17478     17528     17531     17532     17478     17528     17531     17533
     17478     17528     17531     17534     17479     17478     17528     17529
     17479     17478     17528     17530     17479     17478     17528     17531
     17480     17478     17528     17529     17480     17478     17528     17530
     17480     17478     17528     17531     17481     17484     17487     17488
     17481     17484     17487     17489     17481     17484     17487     17490
     17482     17481     17484     17485     17482     17481     17484     17486
     17482     17481     17484     17487     17483     17481     17484     17485
     17483     17481     17484     17486     17483     17481     17484     17487
     17484     17487     17490     17491     17484     17487     17490     17492
     17484     17487     17490     17493     17485     17484     17487     17488
     17485     17484     17487     17489     17485     17484     17487     17490
     17486     17484     17487     17488     17486     17484     17487     17489
     17486     17484     17487     17490     17487     17490     17493     17494
     17487     17490     17493     17495     17487     17490     17493     17496
     17488     17487     17490     17491     17488     17487     17490     17492
     17488     17487     17490     17493     17489     17487     17490     17491
     17489     17487     17490     17492     17489     17487     17490     17493
     17490     17493     17496     17497     17490     17493     17496     17498
     17490     17493     17496     17499     17491     17490     17493     17494
     17491     17490     17493     17495     17491     17490     17493     17496
     17492     17490     17493     17494     17492     17490     17493     17495
     17492     17490     17493     17496     17493     17496     17499     17500
     17493     17496     17499     17501     17494     17493     17496     17497
     17494     17493     17496     17498     17494     17493     17496     17499
     17495     17493     17496     17497     17495     17493     17496     17498
     17495     17493     17496     17499     17496     17499     17501     17502
     17496     17499     17501     17503     17497     17496     17499     17500
     17497     17496     17499     17501     17498     17496     17499     17500
     17498     17496     17499     17501     17499     17501     17503     17504
     17499     17501     17503     17505     17499     17501     17503     17506
     17500     17499     17501     17502     17500     17499     17501     17503
     17501     17503     17506     17507     17501     17503     17506     17508
     17501     17503     17506     17509     17502     17501     17503     17504
     17502     17501     17503     17505     17502     17501     17503     17506
     17503     17506     17509     17510     17503     17506     17509     17511
     17503     17506     17509     17512     17504     17503     17506     17507
     17504     17503     17506     17508     17504     17503     17506     17509
     17505     17503     17506     17507     17505     17503     17506     17508
     17505     17503     17506     17509     17506     17509     17512     17513
     17506     17509     17512     17514     17506     17509     17512     17515
     17507     17506     17509     17510     17507     17506     17509     17511
     17507     17506     17509     17512     17508     17506     17509     17510
     17508     17506     17509     17511     17508     17506     17509     17512
     17509     17512     17515     17516     17509     17512     17515     17517
     17509     17512     17515     17518     17510     17509     17512     17513
     17510     17509     17512     17514     17510     17509     17512     17515
     17511     17509     17512     17513     17511     17509     17512     17514
     17511     17509     17512     17515     17512     17515     17518     17519
     17512     17515     17518     17520     17512     17515     17518     17521
     17513     17512     17515     17516     17513     17512     17515     17517
     17513     17512     17515     17518     17514     17512     17515     17516
     17514     17512     17515     17517     17514     17512     17515     17518
     17515     17518     17521     17522     17515     17518     17521     17523
     17515     17518     17521     17524     17516     17515     17518     17519
     17516     17515     17518     17520     17516     17515     17518     17521
     17517     17515     17518     17519     17517     17515     17518     17520
     17517     17515     17518     17521     17518     17521     17524     17525
     17518     17521     17524     17526     17518     17521     17524     17527
     17519     17518     17521     17522     17519     17518     17521     17523
     17519     17518     17521     17524     17520     17518     17521     17522
     17520     17518     17521     17523     17520     17518     17521     17524
     17522     17521     17524     17525     17522     17521     17524     17526
     17522     17521     17524     17527     17523     17521     17524     17525
     17523     17521     17524     17526     17523     17521     17524     17527
     17528     17531     17534     17535     17528     17531     17534     17536
     17528     17531     17534     17537     17529     17528     17531     17532
     17529     17528     17531     17533     17529     17528     17531     17534
     17530     17528     17531     17532     17530     17528     17531     17533
     17530     17528     17531     17534     17531     17534     17537     17538
     17531     17534     17537     17539     17531     17534     17537     17540
     17532     17531     17534     17535     17532     17531     17534     17536
     17532     17531     17534     17537     17533     17531     17534     17535
     17533     17531     17534     17536     17533     17531     17534     17537
     17534     17537     17540     17541     17534     17537     17540     17542
     17534     17537     17540     17543     17535     17534     17537     17538
     17535     17534     17537     17539     17535     17534     17537     17540
     17536     17534     17537     17538     17536     17534     17537     17539
     17536     17534     17537     17540     17537     17540     17543     17544
     17537     17540     17543     17545     17537     17540     17543     17546
     17538     17537     17540     17541     17538     17537     17540     17542
     17538     17537     17540     17543     17539     17537     17540     17541
     17539     17537     17540     17542     17539     17537     17540     17543
     17540     17543     17546     17547     17540     17543     17546     17548
     17540     17543     17546     17549     17541     17540     17543     17544
     17541     17540     17543     17545     17541     17540     17543     17546
     17542     17540     17543     17544     17542     17540     17543     17545
     17542     17540     17543     17546     17543     17546     17549     17550
     17543     17546     17549     17551     17543     17546     17549     17552
     17544     17543     17546     17547     17544     17543     17546     17548
     17544     17543     17546     17549     17545     17543     17546     17547
     17545     17543     17546     17548     17545     17543     17546     17549
     17546     17549     17552     17553     17546     17549     17552     17554
     17546     17549     17552     17555     17547     17546     17549     17550
     17547     17546     17549     17551     17547     17546     17549     17552
     17548     17546     17549     17550     17548     17546     17549     17551
     17548     17546     17549     17552     17549     17552     17555     17556
     17549     17552     17555     17557     17549     17552     17555     17558
     17550     17549     17552     17553     17550     17549     17552     17554
     17550     17549     17552     17555     17551     17549     17552     17553
     17551     17549     17552     17554     17551     17549     17552     17555
     17552     17555     17558     17559     17552     17555     17558     17560
     17552     17555     17558     17561     17553     17552     17555     17556
     17553     17552     17555     17557     17553     17552     17555     17558
     17554     17552     17555     17556     17554     17552     17555     17557
     17554     17552     17555     17558     17555     17558     17561     17562
     17555     17558     17561     17563     17555     17558     17561     17564
     17556     17555     17558     17559     17556     17555     17558     17560
     17556     17555     17558     17561     17557     17555     17558     17559
     17557     17555     17558     17560     17557     17555     17558     17561
     17558     17561     17564     17565     17558     17561     17564     17566
     17558     17561     17564     17567     17559     17558     17561     17562
     17559     17558     17561     17563     17559     17558     17561     17564
     17560     17558     17561     17562     17560     17558     17561     17563
     17560     17558     17561     17564     17561     17564     17567     17568
     17561     17564     17567     17569     17561     17564     17567     17570
     17562     17561     17564     17565     17562     17561     17564     17566
     17562     17561     17564     17567     17563     17561     17564     17565
     17563     17561     17564     17566     17563     17561     17564     17567
     17565     17564     17567     17568     17565     17564     17567     17569
     17565     17564     17567     17570     17566     17564     17567     17568
     17566     17564     17567     17569     17566     17564     17567     17570
     22002     22006     22008     22009     22002     22006     22010     22011
     22002     22006     22010     22012     22002     22006     22010     22014
     22002     22022     22018     22014     22002     22022     22018     22019
     22002     22022     22018     22020     22002     22022     22027     22024
     22003     22002     22004     22005     22003     22002     22006     22007
     22003     22002     22006     22008     22003     22002     22006     22010
     22003     22002     22022     22018     22003     22002     22022     22023
     22003     22002     22022     22027     22004     22002     22006     22007
     22004     22002     22006     22008     22004     22002     22006     22010
     22004     22002     22022     22018     22004     22002     22022     22023
     22004     22002     22022     22027     22005     22004     22002     22006
     22005     22004     22002     22022     22006     22002     22022     22018
     22006     22002     22022     22023     22006     22002     22022     22027
     22006     22010     22012     22013     22006     22010     22014     22015
     22006     22010     22014     22016     22006     22010     22014     22018
     22007     22006     22002     22022     22007     22006     22008     22009
     22007     22006     22010     22011     22007     22006     22010     22012
     22007     22006     22010     22014     22008     22006     22002     22022
     22008     22006     22010     22011     22008     22006     22010     22012
     22008     22006     22010     22014     22009     22008     22006     22010
     22010     22006     22002     22022     22010     22014     22016     22017
     22010     22014     22018     22019     22010     22014     22018     22020
     22010     22014     22018     22022     22011     22010     22012     22013
     22011     22010     22014     22015     22011     22010     22014     22016
     22011     22010     22014     22018     22012     22010     22014     22015
     22012     22010     22014     22016     22012     22010     22014     22018
     22013     22012     22010     22014     22014     22018     22020     22021
     22014     22018     22022     22023     22014     22018     22022     22027
     22015     22014     22016     22017     22015     22014     22018     22019
     22015     22014     22018     22020     22015     22014     22018     22022
     22016     22014     22018     22019     22016     22014     22018     22020
     22016     22014     22018     22022     22017     22016     22014     22018
     22018     22022     22027     22024     22019     22018     22020     22021
     22019     22018     22022     22023     22019     22018     22022     22027
     22020     22018     22022     22023     22020     22018     22022     22027
     22021     22020     22018     22022     22022     22027     22024     22025
     22022     22027     22024     22026     22022     22027     22024     22028
     22023     22022     22027     22024     22024     22028     22029     22030
     22024     22028     22029     22031     22024     22028     22029     22032
     22025     22024     22028     22029     22026     22024     22028     22029
     22027     22024     22028     22029     22028     22029     22032     22033
     22028     22029     22032     22034     22028     22029     22032     22040
     22029     22032     22034     22035     22029     22032     22040     22041
     22029     22032     22040     22042     22029     22032     22040     22043
     22030     22029     22032     22033     22030     22029     22032     22034
     22030     22029     22032     22040     22031     22029     22032     22033
     22031     22029     22032     22034     22031     22029     22032     22040
     22032     22034     22035     22036     22032     22034     22035     22037
     22032     22040     22043     22044     22033     22032     22034     22035
     22033     22032     22040     22041     22033     22032     22040     22042
     22033     22032     22040     22043     22034     22032     22040     22041
     22034     22032     22040     22042     22034     22032     22040     22043
     22034     22035     22037     22038     22034     22035     22037     22039
     22034     22035     22037     22049     22035     22034     22032     22040
     22035     22037     22049     22050     22035     22037     22049     22051
     22035     22037     22049     22052     22036     22035     22037     22038
     22036     22035     22037     22039     22036     22035     22037     22049
     22037     22049     22052     22053     22037     22049     22052     22054
     22037     22049     22052     22055     22038     22037     22049     22050
     22038     22037     22049     22051     22038     22037     22049     22052
     22039     22037     22049     22050     22039     22037     22049     22051
     22039     22037     22049     22052     22040     22043     22044     22045
     22040     22043     22044     22046     22041     22040     22043     22044
     22042     22040     22043     22044     22043     22044     22046     22047
     22043     22044     22046     22048     22043     22044     22046     22096
     22044     22046     22096     22097     22044     22046     22096     22098
     22044     22046     22096     22099     22045     22044     22046     22047
     22045     22044     22046     22048     22045     22044     22046     22096
     22046     22096     22099     22100     22046     22096     22099     22101
     22046     22096     22099     22102     22047     22046     22096     22097
     22047     22046     22096     22098     22047     22046     22096     22099
     22048     22046     22096     22097     22048     22046     22096     22098
     22048     22046     22096     22099     22049     22052     22055     22056
     22049     22052     22055     22057     22049     22052     22055     22058
     22050     22049     22052     22053     22050     22049     22052     22054
     22050     22049     22052     22055     22051     22049     22052     22053
     22051     22049     22052     22054     22051     22049     22052     22055
     22052     22055     22058     22059     22052     22055     22058     22060
     22052     22055     22058     22061     22053     22052     22055     22056
     22053     22052     22055     22057     22053     22052     22055     22058
     22054     22052     22055     22056     22054     22052     22055     22057
     22054     22052     22055     22058     22055     22058     22061     22062
     22055     22058     22061     22063     22055     22058     22061     22064
     22056     22055     22058     22059     22056     22055     22058     22060
     22056     22055     22058     22061     22057     22055     22058     22059
     22057     22055     22058     22060     22057     22055     22058     22061
     22058     22061     22064     22065     22058     22061     22064     22066
     22058     22061     22064     22067     22059     22058     22061     22062
     22059     22058     22061     22063     22059     22058     22061     22064
     22060     22058     22061     22062     22060     22058     22061     22063
     22060     22058     22061     22064     22061     22064     22067     22068
     22061     22064     22067     22069     22062     22061     22064     22065
     22062     22061     22064     22066     22062     22061     22064     22067
     22063     22061     22064     22065     22063     22061     22064     22066
     22063     22061     22064     22067     22064     22067     22069     22070
     22064     22067     22069     22071     22065     22064     22067     22068
     22065     22064     22067     22069     22066     22064     22067     22068
     22066     22064     22067     22069     22067     22069     22071     22072
     22067     22069     22071     22073     22067     22069     22071     22074
     22068     22067     22069     22070     22068     22067     22069     22071
     22069     22071     22074     22075     22069     22071     22074     22076
     22069     22071     22074     22077     22070     22069     22071     22072
     22070     22069     22071     22073     22070     22069     22071     22074
     22071     22074     22077     22078     22071     22074     22077     22079
     22071     22074     22077     22080     22072     22071     22074     22075
     22072     22071     22074     22076     22072     22071     22074     22077
     22073     22071     22074     22075     22073     22071     22074     22076
     22073     22071     22074     22077     22074     22077     22080     22081
     22074     22077     22080     22082     22074     22077     22080     22083
     22075     22074     22077     22078     22075     22074     22077     22079
     22075     22074     22077     22080     22076     22074     22077     22078
     22076     22074     22077     22079     22076     22074     22077     22080
     22077     22080     22083     22084     22077     22080     22083     22085
     22077     22080     22083     22086     22078     22077     22080     22081
     22078     22077     22080     22082     22078     22077     22080     22083
     22079     22077     22080     22081     22079     22077     22080     22082
     22079     22077     22080     22083     22080     22083     22086     22087
     22080     22083     22086     22088     22080     22083     22086     22089
     22081     22080     22083     22084     22081     22080     22083     22085
     22081     22080     22083     22086     22082     22080     22083     22084
     22082     22080     22083     22085     22082     22080     22083     22086
     22083     22086     22089     22090     22083     22086     22089     22091
     22083     22086     22089     22092     22084     22083     22086     22087
     22084     22083     22086     22088     22084     22083     22086     22089
     22085     22083     22086     22087     22085     22083     22086     22088
     22085     22083     22086     22089     22086     22089     22092     22093
     22086     22089     22092     22094     22086     22089     22092     22095
     22087     22086     22089     22090     22087     22086     22089     22091
     22087     22086     22089     22092     22088     22086     22089     22090
     22088     22086     22089     22091     22088     22086     22089     22092
     22090     22089     22092     22093     22090     22089     22092     22094
     22090     22089     22092     22095     22091     22089     22092     22093
     22091     22089     22092     22094     22091     22089     22092     22095
     22096     22099     22102     22103     22096     22099     22102     22104
     22096     22099     22102     22105     22097     22096     22099     22100
     22097     22096     22099     22101     22097     22096     22099     22102
     22098     22096     22099     22100     22098     22096     22099     22101
     22098     22096     22099     22102     22099     22102     22105     22106
     22099     22102     22105     22107     22099     22102     22105     22108
     22100     22099     22102     22103     22100     22099     22102     22104
     22100     22099     22102     22105     22101     22099     22102     22103
     22101     22099     22102     22104     22101     22099     22102     22105
     22102     22105     22108     22109     22102     22105     22108     22110
     22102     22105     22108     22111     22103     22102     22105     22106
     22103     22102     22105     22107     22103     22102     22105     22108
     22104     22102     22105     22106     22104     22102     22105     22107
     22104     22102     22105     22108     22105     22108     22111     22112
     22105     22108     22111     22113     22105     22108     22111     22114
     22106     22105     22108     22109     22106     22105     22108     22110
     22106     22105     22108     22111     22107     22105     22108     22109
     22107     22105     22108     22110     22107     22105     22108     22111
     22108     22111     22114     22115     22108     22111     22114     22116
     22108     22111     22114     22117     22109     22108     22111     22112
     22109     22108     22111     22113     22109     22108     22111     22114
     22110     22108     22111     22112     22110     22108     22111     22113
     22110     22108     22111     22114     22111     22114     22117     22118
     22111     22114     22117     22119     22111     22114     22117     22120
     22112     22111     22114     22115     22112     22111     22114     22116
     22112     22111     22114     22117     22113     22111     22114     22115
     22113     22111     22114     22116     22113     22111     22114     22117
     22114     22117     22120     22121     22114     22117     22120     22122
     22114     22117     22120     22123     22115     22114     22117     22118
     22115     22114     22117     22119     22115     22114     22117     22120
     22116     22114     22117     22118     22116     22114     22117     22119
     22116     22114     22117     22120     22117     22120     22123     22124
     22117     22120     22123     22125     22117     22120     22123     22126
     22118     22117     22120     22121     22118     22117     22120     22122
     22118     22117     22120     22123     22119     22117     22120     22121
     22119     22117     22120     22122     22119     22117     22120     22123
     22120     22123     22126     22127     22120     22123     22126     22128
     22120     22123     22126     22129     22121     22120     22123     22124
     22121     22120     22123     22125     22121     22120     22123     22126
     22122     22120     22123     22124     22122     22120     22123     22125
     22122     22120     22123     22126     22123     22126     22129     22130
     22123     22126     22129     22131     22123     22126     22129     22132
     22124     22123     22126     22127     22124     22123     22126     22128
     22124     22123     22126     22129     22125     22123     22126     22127
     22125     22123     22126     22128     22125     22123     22126     22129
     22126     22129     22132     22133     22126     22129     22132     22134
     22126     22129     22132     22135     22127     22126     22129     22130
     22127     22126     22129     22131     22127     22126     22129     22132
     22128     22126     22129     22130     22128     22126     22129     22131
     22128     22126     22129     22132     22129     22132     22135     22136
     22129     22132     22135     22137     22129     22132     22135     22138
     22130     22129     22132     22133     22130     22129     22132     22134
     22130     22129     22132     22135     22131     22129     22132     22133
     22131     22129     22132     22134     22131     22129     22132     22135
     22133     22132     22135     22136     22133     22132     22135     22137
     22133     22132     22135     22138     22134     22132     22135     22136
     22134     22132     22135     22137     22134     22132     22135     22138
     22139     22143     22145     22146     22139     22143     22147     22148
     22139     22143     22147     22149     22139     22143     22147     22151
     22139     22159     22155     22151     22139     22159     22155     22156
     22139     22159     22155     22157     22139     22159     22164     22161
     22140     22139     22141     22142     22140     22139     22143     22144
     22140     22139     22143     22145     22140     22139     22143     22147
     22140     22139     22159     22155     22140     22139     22159     22160
     22140     22139     22159     22164     22141     22139     22143     22144
     22141     22139     22143     22145     22141     22139     22143     22147
     22141     22139     22159     22155     22141     22139     22159     22160
     22141     22139     22159     22164     22142     22141     22139     22143
     22142     22141     22139     22159     22143     22139     22159     22155
     22143     22139     22159     22160     22143     22139     22159     22164
     22143     22147     22149     22150     22143     22147     22151     22152
     22143     22147     22151     22153     22143     22147     22151     22155
     22144     22143     22139     22159     22144     22143     22145     22146
     22144     22143     22147     22148     22144     22143     22147     22149
     22144     22143     22147     22151     22145     22143     22139     22159
     22145     22143     22147     22148     22145     22143     22147     22149
     22145     22143     22147     22151     22146     22145     22143     22147
     22147     22143     22139     22159     22147     22151     22153     22154
     22147     22151     22155     22156     22147     22151     22155     22157
     22147     22151     22155     22159     22148     22147     22149     22150
     22148     22147     22151     22152     22148     22147     22151     22153
     22148     22147     22151     22155     22149     22147     22151     22152
     22149     22147     22151     22153     22149     22147     22151     22155
     22150     22149     22147     22151     22151     22155     22157     22158
     22151     22155     22159     22160     22151     22155     22159     22164
     22152     22151     22153     22154     22152     22151     22155     22156
     22152     22151     22155     22157     22152     22151     22155     22159
     22153     22151     22155     22156     22153     22151     22155     22157
     22153     22151     22155     22159     22154     22153     22151     22155
     22155     22159     22164     22161     22156     22155     22157     22158
     22156     22155     22159     22160     22156     22155     22159     22164
     22157     22155     22159     22160     22157     22155     22159     22164
     22158     22157     22155     22159     22159     22164     22161     22162
     22159     22164     22161     22163     22159     22164     22161     22165
     22160     22159     22164     22161     22161     22165     22166     22167
     22161     22165     22166     22168     22161     22165     22166     22169
     22162     22161     22165     22166     22163     22161     22165     22166
     22164     22161     22165     22166     22165     22166     22169     22170
     22165     22166     22169     22171     22165     22166     22169     22177
     22166     22169     22171     22172     22166     22169     22177     22178
     22166     22169     22177     22179     22166     22169     22177     22180
     22167     22166     22169     22170     22167     22166     22169     22171
     22167     22166     22169     22177     22168     22166     22169     22170
     22168     22166     22169     22171     22168     22166     22169     22177
     22169     22171     22172     22173     22169     22171     22172     22174
     22169     22177     22180     22181     22170     22169     22171     22172
     22170     22169     22177     22178     22170     22169     22177     22179
     22170     22169     22177     22180     22171     22169     22177     22178
     22171     22169     22177     22179     22171     22169     22177     22180
     22171     22172     22174     22175     22171     22172     22174     22176
     22171     22172     22174     22186     22172     22171     22169     22177
     22172     22174     22186     22187     22172     22174     22186     22188
     22172     22174     22186     22189     22173     22172     22174     22175
     22173     22172     22174     22176     22173     22172     22174     22186
     22174     22186     22189     22190     22174     22186     22189     22191
     22174     22186     22189     22192     22175     22174     22186     22187
     22175     22174     22186     22188     22175     22174     22186     22189
     22176     22174     22186     22187     22176     22174     22186     22188
     22176     22174     22186     22189     22177     22180     22181     22182
     22177     22180     22181     22183     22178     22177     22180     22181
     22179     22177     22180     22181     22180     22181     22183     22184
     22180     22181     22183     22185     22180     22181     22183     22233
     22181     22183     22233     22234     22181     22183     22233     22235
     22181     22183     22233     22236     22182     22181     22183     22184
     22182     22181     22183     22185     22182     22181     22183     22233
     22183     22233     22236     22237     22183     22233     22236     22238
     22183     22233     22236     22239     22184     22183     22233     22234
     22184     22183     22233     22235     22184     22183     22233     22236
     22185     22183     22233     22234     22185     22183     22233     22235
     22185     22183     22233     22236     22186     22189     22192     22193
     22186     22189     22192     22194     22186     22189     22192     22195
     22187     22186     22189     22190     22187     22186     22189     22191
     22187     22186     22189     22192     22188     22186     22189     22190
     22188     22186     22189     22191     22188     22186     22189     22192
     22189     22192     22195     22196     22189     22192     22195     22197
     22189     22192     22195     22198     22190     22189     22192     22193
     22190     22189     22192     22194     22190     22189     22192     22195
     22191     22189     22192     22193     22191     22189     22192     22194
     22191     22189     22192     22195     22192     22195     22198     22199
     22192     22195     22198     22200     22192     22195     22198     22201
     22193     22192     22195     22196     22193     22192     22195     22197
     22193     22192     22195     22198     22194     22192     22195     22196
     22194     22192     22195     22197     22194     22192     22195     22198
     22195     22198     22201     22202     22195     22198     22201     22203
     22195     22198     22201     22204     22196     22195     22198     22199
     22196     22195     22198     22200     22196     22195     22198     22201
     22197     22195     22198     22199     22197     22195     22198     22200
     22197     22195     22198     22201     22198     22201     22204     22205
     22198     22201     22204     22206     22199     22198     22201     22202
     22199     22198     22201     22203     22199     22198     22201     22204
     22200     22198     22201     22202     22200     22198     22201     22203
     22200     22198     22201     22204     22201     22204     22206     22207
     22201     22204     22206     22208     22202     22201     22204     22205
     22202     22201     22204     22206     22203     22201     22204     22205
     22203     22201     22204     22206     22204     22206     22208     22209
     22204     22206     22208     22210     22204     22206     22208     22211
     22205     22204     22206     22207     22205     22204     22206     22208
     22206     22208     22211     22212     22206     22208     22211     22213
     22206     22208     22211     22214     22207     22206     22208     22209
     22207     22206     22208     22210     22207     22206     22208     22211
     22208     22211     22214     22215     22208     22211     22214     22216
     22208     22211     22214     22217     22209     22208     22211     22212
     22209     22208     22211     22213     22209     22208     22211     22214
     22210     22208     22211     22212     22210     22208     22211     22213
     22210     22208     22211     22214     22211     22214     22217     22218
     22211     22214     22217     22219     22211     22214     22217     22220
     22212     22211     22214     22215     22212     22211     22214     22216
     22212     22211     22214     22217     22213     22211     22214     22215
     22213     22211     22214     22216     22213     22211     22214     22217
     22214     22217     22220     22221     22214     22217     22220     22222
     22214     22217     22220     22223     22215     22214     22217     22218
     22215     22214     22217     22219     22215     22214     22217     22220
     22216     22214     22217     22218     22216     22214     22217     22219
     22216     22214     22217     22220     22217     22220     22223     22224
     22217     22220     22223     22225     22217     22220     22223     22226
     22218     22217     22220     22221     22218     22217     22220     22222
     22218     22217     22220     22223     22219     22217     22220     22221
     22219     22217     22220     22222     22219     22217     22220     22223
     22220     22223     22226     22227     22220     22223     22226     22228
     22220     22223     22226     22229     22221     22220     22223     22224
     22221     22220     22223     22225     22221     22220     22223     22226
     22222     22220     22223     22224     22222     22220     22223     22225
     22222     22220     22223     22226     22223     22226     22229     22230
     22223     22226     22229     22231     22223     22226     22229     22232
     22224     22223     22226     22227     22224     22223     22226     22228
     22224     22223     22226     22229     22225     22223     22226     22227
     22225     22223     22226     22228     22225     22223     22226     22229
     22227     22226     22229     22230     22227     22226     22229     22231
     22227     22226     22229     22232     22228     22226     22229     22230
     22228     22226     22229     22231     22228     22226     22229     22232
     22233     22236     22239     22240     22233     22236     22239     22241
     22233     22236     22239     22242     22234     22233     22236     22237
     22234     22233     22236     22238     22234     22233     22236     22239
     22235     22233     22236     22237     22235     22233     22236     22238
     22235     22233     22236     22239     22236     22239     22242     22243
     22236     22239     22242     22244     22236     22239     22242     22245
     22237     22236     22239     22240     22237     22236     22239     22241
     22237     22236     22239     22242     22238     22236     22239     22240
     22238     22236     22239     22241     22238     22236     22239     22242
     22239     22242     22245     22246     22239     22242     22245     22247
     22239     22242     22245     22248     22240     22239     22242     22243
     22240     22239     22242     22244     22240     22239     22242     22245
     22241     22239     22242     22243     22241     22239     22242     22244
     22241     22239     22242     22245     22242     22245     22248     22249
     22242     22245     22248     22250     22242     22245     22248     22251
     22243     22242     22245     22246     22243     22242     22245     22247
     22243     22242     22245     22248     22244     22242     22245     22246
     22244     22242     22245     22247     22244     22242     22245     22248
     22245     22248     22251     22252     22245     22248     22251     22253
     22245     22248     22251     22254     22246     22245     22248     22249
     22246     22245     22248     22250     22246     22245     22248     22251
     22247     22245     22248     22249     22247     22245     22248     22250
     22247     22245     22248     22251     22248     22251     22254     22255
     22248     22251     22254     22256     22248     22251     22254     22257
     22249     22248     22251     22252     22249     22248     22251     22253
     22249     22248     22251     22254     22250     22248     22251     22252
     22250     22248     22251     22253     22250     22248     22251     22254
     22251     22254     22257     22258     22251     22254     22257     22259
     22251     22254     22257     22260     22252     22251     22254     22255
     22252     22251     22254     22256     22252     22251     22254     22257
     22253     22251     22254     22255     22253     22251     22254     22256
     22253     22251     22254     22257     22254     22257     22260     22261
     22254     22257     22260     22262     22254     22257     22260     22263
     22255     22254     22257     22258     22255     22254     22257     22259
     22255     22254     22257     22260     22256     22254     22257     22258
     22256     22254     22257     22259     22256     22254     22257     22260
     22257     22260     22263     22264     22257     22260     22263     22265
     22257     22260     22263     22266     22258     22257     22260     22261
     22258     22257     22260     22262     22258     22257     22260     22263
     22259     22257     22260     22261     22259     22257     22260     22262
     22259     22257     22260     22263     22260     22263     22266     22267
     22260     22263     22266     22268     22260     22263     22266     22269
     22261     22260     22263     22264     22261     22260     22263     22265
     22261     22260     22263     22266     22262     22260     22263     22264
     22262     22260     22263     22265     22262     22260     22263     22266
     22263     22266     22269     22270     22263     22266     22269     22271
     22263     22266     22269     22272     22264     22263     22266     22267
     22264     22263     22266     22268     22264     22263     22266     22269
     22265     22263     22266     22267     22265     22263     22266     22268
     22265     22263     22266     22269     22266     22269     22272     22273
     22266     22269     22272     22274     22266     22269     22272     22275
     22267     22266     22269     22270     22267     22266     22269     22271
     22267     22266     22269     22272     22268     22266     22269     22270
     22268     22266     22269     22271     22268     22266     22269     22272
     22270     22269     22272     22273     22270     22269     22272     22274
     22270     22269     22272     22275     22271     22269     22272     22273
     22271     22269     22272     22274     22271     22269     22272     22275
      5346      5350      5353      5354      5346      5350      5353      5355
      5346      5350      5353      5360      5347      5346      5350      5351
      5347      5346      5350      5352      5347      5346      5350      5353
      5348      5346      5350      5351      5348      5346      5350      5352
      5348      5346      5350      5353      5349      5346      5350      5351
      5349      5346      5350      5352      5349      5346      5350      5353
      5350      5353      5360      5356      5351      5350      5353      5354
      5351      5350      5353      5355      5351      5350      5353      5360
      5352      5350      5353      5354      5352      5350      5353      5355
      5352      5350      5353      5360      5353      5360      5356      5357
      5353      5360      5356      5358      5353      5360      5356      5359
      5354      5353      5360      5356      5355      5353      5360      5356
      5356      5359      5361      5362      5356      5359      5361      5363
      5356      5359      5361      5364      5357      5356      5359      5361
      5358      5356      5359      5361      5359      5361      5364      5365
      5359      5361      5364      5366      5359      5361      5364      5372
      5360      5356      5359      5361      5361      5364      5366      5367
      5361      5364      5372      5373      5361      5364      5372      5374
      5361      5364      5372      5375      5362      5361      5364      5365
      5362      5361      5364      5366      5362      5361      5364      5372
      5363      5361      5364      5365      5363      5361      5364      5366
      5363      5361      5364      5372      5364      5366      5367      5368
      5364      5366      5367      5369      5364      5372      5375      5376
      5365      5364      5366      5367      5365      5364      5372      5373
      5365      5364      5372      5374      5365      5364      5372      5375
      5366      5364      5372      5373      5366      5364      5372      5374
      5366      5364      5372      5375      5366      5367      5369      5370
      5366      5367      5369      5371      5366      5367      5369      5381
      5367      5366      5364      5372      5367      5369      5381      5382
      5367      5369      5381      5383      5367      5369      5381      5384
      5368      5367      5369      5370      5368      5367      5369      5371
      5368      5367      5369      5381      5369      5381      5384      5385
      5369      5381      5384      5386      5369      5381      5384      5387
      5370      5369      5381      5382      5370      5369      5381      5383
      5370      5369      5381      5384      5371      5369      5381      5382
      5371      5369      5381      5383      5371      5369      5381      5384
      5372      5375      5376      5377      5372      5375      5376      5378
      5373      5372      5375      5376      5374      5372      5375      5376
      5375      5376      5378      5379      5375      5376      5378      5380
      5375      5376      5378      5428      5376      5378      5428      5429
      5376      5378      5428      5430      5376      5378      5428      5431
      5377      5376      5378      5379      5377      5376      5378      5380
      5377      5376      5378      5428      5378      5428      5431      5432
      5378      5428      5431      5433      5378      5428      5431      5434
      5379      5378      5428      5429      5379      5378      5428      5430
      5379      5378      5428      5431      5380      5378      5428      5429
      5380      5378      5428      5430      5380      5378      5428      5431
      5381      5384      5387      5388      5381      5384      5387      5389
      5381      5384      5387      5390      5382      5381      5384      5385
      5382      5381      5384      5386      5382      5381      5384      5387
      5383      5381      5384      5385      5383      5381      5384      5386
      5383      5381      5384      5387      5384      5387      5390      5391
      5384      5387      5390      5392      5384      5387      5390      5393
      5385      5384      5387      5388      5385      5384      5387      5389
      5385      5384      5387      5390      5386      5384      5387      5388
      5386      5384      5387      5389      5386      5384      5387      5390
      5387      5390      5393      5394      5387      5390      5393      5395
      5387      5390      5393      5396      5388      5387      5390      5391
      5388      5387      5390      5392      5388      5387      5390      5393
      5389      5387      5390      5391      5389      5387      5390      5392
      5389      5387      5390      5393      5390      5393      5396      5397
      5390      5393      5396      5398      5390      5393      5396      5399
      5391      5390      5393      5394      5391      5390      5393      5395
      5391      5390      5393      5396      5392      5390      5393      5394
      5392      5390      5393      5395      5392      5390      5393      5396
      5393      5396      5399      5400      5393      5396      5399      5401
      5394      5393      5396      5397      5394      5393      5396      5398
      5394      5393      5396      5399      5395      5393      5396      5397
      5395      5393      5396      5398      5395      5393      5396      5399
      5396      5399      5401      5402      5396      5399      5401      5403
      5397      5396      5399      5400      5397      5396      5399      5401
      5398      5396      5399      5400      5398      5396      5399      5401
      5399      5401      5403      5404      5399      5401      5403      5405
      5399      5401      5403      5406      5400      5399      5401      5402
      5400      5399      5401      5403      5401      5403      5406      5407
      5401      5403      5406      5408      5401      5403      5406      5409
      5402      5401      5403      5404      5402      5401      5403      5405
      5402      5401      5403      5406      5403      5406      5409      5410
      5403      5406      5409      5411      5403      5406      5409      5412
      5404      5403      5406      5407      5404      5403      5406      5408
      5404      5403      5406      5409      5405      5403      5406      5407
      5405      5403      5406      5408      5405      5403      5406      5409
      5406      5409      5412      5413      5406      5409      5412      5414
      5406      5409      5412      5415      5407      5406      5409      5410
      5407      5406      5409      5411      5407      5406      5409      5412
      5408      5406      5409      5410      5408      5406      5409      5411
      5408      5406      5409      5412      5409      5412      5415      5416
      5409      5412      5415      5417      5409      5412      5415      5418
      5410      5409      5412      5413      5410      5409      5412      5414
      5410      5409      5412      5415      5411      5409      5412      5413
      5411      5409      5412      5414      5411      5409      5412      5415
      5412      5415      5418      5419      5412      5415      5418      5420
      5412      5415      5418      5421      5413      5412      5415      5416
      5413      5412      5415      5417      5413      5412      5415      5418
      5414      5412      5415      5416      5414      5412      5415      5417
      5414      5412      5415      5418      5415      5418      5421      5422
      5415      5418      5421      5423      5415      5418      5421      5424
      5416      5415      5418      5419      5416      5415      5418      5420
      5416      5415      5418      5421      5417      5415      5418      5419
      5417      5415      5418      5420      5417      5415      5418      5421
      5418      5421      5424      5425      5418      5421      5424      5426
      5418      5421      5424      5427      5419      5418      5421      5422
      5419      5418      5421      5423      5419      5418      5421      5424
      5420      5418      5421      5422      5420      5418      5421      5423
      5420      5418      5421      5424      5422      5421      5424      5425
      5422      5421      5424      5426      5422      5421      5424      5427
      5423      5421      5424      5425      5423      5421      5424      5426
      5423      5421      5424      5427      5428      5431      5434      5435
      5428      5431      5434      5436      5428      5431      5434      5437
      5429      5428      5431      5432      5429      5428      5431      5433
      5429      5428      5431      5434      5430      5428      5431      5432
      5430      5428      5431      5433      5430      5428      5431      5434
      5431      5434      5437      5438      5431      5434      5437      5439
      5431      5434      5437      5440      5432      5431      5434      5435
      5432      5431      5434      5436      5432      5431      5434      5437
      5433      5431      5434      5435      5433      5431      5434      5436
      5433      5431      5434      5437      5434      5437      5440      5441
      5434      5437      5440      5442      5434      5437      5440      5443
      5435      5434      5437      5438      5435      5434      5437      5439
      5435      5434      5437      5440      5436      5434      5437      5438
      5436      5434      5437      5439      5436      5434      5437      5440
      5437      5440      5443      5444      5437      5440      5443      5445
      5437      5440      5443      5446      5438      5437      5440      5441
      5438      5437      5440      5442      5438      5437      5440      5443
      5439      5437      5440      5441      5439      5437      5440      5442
      5439      5437      5440      5443      5440      5443      5446      5447
      5440      5443      5446      5448      5440      5443      5446      5449
      5441      5440      5443      5444      5441      5440      5443      5445
      5441      5440      5443      5446      5442      5440      5443      5444
      5442      5440      5443      5445      5442      5440      5443      5446
      5443      5446      5449      5450      5443      5446      5449      5451
      5443      5446      5449      5452      5444      5443      5446      5447
      5444      5443      5446      5448      5444      5443      5446      5449
      5445      5443      5446      5447      5445      5443      5446      5448
      5445      5443      5446      5449      5446      5449      5452      5453
      5446      5449      5452      5454      5446      5449      5452      5455
      5447      5446      5449      5450      5447      5446      5449      5451
      5447      5446      5449      5452      5448      5446      5449      5450
      5448      5446      5449      5451      5448      5446      5449      5452
      5449      5452      5455      5456      5449      5452      5455      5457
      5449      5452      5455      5458      5450      5449      5452      5453
      5450      5449      5452      5454      5450      5449      5452      5455
      5451      5449      5452      5453      5451      5449      5452      5454
      5451      5449      5452      5455      5452      5455      5458      5459
      5452      5455      5458      5460      5452      5455      5458      5461
      5453      5452      5455      5456      5453      5452      5455      5457
      5453      5452      5455      5458      5454      5452      5455      5456
      5454      5452      5455      5457      5454      5452      5455      5458
      5455      5458      5461      5462      5455      5458      5461      5463
      5455      5458      5461      5464      5456      5455      5458      5459
      5456      5455      5458      5460      5456      5455      5458      5461
      5457      5455      5458      5459      5457      5455      5458      5460
      5457      5455      5458      5461      5458      5461      5464      5465
      5458      5461      5464      5466      5458      5461      5464      5467
      5459      5458      5461      5462      5459      5458      5461      5463
      5459      5458      5461      5464      5460      5458      5461      5462
      5460      5458      5461      5463      5460      5458      5461      5464
      5461      5464      5467      5468      5461      5464      5467      5469
      5461      5464      5467      5470      5462      5461      5464      5465
      5462      5461      5464      5466      5462      5461      5464      5467
      5463      5461      5464      5465      5463      5461      5464      5466
      5463      5461      5464      5467      5465      5464      5467      5468
      5465      5464      5467      5469      5465      5464      5467      5470
      5466      5464      5467      5468      5466      5464      5467      5469
      5466      5464      5467      5470      5471      5475      5478      5479
      5471      5475      5478      5480      5471      5475      5478      5485
      5472      5471      5475      5476      5472      5471      5475      5477
      5472      5471      5475      5478      5473      5471      5475      5476
      5473      5471      5475      5477      5473      5471      5475      5478
      5474      5471      5475      5476      5474      5471      5475      5477
      5474      5471      5475      5478      5475      5478      5485      5481
      5476      5475      5478      5479      5476      5475      5478      5480
      5476      5475      5478      5485      5477      5475      5478      5479
      5477      5475      5478      5480      5477      5475      5478      5485
      5478      5485      5481      5482      5478      5485      5481      5483
      5478      5485      5481      5484      5479      5478      5485      5481
      5480      5478      5485      5481      5481      5484      5486      5487
      5481      5484      5486      5488      5481      5484      5486      5489
      5482      5481      5484      5486      5483      5481      5484      5486
      5484      5486      5489      5490      5484      5486      5489      5491
      5484      5486      5489      5497      5485      5481      5484      5486
      5486      5489      5491      5492      5486      5489      5497      5498
      5486      5489      5497      5499      5486      5489      5497      5500
      5487      5486      5489      5490      5487      5486      5489      5491
      5487      5486      5489      5497      5488      5486      5489      5490
      5488      5486      5489      5491      5488      5486      5489      5497
      5489      5491      5492      5493      5489      5491      5492      5494
      5489      5497      5500      5501      5490      5489      5491      5492
      5490      5489      5497      5498      5490      5489      5497      5499
      5490      5489      5497      5500      5491      5489      5497      5498
      5491      5489      5497      5499      5491      5489      5497      5500
      5491      5492      5494      5495      5491      5492      5494      5496
      5491      5492      5494      5506      5492      5491      5489      5497
      5492      5494      5506      5507      5492      5494      5506      5508
      5492      5494      5506      5509      5493      5492      5494      5495
      5493      5492      5494      5496      5493      5492      5494      5506
      5494      5506      5509      5510      5494      5506      5509      5511
      5494      5506      5509      5512      5495      5494      5506      5507
      5495      5494      5506      5508      5495      5494      5506      5509
      5496      5494      5506      5507      5496      5494      5506      5508
      5496      5494      5506      5509      5497      5500      5501      5502
      5497      5500      5501      5503      5498      5497      5500      5501
      5499      5497      5500      5501      5500      5501      5503      5504
      5500      5501      5503      5505      5500      5501      5503      5553
      5501      5503      5553      5554      5501      5503      5553      5555
      5501      5503      5553      5556      5502      5501      5503      5504
      5502      5501      5503      5505      5502      5501      5503      5553
      5503      5553      5556      5557      5503      5553      5556      5558
      5503      5553      5556      5559      5504      5503      5553      5554
      5504      5503      5553      5555      5504      5503      5553      5556
      5505      5503      5553      5554      5505      5503      5553      5555
      5505      5503      5553      5556      5506      5509      5512      5513
      5506      5509      5512      5514      5506      5509      5512      5515
      5507      5506      5509      5510      5507      5506      5509      5511
      5507      5506      5509      5512      5508      5506      5509      5510
      5508      5506      5509      5511      5508      5506      5509      5512
      5509      5512      5515      5516      5509      5512      5515      5517
      5509      5512      5515      5518      5510      5509      5512      5513
      5510      5509      5512      5514      5510      5509      5512      5515
      5511      5509      5512      5513      5511      5509      5512      5514
      5511      5509      5512      5515      5512      5515      5518      5519
      5512      5515      5518      5520      5512      5515      5518      5521
      5513      5512      5515      5516      5513      5512      5515      5517
      5513      5512      5515      5518      5514      5512      5515      5516
      5514      5512      5515      5517      5514      5512      5515      5518
      5515      5518      5521      5522      5515      5518      5521      5523
      5515      5518      5521      5524      5516      5515      5518      5519
      5516      5515      5518      5520      5516      5515      5518      5521
      5517      5515      5518      5519      5517      5515      5518      5520
      5517      5515      5518      5521      5518      5521      5524      5525
      5518      5521      5524      5526      5519      5518      5521      5522
      5519      5518      5521      5523      5519      5518      5521      5524
      5520      5518      5521      5522      5520      5518      5521      5523
      5520      5518      5521      5524      5521      5524      5526      5527
      5521      5524      5526      5528      5522      5521      5524      5525
      5522      5521      5524      5526      5523      5521      5524      5525
      5523      5521      5524      5526      5524      5526      5528      5529
      5524      5526      5528      5530      5524      5526      5528      5531
      5525      5524      5526      5527      5525      5524      5526      5528
      5526      5528      5531      5532      5526      5528      5531      5533
      5526      5528      5531      5534      5527      5526      5528      5529
      5527      5526      5528      5530      5527      5526      5528      5531
      5528      5531      5534      5535      5528      5531      5534      5536
      5528      5531      5534      5537      5529      5528      5531      5532
      5529      5528      5531      5533      5529      5528      5531      5534
      5530      5528      5531      5532      5530      5528      5531      5533
      5530      5528      5531      5534      5531      5534      5537      5538
      5531      5534      5537      5539      5531      5534      5537      5540
      5532      5531      5534      5535      5532      5531      5534      5536
      5532      5531      5534      5537      5533      5531      5534      5535
      5533      5531      5534      5536      5533      5531      5534      5537
      5534      5537      5540      5541      5534      5537      5540      5542
      5534      5537      5540      5543      5535      5534      5537      5538
      5535      5534      5537      5539      5535      5534      5537      5540
      5536      5534      5537      5538      5536      5534      5537      5539
      5536      5534      5537      5540      5537      5540      5543      5544
      5537      5540      5543      5545      5537      5540      5543      5546
      5538      5537      5540      5541      5538      5537      5540      5542
      5538      5537      5540      5543      5539      5537      5540      5541
      5539      5537      5540      5542      5539      5537      5540      5543
      5540      5543      5546      5547      5540      5543      5546      5548
      5540      5543      5546      5549      5541      5540      5543      5544
      5541      5540      5543      5545      5541      5540      5543      5546
      5542      5540      5543      5544      5542      5540      5543      5545
      5542      5540      5543      5546      5543      5546      5549      5550
      5543      5546      5549      5551      5543      5546      5549      5552
      5544      5543      5546      5547      5544      5543      5546      5548
      5544      5543      5546      5549      5545      5543      5546      5547
      5545      5543      5546      5548      5545      5543      5546      5549
      5547      5546      5549      5550      5547      5546      5549      5551
      5547      5546      5549      5552      5548      5546      5549      5550
      5548      5546      5549      5551      5548      5546      5549      5552
      5553      5556      5559      5560      5553      5556      5559      5561
      5553      5556      5559      5562      5554      5553      5556      5557
      5554      5553      5556      5558      5554      5553      5556      5559
      5555      5553      5556      5557      5555      5553      5556      5558
      5555      5553      5556      5559      5556      5559      5562      5563
      5556      5559      5562      5564      5556      5559      5562      5565
      5557      5556      5559      5560      5557      5556      5559      5561
      5557      5556      5559      5562      5558      5556      5559      5560
      5558      5556      5559      5561      5558      5556      5559      5562
      5559      5562      5565      5566      5559      5562      5565      5567
      5559      5562      5565      5568      5560      5559      5562      5563
      5560      5559      5562      5564      5560      5559      5562      5565
      5561      5559      5562      5563      5561      5559      5562      5564
      5561      5559      5562      5565      5562      5565      5568      5569
      5562      5565      5568      5570      5562      5565      5568      5571
      5563      5562      5565      5566      5563      5562      5565      5567
      5563      5562      5565      5568      5564      5562      5565      5566
      5564      5562      5565      5567      5564      5562      5565      5568
      5565      5568      5571      5572      5565      5568      5571      5573
      5565      5568      5571      5574      5566      5565      5568      5569
      5566      5565      5568      5570      5566      5565      5568      5571
      5567      5565      5568      5569      5567      5565      5568      5570
      5567      5565      5568      5571      5568      5571      5574      5575
      5568      5571      5574      5576      5568      5571      5574      5577
      5569      5568      5571      5572      5569      5568      5571      5573
      5569      5568      5571      5574      5570      5568      5571      5572
      5570      5568      5571      5573      5570      5568      5571      5574
      5571      5574      5577      5578      5571      5574      5577      5579
      5571      5574      5577      5580      5572      5571      5574      5575
      5572      5571      5574      5576      5572      5571      5574      5577
      5573      5571      5574      5575      5573      5571      5574      5576
      5573      5571      5574      5577      5574      5577      5580      5581
      5574      5577      5580      5582      5574      5577      5580      5583
      5575      5574      5577      5578      5575      5574      5577      5579
      5575      5574      5577      5580      5576      5574      5577      5578
      5576      5574      5577      5579      5576      5574      5577      5580
      5577      5580      5583      5584      5577      5580      5583      5585
      5577      5580      5583      5586      5578      5577      5580      5581
      5578      5577      5580      5582      5578      5577      5580      5583
      5579      5577      5580      5581      5579      5577      5580      5582
      5579      5577      5580      5583      5580      5583      5586      5587
      5580      5583      5586      5588      5580      5583      5586      5589
      5581      5580      5583      5584      5581      5580      5583      5585
      5581      5580      5583      5586      5582      5580      5583      5584
      5582      5580      5583      5585      5582      5580      5583      5586
      5583      5586      5589      5590      5583      5586      5589      5591
      5583      5586      5589      5592      5584      5583      5586      5587
      5584      5583      5586      5588      5584      5583      5586      5589
      5585      5583      5586      5587      5585      5583      5586      5588
      5585      5583      5586      5589      5586      5589      5592      5593
      5586      5589      5592      5594      5586      5589      5592      5595
      5587      5586      5589      5590      5587      5586      5589      5591
      5587      5586      5589      5592      5588      5586      5589      5590
      5588      5586      5589      5591      5588      5586      5589      5592
      5590      5589      5592      5593      5590      5589      5592      5594
      5590      5589      5592      5595      5591      5589      5592      5593
      5591      5589      5592      5594      5591      5589      5592      5595
     17571     17572     17587     17588     17571     17572     17587     17589
     17571     17572     17587     17593     17572     17571     17575     17576
     17572     17571     17575     17577     17572     17571     17575     17578
     17572     17571     17579     17580     17572     17571     17579     17581
     17572     17571     17579     17582     17572     17571     17583     17584
     17572     17571     17583     17585     17572     17571     17583     17586
     17572     17587     17593     17590     17573     17572     17571     17575
     17573     17572     17571     17579     17573     17572     17571     17583
     17573     17572     17587     17588     17573     17572     17587     17589
     17573     17572     17587     17593     17574     17572     17571     17575
     17574     17572     17571     17579     17574     17572     17571     17583
     17574     17572     17587     17588     17574     17572     17587     17589
     17574     17572     17587     17593     17575     17571     17572     17587
     17575     17571     17579     17580     17575     17571     17579     17581
     17575     17571     17579     17582     17575     17571     17583     17584
     17575     17571     17583     17585     17575     17571     17583     17586
     17576     17575     17571     17579     17576     17575     17571     17583
     17577     17575     17571     17579     17577     17575     17571     17583
     17578     17575     17571     17579     17578     17575     17571     17583
     17579     17571     17572     17587     17579     17571     17583     17584
     17579     17571     17583     17585     17579     17571     17583     17586
     17580     17579     17571     17583     17581     17579     17571     17583
     17582     17579     17571     17583     17583     17571     17572     17587
     17587     17593     17590     17591     17587     17593     17590     17592
     17587     17593     17590     17594     17588     17587     17593     17590
     17589     17587     17593     17590     17590     17594     17595     17596
     17590     17594     17595     17597     17590     17594     17595     17598
     17591     17590     17594     17595     17592     17590     17594     17595
     17593     17590     17594     17595     17594     17595     17598     17599
     17594     17595     17598     17600     17594     17595     17598     17606
     17595     17598     17600     17601     17595     17598     17606     17607
     17595     17598     17606     17608     17595     17598     17606     17609
     17596     17595     17598     17599     17596     17595     17598     17600
     17596     17595     17598     17606     17597     17595     17598     17599
     17597     17595     17598     17600     17597     17595     17598     17606
     17598     17600     17601     17602     17598     17600     17601     17603
     17598     17606     17609     17610     17599     17598     17600     17601
     17599     17598     17606     17607     17599     17598     17606     17608
     17599     17598     17606     17609     17600     17598     17606     17607
     17600     17598     17606     17608     17600     17598     17606     17609
     17600     17601     17603     17604     17600     17601     17603     17605
     17600     17601     17603     17615     17601     17600     17598     17606
     17601     17603     17615     17616     17601     17603     17615     17617
     17601     17603     17615     17618     17602     17601     17603     17604
     17602     17601     17603     17605     17602     17601     17603     17615
     17603     17615     17618     17619     17603     17615     17618     17620
     17603     17615     17618     17621     17604     17603     17615     17616
     17604     17603     17615     17617     17604     17603     17615     17618
     17605     17603     17615     17616     17605     17603     17615     17617
     17605     17603     17615     17618     17606     17609     17610     17611
     17606     17609     17610     17612     17607     17606     17609     17610
     17608     17606     17609     17610     17609     17610     17612     17613
     17609     17610     17612     17614     17609     17610     17612     17662
     17610     17612     17662     17663     17610     17612     17662     17664
     17610     17612     17662     17665     17611     17610     17612     17613
     17611     17610     17612     17614     17611     17610     17612     17662
     17612     17662     17665     17666     17612     17662     17665     17667
     17612     17662     17665     17668     17613     17612     17662     17663
     17613     17612     17662     17664     17613     17612     17662     17665
     17614     17612     17662     17663     17614     17612     17662     17664
     17614     17612     17662     17665     17615     17618     17621     17622
     17615     17618     17621     17623     17615     17618     17621     17624
     17616     17615     17618     17619     17616     17615     17618     17620
     17616     17615     17618     17621     17617     17615     17618     17619
     17617     17615     17618     17620     17617     17615     17618     17621
     17618     17621     17624     17625     17618     17621     17624     17626
     17618     17621     17624     17627     17619     17618     17621     17622
     17619     17618     17621     17623     17619     17618     17621     17624
     17620     17618     17621     17622     17620     17618     17621     17623
     17620     17618     17621     17624     17621     17624     17627     17628
     17621     17624     17627     17629     17621     17624     17627     17630
     17622     17621     17624     17625     17622     17621     17624     17626
     17622     17621     17624     17627     17623     17621     17624     17625
     17623     17621     17624     17626     17623     17621     17624     17627
     17624     17627     17630     17631     17624     17627     17630     17632
     17624     17627     17630     17633     17625     17624     17627     17628
     17625     17624     17627     17629     17625     17624     17627     17630
     17626     17624     17627     17628     17626     17624     17627     17629
     17626     17624     17627     17630     17627     17630     17633     17634
     17627     17630     17633     17635     17628     17627     17630     17631
     17628     17627     17630     17632     17628     17627     17630     17633
     17629     17627     17630     17631     17629     17627     17630     17632
     17629     17627     17630     17633     17630     17633     17635     17636
     17630     17633     17635     17637     17631     17630     17633     17634
     17631     17630     17633     17635     17632     17630     17633     17634
     17632     17630     17633     17635     17633     17635     17637     17638
     17633     17635     17637     17639     17633     17635     17637     17640
     17634     17633     17635     17636     17634     17633     17635     17637
     17635     17637     17640     17641     17635     17637     17640     17642
     17635     17637     17640     17643     17636     17635     17637     17638
     17636     17635     17637     17639     17636     17635     17637     17640
     17637     17640     17643     17644     17637     17640     17643     17645
     17637     17640     17643     17646     17638     17637     17640     17641
     17638     17637     17640     17642     17638     17637     17640     17643
     17639     17637     17640     17641     17639     17637     17640     17642
     17639     17637     17640     17643     17640     17643     17646     17647
     17640     17643     17646     17648     17640     17643     17646     17649
     17641     17640     17643     17644     17641     17640     17643     17645
     17641     17640     17643     17646     17642     17640     17643     17644
     17642     17640     17643     17645     17642     17640     17643     17646
     17643     17646     17649     17650     17643     17646     17649     17651
     17643     17646     17649     17652     17644     17643     17646     17647
     17644     17643     17646     17648     17644     17643     17646     17649
     17645     17643     17646     17647     17645     17643     17646     17648
     17645     17643     17646     17649     17646     17649     17652     17653
     17646     17649     17652     17654     17646     17649     17652     17655
     17647     17646     17649     17650     17647     17646     17649     17651
     17647     17646     17649     17652     17648     17646     17649     17650
     17648     17646     17649     17651     17648     17646     17649     17652
     17649     17652     17655     17656     17649     17652     17655     17657
     17649     17652     17655     17658     17650     17649     17652     17653
     17650     17649     17652     17654     17650     17649     17652     17655
     17651     17649     17652     17653     17651     17649     17652     17654
     17651     17649     17652     17655     17652     17655     17658     17659
     17652     17655     17658     17660     17652     17655     17658     17661
     17653     17652     17655     17656     17653     17652     17655     17657
     17653     17652     17655     17658     17654     17652     17655     17656
     17654     17652     17655     17657     17654     17652     17655     17658
     17656     17655     17658     17659     17656     17655     17658     17660
     17656     17655     17658     17661     17657     17655     17658     17659
     17657     17655     17658     17660     17657     17655     17658     17661
     17662     17665     17668     17669     17662     17665     17668     17670
     17662     17665     17668     17671     17663     17662     17665     17666
     17663     17662     17665     17667     17663     17662     17665     17668
     17664     17662     17665     17666     17664     17662     17665     17667
     17664     17662     17665     17668     17665     17668     17671     17672
     17665     17668     17671     17673     17665     17668     17671     17674
     17666     17665     17668     17669     17666     17665     17668     17670
     17666     17665     17668     17671     17667     17665     17668     17669
     17667     17665     17668     17670     17667     17665     17668     17671
     17668     17671     17674     17675     17668     17671     17674     17676
     17668     17671     17674     17677     17669     17668     17671     17672
     17669     17668     17671     17673     17669     17668     17671     17674
     17670     17668     17671     17672     17670     17668     17671     17673
     17670     17668     17671     17674     17671     17674     17677     17678
     17671     17674     17677     17679     17671     17674     17677     17680
     17672     17671     17674     17675     17672     17671     17674     17676
     17672     17671     17674     17677     17673     17671     17674     17675
     17673     17671     17674     17676     17673     17671     17674     17677
     17674     17677     17680     17681     17674     17677     17680     17682
     17674     17677     17680     17683     17675     17674     17677     17678
     17675     17674     17677     17679     17675     17674     17677     17680
     17676     17674     17677     17678     17676     17674     17677     17679
     17676     17674     17677     17680     17677     17680     17683     17684
     17677     17680     17683     17685     17677     17680     17683     17686
     17678     17677     17680     17681     17678     17677     17680     17682
     17678     17677     17680     17683     17679     17677     17680     17681
     17679     17677     17680     17682     17679     17677     17680     17683
     17680     17683     17686     17687     17680     17683     17686     17688
     17680     17683     17686     17689     17681     17680     17683     17684
     17681     17680     17683     17685     17681     17680     17683     17686
     17682     17680     17683     17684     17682     17680     17683     17685
     17682     17680     17683     17686     17683     17686     17689     17690
     17683     17686     17689     17691     17683     17686     17689     17692
     17684     17683     17686     17687     17684     17683     17686     17688
     17684     17683     17686     17689     17685     17683     17686     17687
     17685     17683     17686     17688     17685     17683     17686     17689
     17686     17689     17692     17693     17686     17689     17692     17694
     17686     17689     17692     17695     17687     17686     17689     17690
     17687     17686     17689     17691     17687     17686     17689     17692
     17688     17686     17689     17690     17688     17686     17689     17691
     17688     17686     17689     17692     17689     17692     17695     17696
     17689     17692     17695     17697     17689     17692     17695     17698
     17690     17689     17692     17693     17690     17689     17692     17694
     17690     17689     17692     17695     17691     17689     17692     17693
     17691     17689     17692     17694     17691     17689     17692     17695
     17692     17695     17698     17699     17692     17695     17698     17700
     17692     17695     17698     17701     17693     17692     17695     17696
     17693     17692     17695     17697     17693     17692     17695     17698
     17694     17692     17695     17696     17694     17692     17695     17697
     17694     17692     17695     17698     17695     17698     17701     17702
     17695     17698     17701     17703     17695     17698     17701     17704
     17696     17695     17698     17699     17696     17695     17698     17700
     17696     17695     17698     17701     17697     17695     17698     17699
     17697     17695     17698     17700     17697     17695     17698     17701
     17699     17698     17701     17702     17699     17698     17701     17703
     17699     17698     17701     17704     17700     17698     17701     17702
     17700     17698     17701     17703     17700     17698     17701     17704
      1111      1115      1118      1119      1111      1115      1118      1149
      1111      1157      1154      1149      1111      1157      1154      1155
      1111      1157      1154      1156      1112      1111      1113      1114
      1112      1111      1115      1116      1112      1111      1115      1117
      1112      1111      1115      1118      1112      1111      1157      1154
      1112      1111      1157      1158      1112      1111      1157      1159
      1113      1111      1115      1116      1113      1111      1115      1117
      1113      1111      1115      1118      1113      1111      1157      1154
      1113      1111      1157      1158      1113      1111      1157      1159
      1114      1113      1111      1115      1114      1113      1111      1157
      1115      1111      1157      1154      1115      1111      1157      1158
      1115      1111      1157      1159      1115      1118      1119      1120
      1115      1118      1119      1121      1115      1118      1149      1147
      1115      1118      1149      1150      1115      1118      1149      1154
      1116      1115      1111      1157      1116      1115      1118      1119
      1116      1115      1118      1149      1117      1115      1111      1157
      1117      1115      1118      1119      1117      1115      1118      1149
      1118      1115      1111      1157      1118      1119      1121      1122
      1118      1119      1121      1123      1118      1119      1121      1124
      1118      1149      1147      1124      1118      1149      1147      1144
      1118      1149      1147      1148      1118      1149      1150      1151
      1118      1149      1150      1152      1118      1149      1150      1153
      1118      1149      1154      1155      1118      1149      1154      1156
      1118      1149      1154      1157      1119      1118      1149      1147
      1119      1118      1149      1150      1119      1118      1149      1154
      1119      1121      1124      1125      1119      1121      1124      1126
      1119      1121      1124      1147      1120      1119      1118      1149
      1120      1119      1121      1122      1120      1119      1121      1123
      1120      1119      1121      1124      1121      1119      1118      1149
      1121      1124      1126      1127      1121      1124      1126      1128
      1121      1124      1126      1136      1121      1124      1147      1144
      1121      1124      1147      1148      1121      1124      1147      1149
      1122      1121      1124      1125      1122      1121      1124      1126
      1122      1121      1124      1147      1123      1121      1124      1125
      1123      1121      1124      1126      1123      1121      1124      1147
      1124      1126      1128      1129      1124      1126      1128      1130
      1124      1126      1128      1131      1124      1126      1136      1134
      1124      1126      1136      1137      1124      1126      1136      1141
      1124      1147      1144      1141      1124      1147      1144      1145
      1124      1147      1144      1146      1124      1147      1149      1150
      1124      1147      1149      1154      1125      1124      1126      1127
      1125      1124      1126      1128      1125      1124      1126      1136
      1125      1124      1147      1144      1125      1124      1147      1148
      1125      1124      1147      1149      1126      1124      1147      1144
      1126      1124      1147      1148      1126      1124      1147      1149
      1126      1128      1131      1132      1126      1128      1131      1133
      1126      1128      1131      1134      1126      1136      1134      1131
      1126      1136      1134      1135      1126      1136      1134      1160
      1126      1136      1137      1138      1126      1136      1137      1139
      1126      1136      1137      1140      1126      1136      1141      1142
      1126      1136      1141      1143      1126      1136      1141      1144
      1127      1126      1124      1147      1127      1126      1128      1129
      1127      1126      1128      1130      1127      1126      1128      1131
      1127      1126      1136      1134      1127      1126      1136      1137
      1127      1126      1136      1141      1128      1126      1124      1147
      1128      1126      1136      1134      1128      1126      1136      1137
      1128      1126      1136      1141      1128      1131      1134      1135
      1128      1131      1134      1136      1128      1131      1134      1160
      1129      1128      1126      1136      1129      1128      1131      1132
      1129      1128      1131      1133      1129      1128      1131      1134
      1130      1128      1126      1136      1130      1128      1131      1132
      1130      1128      1131      1133      1130      1128      1131      1134
      1131      1128      1126      1136      1131      1134      1136      1137
      1131      1134      1136      1141      1131      1134      1160      1161
      1131      1134      1160      1162      1131      1134      1160      1166
      1132      1131      1134      1135      1132      1131      1134      1136
      1132      1131      1134      1160      1133      1131      1134      1135
      1133      1131      1134      1136      1133      1131      1134      1160
      1134      1136      1137      1138      1134      1136      1137      1139
      1134      1136      1137      1140      1134      1136      1141      1142
      1134      1136      1141      1143      1134      1136      1141      1144
      1134      1160      1162      1163      1134      1160      1162      1164
      1134      1160      1162      1165      1134      1160      1166      1167
      1134      1160      1166      1168      1134      1160      1166      1169
      1135      1134      1136      1137      1135      1134      1136      1141
      1135      1134      1160      1161      1135      1134      1160      1162
      1135      1134      1160      1166      1136      1126      1124      1147
      1136      1134      1160      1161      1136      1134      1160      1162
      1136      1134      1160      1166      1136      1141      1144      1145
      1136      1141      1144      1146      1136      1141      1144      1147
      1137      1136      1134      1160      1137      1136      1141      1142
      1137      1136      1141      1143      1137      1136      1141      1144
      1138      1137      1136      1141      1139      1137      1136      1141
      1140      1137      1136      1141      1141      1136      1134      1160
      1141      1144      1147      1148      1141      1144      1147      1149
      1142      1141      1144      1145      1142      1141      1144      1146
      1142      1141      1144      1147      1143      1141      1144      1145
      1143      1141      1144      1146      1143      1141      1144      1147
      1144      1147      1149      1150      1144      1147      1149      1154
      1145      1144      1147      1148      1145      1144      1147      1149
      1146      1144      1147      1148      1146      1144      1147      1149
      1147      1149      1150      1151      1147      1149      1150      1152
      1147      1149      1150      1153      1147      1149      1154      1155
      1147      1149      1154      1156      1147      1149      1154      1157
      1148      1147      1149      1150      1148      1147      1149      1154
      1149      1154      1157      1158      1149      1154      1157      1159
      1150      1149      1154      1155      1150      1149      1154      1156
      1150      1149      1154      1157      1151      1150      1149      1154
      1152      1150      1149      1154      1153      1150      1149      1154
      1155      1154      1157      1158      1155      1154      1157      1159
      1156      1154      1157      1158      1156      1154      1157      1159
      1160      1166      1169      1170      1160      1166      1169      1171
      1160      1166      1169      1172      1161      1160      1162      1163
      1161      1160      1162      1164      1161      1160      1162      1165
      1161      1160      1166      1167      1161      1160      1166      1168
      1161      1160      1166      1169      1162      1160      1166      1167
      1162      1160      1166      1168      1162      1160      1166      1169
      1163      1162      1160      1166      1164      1162      1160      1166
      1165      1162      1160      1166      1166      1169      1172      1173
      1166      1169      1172      1174      1166      1169      1172      1175
      1167      1166      1169      1170      1167      1166      1169      1171
      1167      1166      1169      1172      1168      1166      1169      1170
      1168      1166      1169      1171      1168      1166      1169      1172
      1169      1172      1175      1176      1169      1172      1175      1177
      1169      1172      1175      1181      1170      1169      1172      1173
      1170      1169      1172      1174      1170      1169      1172      1175
      1171      1169      1172      1173      1171      1169      1172      1174
      1171      1169      1172      1175      1172      1175      1177      1178
      1172      1175      1177      1179      1172      1175      1177      1180
      1172      1175      1181      1182      1172      1175      1181      1183
      1172      1175      1181      1184      1173      1172      1175      1176
      1173      1172      1175      1177      1173      1172      1175      1181
      1174      1172      1175      1176      1174      1172      1175      1177
      1174      1172      1175      1181      1176      1175      1177      1178
      1176      1175      1177      1179      1176      1175      1177      1180
      1176      1175      1181      1182      1176      1175      1181      1183
      1176      1175      1181      1184      1177      1175      1181      1182
      1177      1175      1181      1183      1177      1175      1181      1184
      1178      1177      1175      1181      1179      1177      1175      1181
      1180      1177      1175      1181     11011     11015     11017     11018
     11011     11015     11017     11019     11011     11015     11020     11021
     11011     11015     11020     11022     11011     11015     11020     11026
     11012     11011     11015     11016     11012     11011     11015     11017
     11012     11011     11015     11020     11013     11011     11015     11016
     11013     11011     11015     11017     11013     11011     11015     11020
     11014     11011     11015     11016     11014     11011     11015     11017
     11014     11011     11015     11020     11015     11020     11026     11023
     11016     11015     11017     11018     11016     11015     11017     11019
     11016     11015     11020     11021     11016     11015     11020     11022
     11016     11015     11020     11026     11017     11015     11020     11021
     11017     11015     11020     11022     11017     11015     11020     11026
     11018     11017     11015     11020     11019     11017     11015     11020
     11020     11026     11023     11024     11020     11026     11023     11025
     11020     11026     11023     11027     11021     11020     11026     11023
     11022     11020     11026     11023     11023     11027     11028     11029
     11023     11027     11028     11030     11023     11027     11028     11031
     11024     11023     11027     11028     11025     11023     11027     11028
     11026     11023     11027     11028     11027     11028     11031     11032
     11027     11028     11031     11033     11027     11028     11031     11039
     11028     11031     11033     11034     11028     11031     11039     11040
     11028     11031     11039     11041     11028     11031     11039     11042
     11029     11028     11031     11032     11029     11028     11031     11033
     11029     11028     11031     11039     11030     11028     11031     11032
     11030     11028     11031     11033     11030     11028     11031     11039
     11031     11033     11034     11035     11031     11033     11034     11036
     11031     11039     11042     11043     11032     11031     11033     11034
     11032     11031     11039     11040     11032     11031     11039     11041
     11032     11031     11039     11042     11033     11031     11039     11040
     11033     11031     11039     11041     11033     11031     11039     11042
     11033     11034     11036     11037     11033     11034     11036     11038
     11033     11034     11036     11048     11034     11033     11031     11039
     11034     11036     11048     11049     11034     11036     11048     11050
     11034     11036     11048     11051     11035     11034     11036     11037
     11035     11034     11036     11038     11035     11034     11036     11048
     11036     11048     11051     11052     11036     11048     11051     11053
     11036     11048     11051     11054     11037     11036     11048     11049
     11037     11036     11048     11050     11037     11036     11048     11051
     11038     11036     11048     11049     11038     11036     11048     11050
     11038     11036     11048     11051     11039     11042     11043     11044
     11039     11042     11043     11045     11040     11039     11042     11043
     11041     11039     11042     11043     11042     11043     11045     11046
     11042     11043     11045     11047     11042     11043     11045     11095
     11043     11045     11095     11096     11043     11045     11095     11097
     11043     11045     11095     11098     11044     11043     11045     11046
     11044     11043     11045     11047     11044     11043     11045     11095
     11045     11095     11098     11099     11045     11095     11098     11100
     11045     11095     11098     11101     11046     11045     11095     11096
     11046     11045     11095     11097     11046     11045     11095     11098
     11047     11045     11095     11096     11047     11045     11095     11097
     11047     11045     11095     11098     11048     11051     11054     11055
     11048     11051     11054     11056     11048     11051     11054     11057
     11049     11048     11051     11052     11049     11048     11051     11053
     11049     11048     11051     11054     11050     11048     11051     11052
     11050     11048     11051     11053     11050     11048     11051     11054
     11051     11054     11057     11058     11051     11054     11057     11059
     11051     11054     11057     11060     11052     11051     11054     11055
     11052     11051     11054     11056     11052     11051     11054     11057
     11053     11051     11054     11055     11053     11051     11054     11056
     11053     11051     11054     11057     11054     11057     11060     11061
     11054     11057     11060     11062     11054     11057     11060     11063
     11055     11054     11057     11058     11055     11054     11057     11059
     11055     11054     11057     11060     11056     11054     11057     11058
     11056     11054     11057     11059     11056     11054     11057     11060
     11057     11060     11063     11064     11057     11060     11063     11065
     11057     11060     11063     11066     11058     11057     11060     11061
     11058     11057     11060     11062     11058     11057     11060     11063
     11059     11057     11060     11061     11059     11057     11060     11062
     11059     11057     11060     11063     11060     11063     11066     11067
     11060     11063     11066     11068     11061     11060     11063     11064
     11061     11060     11063     11065     11061     11060     11063     11066
     11062     11060     11063     11064     11062     11060     11063     11065
     11062     11060     11063     11066     11063     11066     11068     11069
     11063     11066     11068     11070     11064     11063     11066     11067
     11064     11063     11066     11068     11065     11063     11066     11067
     11065     11063     11066     11068     11066     11068     11070     11071
     11066     11068     11070     11072     11066     11068     11070     11073
     11067     11066     11068     11069     11067     11066     11068     11070
     11068     11070     11073     11074     11068     11070     11073     11075
     11068     11070     11073     11076     11069     11068     11070     11071
     11069     11068     11070     11072     11069     11068     11070     11073
     11070     11073     11076     11077     11070     11073     11076     11078
     11070     11073     11076     11079     11071     11070     11073     11074
     11071     11070     11073     11075     11071     11070     11073     11076
     11072     11070     11073     11074     11072     11070     11073     11075
     11072     11070     11073     11076     11073     11076     11079     11080
     11073     11076     11079     11081     11073     11076     11079     11082
     11074     11073     11076     11077     11074     11073     11076     11078
     11074     11073     11076     11079     11075     11073     11076     11077
     11075     11073     11076     11078     11075     11073     11076     11079
     11076     11079     11082     11083     11076     11079     11082     11084
     11076     11079     11082     11085     11077     11076     11079     11080
     11077     11076     11079     11081     11077     11076     11079     11082
     11078     11076     11079     11080     11078     11076     11079     11081
     11078     11076     11079     11082     11079     11082     11085     11086
     11079     11082     11085     11087     11079     11082     11085     11088
     11080     11079     11082     11083     11080     11079     11082     11084
     11080     11079     11082     11085     11081     11079     11082     11083
     11081     11079     11082     11084     11081     11079     11082     11085
     11082     11085     11088     11089     11082     11085     11088     11090
     11082     11085     11088     11091     11083     11082     11085     11086
     11083     11082     11085     11087     11083     11082     11085     11088
     11084     11082     11085     11086     11084     11082     11085     11087
     11084     11082     11085     11088     11085     11088     11091     11092
     11085     11088     11091     11093     11085     11088     11091     11094
     11086     11085     11088     11089     11086     11085     11088     11090
     11086     11085     11088     11091     11087     11085     11088     11089
     11087     11085     11088     11090     11087     11085     11088     11091
     11089     11088     11091     11092     11089     11088     11091     11093
     11089     11088     11091     11094     11090     11088     11091     11092
     11090     11088     11091     11093     11090     11088     11091     11094
     11095     11098     11101     11102     11095     11098     11101     11103
     11095     11098     11101     11104     11096     11095     11098     11099
     11096     11095     11098     11100     11096     11095     11098     11101
     11097     11095     11098     11099     11097     11095     11098     11100
     11097     11095     11098     11101     11098     11101     11104     11105
     11098     11101     11104     11106     11098     11101     11104     11107
     11099     11098     11101     11102     11099     11098     11101     11103
     11099     11098     11101     11104     11100     11098     11101     11102
     11100     11098     11101     11103     11100     11098     11101     11104
     11101     11104     11107     11108     11101     11104     11107     11109
     11101     11104     11107     11110     11102     11101     11104     11105
     11102     11101     11104     11106     11102     11101     11104     11107
     11103     11101     11104     11105     11103     11101     11104     11106
     11103     11101     11104     11107     11104     11107     11110     11111
     11104     11107     11110     11112     11104     11107     11110     11113
     11105     11104     11107     11108     11105     11104     11107     11109
     11105     11104     11107     11110     11106     11104     11107     11108
     11106     11104     11107     11109     11106     11104     11107     11110
     11107     11110     11113     11114     11107     11110     11113     11115
     11107     11110     11113     11116     11108     11107     11110     11111
     11108     11107     11110     11112     11108     11107     11110     11113
     11109     11107     11110     11111     11109     11107     11110     11112
     11109     11107     11110     11113     11110     11113     11116     11117
     11110     11113     11116     11118     11110     11113     11116     11119
     11111     11110     11113     11114     11111     11110     11113     11115
     11111     11110     11113     11116     11112     11110     11113     11114
     11112     11110     11113     11115     11112     11110     11113     11116
     11113     11116     11119     11120     11113     11116     11119     11121
     11113     11116     11119     11122     11114     11113     11116     11117
     11114     11113     11116     11118     11114     11113     11116     11119
     11115     11113     11116     11117     11115     11113     11116     11118
     11115     11113     11116     11119     11116     11119     11122     11123
     11116     11119     11122     11124     11116     11119     11122     11125
     11117     11116     11119     11120     11117     11116     11119     11121
     11117     11116     11119     11122     11118     11116     11119     11120
     11118     11116     11119     11121     11118     11116     11119     11122
     11119     11122     11125     11126     11119     11122     11125     11127
     11119     11122     11125     11128     11120     11119     11122     11123
     11120     11119     11122     11124     11120     11119     11122     11125
     11121     11119     11122     11123     11121     11119     11122     11124
     11121     11119     11122     11125     11122     11125     11128     11129
     11122     11125     11128     11130     11122     11125     11128     11131
     11123     11122     11125     11126     11123     11122     11125     11127
     11123     11122     11125     11128     11124     11122     11125     11126
     11124     11122     11125     11127     11124     11122     11125     11128
     11125     11128     11131     11132     11125     11128     11131     11133
     11125     11128     11131     11134     11126     11125     11128     11129
     11126     11125     11128     11130     11126     11125     11128     11131
     11127     11125     11128     11129     11127     11125     11128     11130
     11127     11125     11128     11131     11128     11131     11134     11135
     11128     11131     11134     11136     11128     11131     11134     11137
     11129     11128     11131     11132     11129     11128     11131     11133
     11129     11128     11131     11134     11130     11128     11131     11132
     11130     11128     11131     11133     11130     11128     11131     11134
     11132     11131     11134     11135     11132     11131     11134     11136
     11132     11131     11134     11137     11133     11131     11134     11135
     11133     11131     11134     11136     11133     11131     11134     11137
     11138     11142     11144     11145     11138     11142     11144     11146
     11138     11142     11147     11148     11138     11142     11147     11149
     11138     11142     11147     11153     11139     11138     11142     11143
     11139     11138     11142     11144     11139     11138     11142     11147
     11140     11138     11142     11143     11140     11138     11142     11144
     11140     11138     11142     11147     11141     11138     11142     11143
     11141     11138     11142     11144     11141     11138     11142     11147
     11142     11147     11153     11150     11143     11142     11144     11145
     11143     11142     11144     11146     11143     11142     11147     11148
     11143     11142     11147     11149     11143     11142     11147     11153
     11144     11142     11147     11148     11144     11142     11147     11149
     11144     11142     11147     11153     11145     11144     11142     11147
     11146     11144     11142     11147     11147     11153     11150     11151
     11147     11153     11150     11152     11147     11153     11150     11154
     11148     11147     11153     11150     11149     11147     11153     11150
     11150     11154     11155     11156     11150     11154     11155     11157
     11150     11154     11155     11158     11151     11150     11154     11155
     11152     11150     11154     11155     11153     11150     11154     11155
     11154     11155     11158     11159     11154     11155     11158     11160
     11154     11155     11158     11166     11155     11158     11160     11161
     11155     11158     11166     11167     11155     11158     11166     11168
     11155     11158     11166     11169     11156     11155     11158     11159
     11156     11155     11158     11160     11156     11155     11158     11166
     11157     11155     11158     11159     11157     11155     11158     11160
     11157     11155     11158     11166     11158     11160     11161     11162
     11158     11160     11161     11163     11158     11166     11169     11170
     11159     11158     11160     11161     11159     11158     11166     11167
     11159     11158     11166     11168     11159     11158     11166     11169
     11160     11158     11166     11167     11160     11158     11166     11168
     11160     11158     11166     11169     11160     11161     11163     11164
     11160     11161     11163     11165     11160     11161     11163     11175
     11161     11160     11158     11166     11161     11163     11175     11176
     11161     11163     11175     11177     11161     11163     11175     11178
     11162     11161     11163     11164     11162     11161     11163     11165
     11162     11161     11163     11175     11163     11175     11178     11179
     11163     11175     11178     11180     11163     11175     11178     11181
     11164     11163     11175     11176     11164     11163     11175     11177
     11164     11163     11175     11178     11165     11163     11175     11176
     11165     11163     11175     11177     11165     11163     11175     11178
     11166     11169     11170     11171     11166     11169     11170     11172
     11167     11166     11169     11170     11168     11166     11169     11170
     11169     11170     11172     11173     11169     11170     11172     11174
     11169     11170     11172     11222     11170     11172     11222     11223
     11170     11172     11222     11224     11170     11172     11222     11225
     11171     11170     11172     11173     11171     11170     11172     11174
     11171     11170     11172     11222     11172     11222     11225     11226
     11172     11222     11225     11227     11172     11222     11225     11228
     11173     11172     11222     11223     11173     11172     11222     11224
     11173     11172     11222     11225     11174     11172     11222     11223
     11174     11172     11222     11224     11174     11172     11222     11225
     11175     11178     11181     11182     11175     11178     11181     11183
     11175     11178     11181     11184     11176     11175     11178     11179
     11176     11175     11178     11180     11176     11175     11178     11181
     11177     11175     11178     11179     11177     11175     11178     11180
     11177     11175     11178     11181     11178     11181     11184     11185
     11178     11181     11184     11186     11178     11181     11184     11187
     11179     11178     11181     11182     11179     11178     11181     11183
     11179     11178     11181     11184     11180     11178     11181     11182
     11180     11178     11181     11183     11180     11178     11181     11184
     11181     11184     11187     11188     11181     11184     11187     11189
     11181     11184     11187     11190     11182     11181     11184     11185
     11182     11181     11184     11186     11182     11181     11184     11187
     11183     11181     11184     11185     11183     11181     11184     11186
     11183     11181     11184     11187     11184     11187     11190     11191
     11184     11187     11190     11192     11184     11187     11190     11193
     11185     11184     11187     11188     11185     11184     11187     11189
     11185     11184     11187     11190     11186     11184     11187     11188
     11186     11184     11187     11189     11186     11184     11187     11190
     11187     11190     11193     11194     11187     11190     11193     11195
     11188     11187     11190     11191     11188     11187     11190     11192
     11188     11187     11190     11193     11189     11187     11190     11191
     11189     11187     11190     11192     11189     11187     11190     11193
     11190     11193     11195     11196     11190     11193     11195     11197
     11191     11190     11193     11194     11191     11190     11193     11195
     11192     11190     11193     11194     11192     11190     11193     11195
     11193     11195     11197     11198     11193     11195     11197     11199
     11193     11195     11197     11200     11194     11193     11195     11196
     11194     11193     11195     11197     11195     11197     11200     11201
     11195     11197     11200     11202     11195     11197     11200     11203
     11196     11195     11197     11198     11196     11195     11197     11199
     11196     11195     11197     11200     11197     11200     11203     11204
     11197     11200     11203     11205     11197     11200     11203     11206
     11198     11197     11200     11201     11198     11197     11200     11202
     11198     11197     11200     11203     11199     11197     11200     11201
     11199     11197     11200     11202     11199     11197     11200     11203
     11200     11203     11206     11207     11200     11203     11206     11208
     11200     11203     11206     11209     11201     11200     11203     11204
     11201     11200     11203     11205     11201     11200     11203     11206
     11202     11200     11203     11204     11202     11200     11203     11205
     11202     11200     11203     11206     11203     11206     11209     11210
     11203     11206     11209     11211     11203     11206     11209     11212
     11204     11203     11206     11207     11204     11203     11206     11208
     11204     11203     11206     11209     11205     11203     11206     11207
     11205     11203     11206     11208     11205     11203     11206     11209
     11206     11209     11212     11213     11206     11209     11212     11214
     11206     11209     11212     11215     11207     11206     11209     11210
     11207     11206     11209     11211     11207     11206     11209     11212
     11208     11206     11209     11210     11208     11206     11209     11211
     11208     11206     11209     11212     11209     11212     11215     11216
     11209     11212     11215     11217     11209     11212     11215     11218
     11210     11209     11212     11213     11210     11209     11212     11214
     11210     11209     11212     11215     11211     11209     11212     11213
     11211     11209     11212     11214     11211     11209     11212     11215
     11212     11215     11218     11219     11212     11215     11218     11220
     11212     11215     11218     11221     11213     11212     11215     11216
     11213     11212     11215     11217     11213     11212     11215     11218
     11214     11212     11215     11216     11214     11212     11215     11217
     11214     11212     11215     11218     11216     11215     11218     11219
     11216     11215     11218     11220     11216     11215     11218     11221
     11217     11215     11218     11219     11217     11215     11218     11220
     11217     11215     11218     11221     11222     11225     11228     11229
     11222     11225     11228     11230     11222     11225     11228     11231
     11223     11222     11225     11226     11223     11222     11225     11227
     11223     11222     11225     11228     11224     11222     11225     11226
     11224     11222     11225     11227     11224     11222     11225     11228
     11225     11228     11231     11232     11225     11228     11231     11233
     11225     11228     11231     11234     11226     11225     11228     11229
     11226     11225     11228     11230     11226     11225     11228     11231
     11227     11225     11228     11229     11227     11225     11228     11230
     11227     11225     11228     11231     11228     11231     11234     11235
     11228     11231     11234     11236     11228     11231     11234     11237
     11229     11228     11231     11232     11229     11228     11231     11233
     11229     11228     11231     11234     11230     11228     11231     11232
     11230     11228     11231     11233     11230     11228     11231     11234
     11231     11234     11237     11238     11231     11234     11237     11239
     11231     11234     11237     11240     11232     11231     11234     11235
     11232     11231     11234     11236     11232     11231     11234     11237
     11233     11231     11234     11235     11233     11231     11234     11236
     11233     11231     11234     11237     11234     11237     11240     11241
     11234     11237     11240     11242     11234     11237     11240     11243
     11235     11234     11237     11238     11235     11234     11237     11239
     11235     11234     11237     11240     11236     11234     11237     11238
     11236     11234     11237     11239     11236     11234     11237     11240
     11237     11240     11243     11244     11237     11240     11243     11245
     11237     11240     11243     11246     11238     11237     11240     11241
     11238     11237     11240     11242     11238     11237     11240     11243
     11239     11237     11240     11241     11239     11237     11240     11242
     11239     11237     11240     11243     11240     11243     11246     11247
     11240     11243     11246     11248     11240     11243     11246     11249
     11241     11240     11243     11244     11241     11240     11243     11245
     11241     11240     11243     11246     11242     11240     11243     11244
     11242     11240     11243     11245     11242     11240     11243     11246
     11243     11246     11249     11250     11243     11246     11249     11251
     11243     11246     11249     11252     11244     11243     11246     11247
     11244     11243     11246     11248     11244     11243     11246     11249
     11245     11243     11246     11247     11245     11243     11246     11248
     11245     11243     11246     11249     11246     11249     11252     11253
     11246     11249     11252     11254     11246     11249     11252     11255
     11247     11246     11249     11250     11247     11246     11249     11251
     11247     11246     11249     11252     11248     11246     11249     11250
     11248     11246     11249     11251     11248     11246     11249     11252
     11249     11252     11255     11256     11249     11252     11255     11257
     11249     11252     11255     11258     11250     11249     11252     11253
     11250     11249     11252     11254     11250     11249     11252     11255
     11251     11249     11252     11253     11251     11249     11252     11254
     11251     11249     11252     11255     11252     11255     11258     11259
     11252     11255     11258     11260     11252     11255     11258     11261
     11253     11252     11255     11256     11253     11252     11255     11257
     11253     11252     11255     11258     11254     11252     11255     11256
     11254     11252     11255     11257     11254     11252     11255     11258
     11255     11258     11261     11262     11255     11258     11261     11263
     11255     11258     11261     11264     11256     11255     11258     11259
     11256     11255     11258     11260     11256     11255     11258     11261
     11257     11255     11258     11259     11257     11255     11258     11260
     11257     11255     11258     11261     11259     11258     11261     11262
     11259     11258     11261     11263     11259     11258     11261     11264
     11260     11258     11261     11262     11260     11258     11261     11263
     11260     11258     11261     11264      1185      1189      1192      1193
      1185      1189      1192      1223      1185      1231      1228      1223
      1185      1231      1228      1229      1185      1231      1228      1230
      1186      1185      1187      1188      1186      1185      1189      1190
      1186      1185      1189      1191      1186      1185      1189      1192
      1186      1185      1231      1228      1186      1185      1231      1232
      1186      1185      1231      1233      1187      1185      1189      1190
      1187      1185      1189      1191      1187      1185      1189      1192
      1187      1185      1231      1228      1187      1185      1231      1232
      1187      1185      1231      1233      1188      1187      1185      1189
      1188      1187      1185      1231      1189      1185      1231      1228
      1189      1185      1231      1232      1189      1185      1231      1233
      1189      1192      1193      1194      1189      1192      1193      1195
      1189      1192      1223      1221      1189      1192      1223      1224
      1189      1192      1223      1228      1190      1189      1185      1231
      1190      1189      1192      1193      1190      1189      1192      1223
      1191      1189      1185      1231      1191      1189      1192      1193
      1191      1189      1192      1223      1192      1189      1185      1231
      1192      1193      1195      1196      1192      1193      1195      1197
      1192      1193      1195      1198      1192      1223      1221      1198
      1192      1223      1221      1218      1192      1223      1221      1222
      1192      1223      1224      1225      1192      1223      1224      1226
      1192      1223      1224      1227      1192      1223      1228      1229
      1192      1223      1228      1230      1192      1223      1228      1231
      1193      1192      1223      1221      1193      1192      1223      1224
      1193      1192      1223      1228      1193      1195      1198      1199
      1193      1195      1198      1200      1193      1195      1198      1221
      1194      1193      1192      1223      1194      1193      1195      1196
      1194      1193      1195      1197      1194      1193      1195      1198
      1195      1193      1192      1223      1195      1198      1200      1201
      1195      1198      1200      1202      1195      1198      1200      1210
      1195      1198      1221      1218      1195      1198      1221      1222
      1195      1198      1221      1223      1196      1195      1198      1199
      1196      1195      1198      1200      1196      1195      1198      1221
      1197      1195      1198      1199      1197      1195      1198      1200
      1197      1195      1198      1221      1198      1200      1202      1203
      1198      1200      1202      1204      1198      1200      1202      1205
      1198      1200      1210      1208      1198      1200      1210      1211
      1198      1200      1210      1215      1198      1221      1218      1215
      1198      1221      1218      1219      1198      1221      1218      1220
      1198      1221      1223      1224      1198      1221      1223      1228
      1199      1198      1200      1201      1199      1198      1200      1202
      1199      1198      1200      1210      1199      1198      1221      1218
      1199      1198      1221      1222      1199      1198      1221      1223
      1200      1198      1221      1218      1200      1198      1221      1222
      1200      1198      1221      1223      1200      1202      1205      1206
      1200      1202      1205      1207      1200      1202      1205      1208
      1200      1210      1208      1205      1200      1210      1208      1209
      1200      1210      1208      1234      1200      1210      1211      1212
      1200      1210      1211      1213      1200      1210      1211      1214
      1200      1210      1215      1216      1200      1210      1215      1217
      1200      1210      1215      1218      1201      1200      1198      1221
      1201      1200      1202      1203      1201      1200      1202      1204
      1201      1200      1202      1205      1201      1200      1210      1208
      1201      1200      1210      1211      1201      1200      1210      1215
      1202      1200      1198      1221      1202      1200      1210      1208
      1202      1200      1210      1211      1202      1200      1210      1215
      1202      1205      1208      1209      1202      1205      1208      1210
      1202      1205      1208      1234      1203      1202      1200      1210
      1203      1202      1205      1206      1203      1202      1205      1207
      1203      1202      1205      1208      1204      1202      1200      1210
      1204      1202      1205      1206      1204      1202      1205      1207
      1204      1202      1205      1208      1205      1202      1200      1210
      1205      1208      1210      1211      1205      1208      1210      1215
      1205      1208      1234      1235      1205      1208      1234      1236
      1205      1208      1234      1240      1206      1205      1208      1209
      1206      1205      1208      1210      1206      1205      1208      1234
      1207      1205      1208      1209      1207      1205      1208      1210
      1207      1205      1208      1234      1208      1210      1211      1212
      1208      1210      1211      1213      1208      1210      1211      1214
      1208      1210      1215      1216      1208      1210      1215      1217
      1208      1210      1215      1218      1208      1234      1236      1237
      1208      1234      1236      1238      1208      1234      1236      1239
      1208      1234      1240      1241      1208      1234      1240      1242
      1208      1234      1240      1243      1209      1208      1210      1211
      1209      1208      1210      1215      1209      1208      1234      1235
      1209      1208      1234      1236      1209      1208      1234      1240
      1210      1200      1198      1221      1210      1208      1234      1235
      1210      1208      1234      1236      1210      1208      1234      1240
      1210      1215      1218      1219      1210      1215      1218      1220
      1210      1215      1218      1221      1211      1210      1208      1234
      1211      1210      1215      1216      1211      1210      1215      1217
      1211      1210      1215      1218      1212      1211      1210      1215
      1213      1211      1210      1215      1214      1211      1210      1215
      1215      1210      1208      1234      1215      1218      1221      1222
      1215      1218      1221      1223      1216      1215      1218      1219
      1216      1215      1218      1220      1216      1215      1218      1221
      1217      1215      1218      1219      1217      1215      1218      1220
      1217      1215      1218      1221      1218      1221      1223      1224
      1218      1221      1223      1228      1219      1218      1221      1222
      1219      1218      1221      1223      1220      1218      1221      1222
      1220      1218      1221      1223      1221      1223      1224      1225
      1221      1223      1224      1226      1221      1223      1224      1227
      1221      1223      1228      1229      1221      1223      1228      1230
      1221      1223      1228      1231      1222      1221      1223      1224
      1222      1221      1223      1228      1223      1228      1231      1232
      1223      1228      1231      1233      1224      1223      1228      1229
      1224      1223      1228      1230      1224      1223      1228      1231
      1225      1224      1223      1228      1226      1224      1223      1228
      1227      1224      1223      1228      1229      1228      1231      1232
      1229      1228      1231      1233      1230      1228      1231      1232
      1230      1228      1231      1233      1234      1240      1243      1244
      1234      1240      1243      1245      1234      1240      1243      1246
      1235      1234      1236      1237      1235      1234      1236      1238
      1235      1234      1236      1239      1235      1234      1240      1241
      1235      1234      1240      1242      1235      1234      1240      1243
      1236      1234      1240      1241      1236      1234      1240      1242
      1236      1234      1240      1243      1237      1236      1234      1240
      1238      1236      1234      1240      1239      1236      1234      1240
      1240      1243      1246      1247      1240      1243      1246      1248
      1240      1243      1246      1249      1241      1240      1243      1244
      1241      1240      1243      1245      1241      1240      1243      1246
      1242      1240      1243      1244      1242      1240      1243      1245
      1242      1240      1243      1246      1243      1246      1249      1250
      1243      1246      1249      1251      1243      1246      1249      1255
      1244      1243      1246      1247      1244      1243      1246      1248
      1244      1243      1246      1249      1245      1243      1246      1247
      1245      1243      1246      1248      1245      1243      1246      1249
      1246      1249      1251      1252      1246      1249      1251      1253
      1246      1249      1251      1254      1246      1249      1255      1256
      1246      1249      1255      1257      1246      1249      1255      1258
      1247      1246      1249      1250      1247      1246      1249      1251
      1247      1246      1249      1255      1248      1246      1249      1250
      1248      1246      1249      1251      1248      1246      1249      1255
      1250      1249      1251      1252      1250      1249      1251      1253
      1250      1249      1251      1254      1250      1249      1255      1256
      1250      1249      1255      1257      1250      1249      1255      1258
      1251      1249      1255      1256      1251      1249      1255      1257
      1251      1249      1255      1258      1252      1251      1249      1255
      1253      1251      1249      1255      1254      1251      1249      1255
      1259      1263      1266      1267      1259      1263      1266      1297
      1259      1305      1302      1297      1259      1305      1302      1303
      1259      1305      1302      1304      1260      1259      1261      1262
      1260      1259      1263      1264      1260      1259      1263      1265
      1260      1259      1263      1266      1260      1259      1305      1302
      1260      1259      1305      1306      1260      1259      1305      1307
      1261      1259      1263      1264      1261      1259      1263      1265
      1261      1259      1263      1266      1261      1259      1305      1302
      1261      1259      1305      1306      1261      1259      1305      1307
      1262      1261      1259      1263      1262      1261      1259      1305
      1263      1259      1305      1302      1263      1259      1305      1306
      1263      1259      1305      1307      1263      1266      1267      1268
      1263      1266      1267      1269      1263      1266      1297      1295
      1263      1266      1297      1298      1263      1266      1297      1302
      1264      1263      1259      1305      1264      1263      1266      1267
      1264      1263      1266      1297      1265      1263      1259      1305
      1265      1263      1266      1267      1265      1263      1266      1297
      1266      1263      1259      1305      1266      1267      1269      1270
      1266      1267      1269      1271      1266      1267      1269      1272
      1266      1297      1295      1272      1266      1297      1295      1292
      1266      1297      1295      1296      1266      1297      1298      1299
      1266      1297      1298      1300      1266      1297      1298      1301
      1266      1297      1302      1303      1266      1297      1302      1304
      1266      1297      1302      1305      1267      1266      1297      1295
      1267      1266      1297      1298      1267      1266      1297      1302
      1267      1269      1272      1273      1267      1269      1272      1274
      1267      1269      1272      1295      1268      1267      1266      1297
      1268      1267      1269      1270      1268      1267      1269      1271
      1268      1267      1269      1272      1269      1267      1266      1297
      1269      1272      1274      1275      1269      1272      1274      1276
      1269      1272      1274      1284      1269      1272      1295      1292
      1269      1272      1295      1296      1269      1272      1295      1297
      1270      1269      1272      1273      1270      1269      1272      1274
      1270      1269      1272      1295      1271      1269      1272      1273
      1271      1269      1272      1274      1271      1269      1272      1295
      1272      1274      1276      1277      1272      1274      1276      1278
      1272      1274      1276      1279      1272      1274      1284      1282
      1272      1274      1284      1285      1272      1274      1284      1289
      1272      1295      1292      1289      1272      1295      1292      1293
      1272      1295      1292      1294      1272      1295      1297      1298
      1272      1295      1297      1302      1273      1272      1274      1275
      1273      1272      1274      1276      1273      1272      1274      1284
      1273      1272      1295      1292      1273      1272      1295      1296
      1273      1272      1295      1297      1274      1272      1295      1292
      1274      1272      1295      1296      1274      1272      1295      1297
      1274      1276      1279      1280      1274      1276      1279      1281
      1274      1276      1279      1282      1274      1284      1282      1279
      1274      1284      1282      1283      1274      1284      1282      1308
      1274      1284      1285      1286      1274      1284      1285      1287
      1274      1284      1285      1288      1274      1284      1289      1290
      1274      1284      1289      1291      1274      1284      1289      1292
      1275      1274      1272      1295      1275      1274      1276      1277
      1275      1274      1276      1278      1275      1274      1276      1279
      1275      1274      1284      1282      1275      1274      1284      1285
      1275      1274      1284      1289      1276      1274      1272      1295
      1276      1274      1284      1282      1276      1274      1284      1285
      1276      1274      1284      1289      1276      1279      1282      1283
      1276      1279      1282      1284      1276      1279      1282      1308
      1277      1276      1274      1284      1277      1276      1279      1280
      1277      1276      1279      1281      1277      1276      1279      1282
      1278      1276      1274      1284      1278      1276      1279      1280
      1278      1276      1279      1281      1278      1276      1279      1282
      1279      1276      1274      1284      1279      1282      1284      1285
      1279      1282      1284      1289      1279      1282      1308      1309
      1279      1282      1308      1310      1279      1282      1308      1314
      1280      1279      1282      1283      1280      1279      1282      1284
      1280      1279      1282      1308      1281      1279      1282      1283
      1281      1279      1282      1284      1281      1279      1282      1308
      1282      1284      1285      1286      1282      1284      1285      1287
      1282      1284      1285      1288      1282      1284      1289      1290
      1282      1284      1289      1291      1282      1284      1289      1292
      1282      1308      1310      1311      1282      1308      1310      1312
      1282      1308      1310      1313      1282      1308      1314      1315
      1282      1308      1314      1316      1282      1308      1314      1317
      1283      1282      1284      1285      1283      1282      1284      1289
      1283      1282      1308      1309      1283      1282      1308      1310
      1283      1282      1308      1314      1284      1274      1272      1295
      1284      1282      1308      1309      1284      1282      1308      1310
      1284      1282      1308      1314      1284      1289      1292      1293
      1284      1289      1292      1294      1284      1289      1292      1295
      1285      1284      1282      1308      1285      1284      1289      1290
      1285      1284      1289      1291      1285      1284      1289      1292
      1286      1285      1284      1289      1287      1285      1284      1289
      1288      1285      1284      1289      1289      1284      1282      1308
      1289      1292      1295      1296      1289      1292      1295      1297
      1290      1289      1292      1293      1290      1289      1292      1294
      1290      1289      1292      1295      1291      1289      1292      1293
      1291      1289      1292      1294      1291      1289      1292      1295
      1292      1295      1297      1298      1292      1295      1297      1302
      1293      1292      1295      1296      1293      1292      1295      1297
      1294      1292      1295      1296      1294      1292      1295      1297
      1295      1297      1298      1299      1295      1297      1298      1300
      1295      1297      1298      1301      1295      1297      1302      1303
      1295      1297      1302      1304      1295      1297      1302      1305
      1296      1295      1297      1298      1296      1295      1297      1302
      1297      1302      1305      1306      1297      1302      1305      1307
      1298      1297      1302      1303      1298      1297      1302      1304
      1298      1297      1302      1305      1299      1298      1297      1302
      1300      1298      1297      1302      1301      1298      1297      1302
      1303      1302      1305      1306      1303      1302      1305      1307
      1304      1302      1305      1306      1304      1302      1305      1307
      1308      1314      1317      1318      1308      1314      1317      1319
      1308      1314      1317      1320      1309      1308      1310      1311
      1309      1308      1310      1312      1309      1308      1310      1313
      1309      1308      1314      1315      1309      1308      1314      1316
      1309      1308      1314      1317      1310      1308      1314      1315
      1310      1308      1314      1316      1310      1308      1314      1317
      1311      1310      1308      1314      1312      1310      1308      1314
      1313      1310      1308      1314      1314      1317      1320      1321
      1314      1317      1320      1322      1314      1317      1320      1323
      1315      1314      1317      1318      1315      1314      1317      1319
      1315      1314      1317      1320      1316      1314      1317      1318
      1316      1314      1317      1319      1316      1314      1317      1320
      1317      1320      1323      1324      1317      1320      1323      1325
      1317      1320      1323      1329      1318      1317      1320      1321
      1318      1317      1320      1322      1318      1317      1320      1323
      1319      1317      1320      1321      1319      1317      1320      1322
      1319      1317      1320      1323      1320      1323      1325      1326
      1320      1323      1325      1327      1320      1323      1325      1328
      1320      1323      1329      1330      1320      1323      1329      1331
      1320      1323      1329      1332      1321      1320      1323      1324
      1321      1320      1323      1325      1321      1320      1323      1329
      1322      1320      1323      1324      1322      1320      1323      1325
      1322      1320      1323      1329      1324      1323      1325      1326
      1324      1323      1325      1327      1324      1323      1325      1328
      1324      1323      1329      1330      1324      1323      1329      1331
      1324      1323      1329      1332      1325      1323      1329      1330
      1325      1323      1329      1331      1325      1323      1329      1332
      1326      1325      1323      1329      1327      1325      1323      1329
      1328      1325      1323      1329     17705     17706     17721     17722
     17705     17706     17721     17723     17705     17706     17721     17727
     17706     17705     17709     17710     17706     17705     17709     17711
     17706     17705     17709     17712     17706     17705     17713     17714
     17706     17705     17713     17715     17706     17705     17713     17716
     17706     17705     17717     17718     17706     17705     17717     17719
     17706     17705     17717     17720     17706     17721     17727     17724
     17707     17706     17705     17709     17707     17706     17705     17713
     17707     17706     17705     17717     17707     17706     17721     17722
     17707     17706     17721     17723     17707     17706     17721     17727
     17708     17706     17705     17709     17708     17706     17705     17713
     17708     17706     17705     17717     17708     17706     17721     17722
     17708     17706     17721     17723     17708     17706     17721     17727
     17709     17705     17706     17721     17709     17705     17713     17714
     17709     17705     17713     17715     17709     17705     17713     17716
     17709     17705     17717     17718     17709     17705     17717     17719
     17709     17705     17717     17720     17710     17709     17705     17713
     17710     17709     17705     17717     17711     17709     17705     17713
     17711     17709     17705     17717     17712     17709     17705     17713
     17712     17709     17705     17717     17713     17705     17706     17721
     17713     17705     17717     17718     17713     17705     17717     17719
     17713     17705     17717     17720     17714     17713     17705     17717
     17715     17713     17705     17717     17716     17713     17705     17717
     17717     17705     17706     17721     17721     17727     17724     17725
     17721     17727     17724     17726     17721     17727     17724     17728
     17722     17721     17727     17724     17723     17721     17727     17724
     17724     17728     17729     17730     17724     17728     17729     17731
     17724     17728     17729     17732     17725     17724     17728     17729
     17726     17724     17728     17729     17727     17724     17728     17729
     17728     17729     17732     17733     17728     17729     17732     17734
     17728     17729     17732     17740     17729     17732     17734     17735
     17729     17732     17740     17741     17729     17732     17740     17742
     17729     17732     17740     17743     17730     17729     17732     17733
     17730     17729     17732     17734     17730     17729     17732     17740
     17731     17729     17732     17733     17731     17729     17732     17734
     17731     17729     17732     17740     17732     17734     17735     17736
     17732     17734     17735     17737     17732     17740     17743     17744
     17733     17732     17734     17735     17733     17732     17740     17741
     17733     17732     17740     17742     17733     17732     17740     17743
     17734     17732     17740     17741     17734     17732     17740     17742
     17734     17732     17740     17743     17734     17735     17737     17738
     17734     17735     17737     17739     17734     17735     17737     17749
     17735     17734     17732     17740     17735     17737     17749     17750
     17735     17737     17749     17751     17735     17737     17749     17752
     17736     17735     17737     17738     17736     17735     17737     17739
     17736     17735     17737     17749     17737     17749     17752     17753
     17737     17749     17752     17754     17737     17749     17752     17755
     17738     17737     17749     17750     17738     17737     17749     17751
     17738     17737     17749     17752     17739     17737     17749     17750
     17739     17737     17749     17751     17739     17737     17749     17752
     17740     17743     17744     17745     17740     17743     17744     17746
     17741     17740     17743     17744     17742     17740     17743     17744
     17743     17744     17746     17747     17743     17744     17746     17748
     17743     17744     17746     17796     17744     17746     17796     17797
     17744     17746     17796     17798     17744     17746     17796     17799
     17745     17744     17746     17747     17745     17744     17746     17748
     17745     17744     17746     17796     17746     17796     17799     17800
     17746     17796     17799     17801     17746     17796     17799     17802
     17747     17746     17796     17797     17747     17746     17796     17798
     17747     17746     17796     17799     17748     17746     17796     17797
     17748     17746     17796     17798     17748     17746     17796     17799
     17749     17752     17755     17756     17749     17752     17755     17757
     17749     17752     17755     17758     17750     17749     17752     17753
     17750     17749     17752     17754     17750     17749     17752     17755
     17751     17749     17752     17753     17751     17749     17752     17754
     17751     17749     17752     17755     17752     17755     17758     17759
     17752     17755     17758     17760     17752     17755     17758     17761
     17753     17752     17755     17756     17753     17752     17755     17757
     17753     17752     17755     17758     17754     17752     17755     17756
     17754     17752     17755     17757     17754     17752     17755     17758
     17755     17758     17761     17762     17755     17758     17761     17763
     17755     17758     17761     17764     17756     17755     17758     17759
     17756     17755     17758     17760     17756     17755     17758     17761
     17757     17755     17758     17759     17757     17755     17758     17760
     17757     17755     17758     17761     17758     17761     17764     17765
     17758     17761     17764     17766     17758     17761     17764     17767
     17759     17758     17761     17762     17759     17758     17761     17763
     17759     17758     17761     17764     17760     17758     17761     17762
     17760     17758     17761     17763     17760     17758     17761     17764
     17761     17764     17767     17768     17761     17764     17767     17769
     17762     17761     17764     17765     17762     17761     17764     17766
     17762     17761     17764     17767     17763     17761     17764     17765
     17763     17761     17764     17766     17763     17761     17764     17767
     17764     17767     17769     17770     17764     17767     17769     17771
     17765     17764     17767     17768     17765     17764     17767     17769
     17766     17764     17767     17768     17766     17764     17767     17769
     17767     17769     17771     17772     17767     17769     17771     17773
     17767     17769     17771     17774     17768     17767     17769     17770
     17768     17767     17769     17771     17769     17771     17774     17775
     17769     17771     17774     17776     17769     17771     17774     17777
     17770     17769     17771     17772     17770     17769     17771     17773
     17770     17769     17771     17774     17771     17774     17777     17778
     17771     17774     17777     17779     17771     17774     17777     17780
     17772     17771     17774     17775     17772     17771     17774     17776
     17772     17771     17774     17777     17773     17771     17774     17775
     17773     17771     17774     17776     17773     17771     17774     17777
     17774     17777     17780     17781     17774     17777     17780     17782
     17774     17777     17780     17783     17775     17774     17777     17778
     17775     17774     17777     17779     17775     17774     17777     17780
     17776     17774     17777     17778     17776     17774     17777     17779
     17776     17774     17777     17780     17777     17780     17783     17784
     17777     17780     17783     17785     17777     17780     17783     17786
     17778     17777     17780     17781     17778     17777     17780     17782
     17778     17777     17780     17783     17779     17777     17780     17781
     17779     17777     17780     17782     17779     17777     17780     17783
     17780     17783     17786     17787     17780     17783     17786     17788
     17780     17783     17786     17789     17781     17780     17783     17784
     17781     17780     17783     17785     17781     17780     17783     17786
     17782     17780     17783     17784     17782     17780     17783     17785
     17782     17780     17783     17786     17783     17786     17789     17790
     17783     17786     17789     17791     17783     17786     17789     17792
     17784     17783     17786     17787     17784     17783     17786     17788
     17784     17783     17786     17789     17785     17783     17786     17787
     17785     17783     17786     17788     17785     17783     17786     17789
     17786     17789     17792     17793     17786     17789     17792     17794
     17786     17789     17792     17795     17787     17786     17789     17790
     17787     17786     17789     17791     17787     17786     17789     17792
     17788     17786     17789     17790     17788     17786     17789     17791
     17788     17786     17789     17792     17790     17789     17792     17793
     17790     17789     17792     17794     17790     17789     17792     17795
     17791     17789     17792     17793     17791     17789     17792     17794
     17791     17789     17792     17795     17796     17799     17802     17803
     17796     17799     17802     17804     17796     17799     17802     17805
     17797     17796     17799     17800     17797     17796     17799     17801
     17797     17796     17799     17802     17798     17796     17799     17800
     17798     17796     17799     17801     17798     17796     17799     17802
     17799     17802     17805     17806     17799     17802     17805     17807
     17799     17802     17805     17808     17800     17799     17802     17803
     17800     17799     17802     17804     17800     17799     17802     17805
     17801     17799     17802     17803     17801     17799     17802     17804
     17801     17799     17802     17805     17802     17805     17808     17809
     17802     17805     17808     17810     17802     17805     17808     17811
     17803     17802     17805     17806     17803     17802     17805     17807
     17803     17802     17805     17808     17804     17802     17805     17806
     17804     17802     17805     17807     17804     17802     17805     17808
     17805     17808     17811     17812     17805     17808     17811     17813
     17805     17808     17811     17814     17806     17805     17808     17809
     17806     17805     17808     17810     17806     17805     17808     17811
     17807     17805     17808     17809     17807     17805     17808     17810
     17807     17805     17808     17811     17808     17811     17814     17815
     17808     17811     17814     17816     17808     17811     17814     17817
     17809     17808     17811     17812     17809     17808     17811     17813
     17809     17808     17811     17814     17810     17808     17811     17812
     17810     17808     17811     17813     17810     17808     17811     17814
     17811     17814     17817     17818     17811     17814     17817     17819
     17811     17814     17817     17820     17812     17811     17814     17815
     17812     17811     17814     17816     17812     17811     17814     17817
     17813     17811     17814     17815     17813     17811     17814     17816
     17813     17811     17814     17817     17814     17817     17820     17821
     17814     17817     17820     17822     17814     17817     17820     17823
     17815     17814     17817     17818     17815     17814     17817     17819
     17815     17814     17817     17820     17816     17814     17817     17818
     17816     17814     17817     17819     17816     17814     17817     17820
     17817     17820     17823     17824     17817     17820     17823     17825
     17817     17820     17823     17826     17818     17817     17820     17821
     17818     17817     17820     17822     17818     17817     17820     17823
     17819     17817     17820     17821     17819     17817     17820     17822
     17819     17817     17820     17823     17820     17823     17826     17827
     17820     17823     17826     17828     17820     17823     17826     17829
     17821     17820     17823     17824     17821     17820     17823     17825
     17821     17820     17823     17826     17822     17820     17823     17824
     17822     17820     17823     17825     17822     17820     17823     17826
     17823     17826     17829     17830     17823     17826     17829     17831
     17823     17826     17829     17832     17824     17823     17826     17827
     17824     17823     17826     17828     17824     17823     17826     17829
     17825     17823     17826     17827     17825     17823     17826     17828
     17825     17823     17826     17829     17826     17829     17832     17833
     17826     17829     17832     17834     17826     17829     17832     17835
     17827     17826     17829     17830     17827     17826     17829     17831
     17827     17826     17829     17832     17828     17826     17829     17830
     17828     17826     17829     17831     17828     17826     17829     17832
     17829     17832     17835     17836     17829     17832     17835     17837
     17829     17832     17835     17838     17830     17829     17832     17833
     17830     17829     17832     17834     17830     17829     17832     17835
     17831     17829     17832     17833     17831     17829     17832     17834
     17831     17829     17832     17835     17833     17832     17835     17836
     17833     17832     17835     17837     17833     17832     17835     17838
     17834     17832     17835     17836     17834     17832     17835     17837
     17834     17832     17835     17838     17839     17840     17855     17856
     17839     17840     17855     17857     17839     17840     17855     17861
     17840     17839     17843     17844     17840     17839     17843     17845
     17840     17839     17843     17846     17840     17839     17847     17848
     17840     17839     17847     17849     17840     17839     17847     17850
     17840     17839     17851     17852     17840     17839     17851     17853
     17840     17839     17851     17854     17840     17855     17861     17858
     17841     17840     17839     17843     17841     17840     17839     17847
     17841     17840     17839     17851     17841     17840     17855     17856
     17841     17840     17855     17857     17841     17840     17855     17861
     17842     17840     17839     17843     17842     17840     17839     17847
     17842     17840     17839     17851     17842     17840     17855     17856
     17842     17840     17855     17857     17842     17840     17855     17861
     17843     17839     17840     17855     17843     17839     17847     17848
     17843     17839     17847     17849     17843     17839     17847     17850
     17843     17839     17851     17852     17843     17839     17851     17853
     17843     17839     17851     17854     17844     17843     17839     17847
     17844     17843     17839     17851     17845     17843     17839     17847
     17845     17843     17839     17851     17846     17843     17839     17847
     17846     17843     17839     17851     17847     17839     17840     17855
     17847     17839     17851     17852     17847     17839     17851     17853
     17847     17839     17851     17854     17848     17847     17839     17851
     17849     17847     17839     17851     17850     17847     17839     17851
     17851     17839     17840     17855     17855     17861     17858     17859
     17855     17861     17858     17860     17855     17861     17858     17862
     17856     17855     17861     17858     17857     17855     17861     17858
     17858     17862     17863     17864     17858     17862     17863     17865
     17858     17862     17863     17866     17859     17858     17862     17863
     17860     17858     17862     17863     17861     17858     17862     17863
     17862     17863     17866     17867     17862     17863     17866     17868
     17862     17863     17866     17874     17863     17866     17868     17869
     17863     17866     17874     17875     17863     17866     17874     17876
     17863     17866     17874     17877     17864     17863     17866     17867
     17864     17863     17866     17868     17864     17863     17866     17874
     17865     17863     17866     17867     17865     17863     17866     17868
     17865     17863     17866     17874     17866     17868     17869     17870
     17866     17868     17869     17871     17866     17874     17877     17878
     17867     17866     17868     17869     17867     17866     17874     17875
     17867     17866     17874     17876     17867     17866     17874     17877
     17868     17866     17874     17875     17868     17866     17874     17876
     17868     17866     17874     17877     17868     17869     17871     17872
     17868     17869     17871     17873     17868     17869     17871     17883
     17869     17868     17866     17874     17869     17871     17883     17884
     17869     17871     17883     17885     17869     17871     17883     17886
     17870     17869     17871     17872     17870     17869     17871     17873
     17870     17869     17871     17883     17871     17883     17886     17887
     17871     17883     17886     17888     17871     17883     17886     17889
     17872     17871     17883     17884     17872     17871     17883     17885
     17872     17871     17883     17886     17873     17871     17883     17884
     17873     17871     17883     17885     17873     17871     17883     17886
     17874     17877     17878     17879     17874     17877     17878     17880
     17875     17874     17877     17878     17876     17874     17877     17878
     17877     17878     17880     17881     17877     17878     17880     17882
     17877     17878     17880     17930     17878     17880     17930     17931
     17878     17880     17930     17932     17878     17880     17930     17933
     17879     17878     17880     17881     17879     17878     17880     17882
     17879     17878     17880     17930     17880     17930     17933     17934
     17880     17930     17933     17935     17880     17930     17933     17936
     17881     17880     17930     17931     17881     17880     17930     17932
     17881     17880     17930     17933     17882     17880     17930     17931
     17882     17880     17930     17932     17882     17880     17930     17933
     17883     17886     17889     17890     17883     17886     17889     17891
     17883     17886     17889     17892     17884     17883     17886     17887
     17884     17883     17886     17888     17884     17883     17886     17889
     17885     17883     17886     17887     17885     17883     17886     17888
     17885     17883     17886     17889     17886     17889     17892     17893
     17886     17889     17892     17894     17886     17889     17892     17895
     17887     17886     17889     17890     17887     17886     17889     17891
     17887     17886     17889     17892     17888     17886     17889     17890
     17888     17886     17889     17891     17888     17886     17889     17892
     17889     17892     17895     17896     17889     17892     17895     17897
     17889     17892     17895     17898     17890     17889     17892     17893
     17890     17889     17892     17894     17890     17889     17892     17895
     17891     17889     17892     17893     17891     17889     17892     17894
     17891     17889     17892     17895     17892     17895     17898     17899
     17892     17895     17898     17900     17892     17895     17898     17901
     17893     17892     17895     17896     17893     17892     17895     17897
     17893     17892     17895     17898     17894     17892     17895     17896
     17894     17892     17895     17897     17894     17892     17895     17898
     17895     17898     17901     17902     17895     17898     17901     17903
     17896     17895     17898     17899     17896     17895     17898     17900
     17896     17895     17898     17901     17897     17895     17898     17899
     17897     17895     17898     17900     17897     17895     17898     17901
     17898     17901     17903     17904     17898     17901     17903     17905
     17899     17898     17901     17902     17899     17898     17901     17903
     17900     17898     17901     17902     17900     17898     17901     17903
     17901     17903     17905     17906     17901     17903     17905     17907
     17901     17903     17905     17908     17902     17901     17903     17904
     17902     17901     17903     17905     17903     17905     17908     17909
     17903     17905     17908     17910     17903     17905     17908     17911
     17904     17903     17905     17906     17904     17903     17905     17907
     17904     17903     17905     17908     17905     17908     17911     17912
     17905     17908     17911     17913     17905     17908     17911     17914
     17906     17905     17908     17909     17906     17905     17908     17910
     17906     17905     17908     17911     17907     17905     17908     17909
     17907     17905     17908     17910     17907     17905     17908     17911
     17908     17911     17914     17915     17908     17911     17914     17916
     17908     17911     17914     17917     17909     17908     17911     17912
     17909     17908     17911     17913     17909     17908     17911     17914
     17910     17908     17911     17912     17910     17908     17911     17913
     17910     17908     17911     17914     17911     17914     17917     17918
     17911     17914     17917     17919     17911     17914     17917     17920
     17912     17911     17914     17915     17912     17911     17914     17916
     17912     17911     17914     17917     17913     17911     17914     17915
     17913     17911     17914     17916     17913     17911     17914     17917
     17914     17917     17920     17921     17914     17917     17920     17922
     17914     17917     17920     17923     17915     17914     17917     17918
     17915     17914     17917     17919     17915     17914     17917     17920
     17916     17914     17917     17918     17916     17914     17917     17919
     17916     17914     17917     17920     17917     17920     17923     17924
     17917     17920     17923     17925     17917     17920     17923     17926
     17918     17917     17920     17921     17918     17917     17920     17922
     17918     17917     17920     17923     17919     17917     17920     17921
     17919     17917     17920     17922     17919     17917     17920     17923
     17920     17923     17926     17927     17920     17923     17926     17928
     17920     17923     17926     17929     17921     17920     17923     17924
     17921     17920     17923     17925     17921     17920     17923     17926
     17922     17920     17923     17924     17922     17920     17923     17925
     17922     17920     17923     17926     17924     17923     17926     17927
     17924     17923     17926     17928     17924     17923     17926     17929
     17925     17923     17926     17927     17925     17923     17926     17928
     17925     17923     17926     17929     17930     17933     17936     17937
     17930     17933     17936     17938     17930     17933     17936     17939
     17931     17930     17933     17934     17931     17930     17933     17935
     17931     17930     17933     17936     17932     17930     17933     17934
     17932     17930     17933     17935     17932     17930     17933     17936
     17933     17936     17939     17940     17933     17936     17939     17941
     17933     17936     17939     17942     17934     17933     17936     17937
     17934     17933     17936     17938     17934     17933     17936     17939
     17935     17933     17936     17937     17935     17933     17936     17938
     17935     17933     17936     17939     17936     17939     17942     17943
     17936     17939     17942     17944     17936     17939     17942     17945
     17937     17936     17939     17940     17937     17936     17939     17941
     17937     17936     17939     17942     17938     17936     17939     17940
     17938     17936     17939     17941     17938     17936     17939     17942
     17939     17942     17945     17946     17939     17942     17945     17947
     17939     17942     17945     17948     17940     17939     17942     17943
     17940     17939     17942     17944     17940     17939     17942     17945
     17941     17939     17942     17943     17941     17939     17942     17944
     17941     17939     17942     17945     17942     17945     17948     17949
     17942     17945     17948     17950     17942     17945     17948     17951
     17943     17942     17945     17946     17943     17942     17945     17947
     17943     17942     17945     17948     17944     17942     17945     17946
     17944     17942     17945     17947     17944     17942     17945     17948
     17945     17948     17951     17952     17945     17948     17951     17953
     17945     17948     17951     17954     17946     17945     17948     17949
     17946     17945     17948     17950     17946     17945     17948     17951
     17947     17945     17948     17949     17947     17945     17948     17950
     17947     17945     17948     17951     17948     17951     17954     17955
     17948     17951     17954     17956     17948     17951     17954     17957
     17949     17948     17951     17952     17949     17948     17951     17953
     17949     17948     17951     17954     17950     17948     17951     17952
     17950     17948     17951     17953     17950     17948     17951     17954
     17951     17954     17957     17958     17951     17954     17957     17959
     17951     17954     17957     17960     17952     17951     17954     17955
     17952     17951     17954     17956     17952     17951     17954     17957
     17953     17951     17954     17955     17953     17951     17954     17956
     17953     17951     17954     17957     17954     17957     17960     17961
     17954     17957     17960     17962     17954     17957     17960     17963
     17955     17954     17957     17958     17955     17954     17957     17959
     17955     17954     17957     17960     17956     17954     17957     17958
     17956     17954     17957     17959     17956     17954     17957     17960
     17957     17960     17963     17964     17957     17960     17963     17965
     17957     17960     17963     17966     17958     17957     17960     17961
     17958     17957     17960     17962     17958     17957     17960     17963
     17959     17957     17960     17961     17959     17957     17960     17962
     17959     17957     17960     17963     17960     17963     17966     17967
     17960     17963     17966     17968     17960     17963     17966     17969
     17961     17960     17963     17964     17961     17960     17963     17965
     17961     17960     17963     17966     17962     17960     17963     17964
     17962     17960     17963     17965     17962     17960     17963     17966
     17963     17966     17969     17970     17963     17966     17969     17971
     17963     17966     17969     17972     17964     17963     17966     17967
     17964     17963     17966     17968     17964     17963     17966     17969
     17965     17963     17966     17967     17965     17963     17966     17968
     17965     17963     17966     17969     17967     17966     17969     17970
     17967     17966     17969     17971     17967     17966     17969     17972
     17968     17966     17969     17970     17968     17966     17969     17971
     17968     17966     17969     17972     17973     17974     17989     17990
     17973     17974     17989     17991     17973     17974     17989     17995
     17974     17973     17977     17978     17974     17973     17977     17979
     17974     17973     17977     17980     17974     17973     17981     17982
     17974     17973     17981     17983     17974     17973     17981     17984
     17974     17973     17985     17986     17974     17973     17985     17987
     17974     17973     17985     17988     17974     17989     17995     17992
     17975     17974     17973     17977     17975     17974     17973     17981
     17975     17974     17973     17985     17975     17974     17989     17990
     17975     17974     17989     17991     17975     17974     17989     17995
     17976     17974     17973     17977     17976     17974     17973     17981
     17976     17974     17973     17985     17976     17974     17989     17990
     17976     17974     17989     17991     17976     17974     17989     17995
     17977     17973     17974     17989     17977     17973     17981     17982
     17977     17973     17981     17983     17977     17973     17981     17984
     17977     17973     17985     17986     17977     17973     17985     17987
     17977     17973     17985     17988     17978     17977     17973     17981
     17978     17977     17973     17985     17979     17977     17973     17981
     17979     17977     17973     17985     17980     17977     17973     17981
     17980     17977     17973     17985     17981     17973     17974     17989
     17981     17973     17985     17986     17981     17973     17985     17987
     17981     17973     17985     17988     17982     17981     17973     17985
     17983     17981     17973     17985     17984     17981     17973     17985
     17985     17973     17974     17989     17989     17995     17992     17993
     17989     17995     17992     17994     17989     17995     17992     17996
     17990     17989     17995     17992     17991     17989     17995     17992
     17992     17996     17997     17998     17992     17996     17997     17999
     17992     17996     17997     18000     17993     17992     17996     17997
     17994     17992     17996     17997     17995     17992     17996     17997
     17996     17997     18000     18001     17996     17997     18000     18002
     17996     17997     18000     18008     17997     18000     18002     18003
     17997     18000     18008     18009     17997     18000     18008     18010
     17997     18000     18008     18011     17998     17997     18000     18001
     17998     17997     18000     18002     17998     17997     18000     18008
     17999     17997     18000     18001     17999     17997     18000     18002
     17999     17997     18000     18008     18000     18002     18003     18004
     18000     18002     18003     18005     18000     18008     18011     18012
     18001     18000     18002     18003     18001     18000     18008     18009
     18001     18000     18008     18010     18001     18000     18008     18011
     18002     18000     18008     18009     18002     18000     18008     18010
     18002     18000     18008     18011     18002     18003     18005     18006
     18002     18003     18005     18007     18002     18003     18005     18017
     18003     18002     18000     18008     18003     18005     18017     18018
     18003     18005     18017     18019     18003     18005     18017     18020
     18004     18003     18005     18006     18004     18003     18005     18007
     18004     18003     18005     18017     18005     18017     18020     18021
     18005     18017     18020     18022     18005     18017     18020     18023
     18006     18005     18017     18018     18006     18005     18017     18019
     18006     18005     18017     18020     18007     18005     18017     18018
     18007     18005     18017     18019     18007     18005     18017     18020
     18008     18011     18012     18013     18008     18011     18012     18014
     18009     18008     18011     18012     18010     18008     18011     18012
     18011     18012     18014     18015     18011     18012     18014     18016
     18011     18012     18014     18064     18012     18014     18064     18065
     18012     18014     18064     18066     18012     18014     18064     18067
     18013     18012     18014     18015     18013     18012     18014     18016
     18013     18012     18014     18064     18014     18064     18067     18068
     18014     18064     18067     18069     18014     18064     18067     18070
     18015     18014     18064     18065     18015     18014     18064     18066
     18015     18014     18064     18067     18016     18014     18064     18065
     18016     18014     18064     18066     18016     18014     18064     18067
     18017     18020     18023     18024     18017     18020     18023     18025
     18017     18020     18023     18026     18018     18017     18020     18021
     18018     18017     18020     18022     18018     18017     18020     18023
     18019     18017     18020     18021     18019     18017     18020     18022
     18019     18017     18020     18023     18020     18023     18026     18027
     18020     18023     18026     18028     18020     18023     18026     18029
     18021     18020     18023     18024     18021     18020     18023     18025
     18021     18020     18023     18026     18022     18020     18023     18024
     18022     18020     18023     18025     18022     18020     18023     18026
     18023     18026     18029     18030     18023     18026     18029     18031
     18023     18026     18029     18032     18024     18023     18026     18027
     18024     18023     18026     18028     18024     18023     18026     18029
     18025     18023     18026     18027     18025     18023     18026     18028
     18025     18023     18026     18029     18026     18029     18032     18033
     18026     18029     18032     18034     18026     18029     18032     18035
     18027     18026     18029     18030     18027     18026     18029     18031
     18027     18026     18029     18032     18028     18026     18029     18030
     18028     18026     18029     18031     18028     18026     18029     18032
     18029     18032     18035     18036     18029     18032     18035     18037
     18030     18029     18032     18033     18030     18029     18032     18034
     18030     18029     18032     18035     18031     18029     18032     18033
     18031     18029     18032     18034     18031     18029     18032     18035
     18032     18035     18037     18038     18032     18035     18037     18039
     18033     18032     18035     18036     18033     18032     18035     18037
     18034     18032     18035     18036     18034     18032     18035     18037
     18035     18037     18039     18040     18035     18037     18039     18041
     18035     18037     18039     18042     18036     18035     18037     18038
     18036     18035     18037     18039     18037     18039     18042     18043
     18037     18039     18042     18044     18037     18039     18042     18045
     18038     18037     18039     18040     18038     18037     18039     18041
     18038     18037     18039     18042     18039     18042     18045     18046
     18039     18042     18045     18047     18039     18042     18045     18048
     18040     18039     18042     18043     18040     18039     18042     18044
     18040     18039     18042     18045     18041     18039     18042     18043
     18041     18039     18042     18044     18041     18039     18042     18045
     18042     18045     18048     18049     18042     18045     18048     18050
     18042     18045     18048     18051     18043     18042     18045     18046
     18043     18042     18045     18047     18043     18042     18045     18048
     18044     18042     18045     18046     18044     18042     18045     18047
     18044     18042     18045     18048     18045     18048     18051     18052
     18045     18048     18051     18053     18045     18048     18051     18054
     18046     18045     18048     18049     18046     18045     18048     18050
     18046     18045     18048     18051     18047     18045     18048     18049
     18047     18045     18048     18050     18047     18045     18048     18051
     18048     18051     18054     18055     18048     18051     18054     18056
     18048     18051     18054     18057     18049     18048     18051     18052
     18049     18048     18051     18053     18049     18048     18051     18054
     18050     18048     18051     18052     18050     18048     18051     18053
     18050     18048     18051     18054     18051     18054     18057     18058
     18051     18054     18057     18059     18051     18054     18057     18060
     18052     18051     18054     18055     18052     18051     18054     18056
     18052     18051     18054     18057     18053     18051     18054     18055
     18053     18051     18054     18056     18053     18051     18054     18057
     18054     18057     18060     18061     18054     18057     18060     18062
     18054     18057     18060     18063     18055     18054     18057     18058
     18055     18054     18057     18059     18055     18054     18057     18060
     18056     18054     18057     18058     18056     18054     18057     18059
     18056     18054     18057     18060     18058     18057     18060     18061
     18058     18057     18060     18062     18058     18057     18060     18063
     18059     18057     18060     18061     18059     18057     18060     18062
     18059     18057     18060     18063     18064     18067     18070     18071
     18064     18067     18070     18072     18064     18067     18070     18073
     18065     18064     18067     18068     18065     18064     18067     18069
     18065     18064     18067     18070     18066     18064     18067     18068
     18066     18064     18067     18069     18066     18064     18067     18070
     18067     18070     18073     18074     18067     18070     18073     18075
     18067     18070     18073     18076     18068     18067     18070     18071
     18068     18067     18070     18072     18068     18067     18070     18073
     18069     18067     18070     18071     18069     18067     18070     18072
     18069     18067     18070     18073     18070     18073     18076     18077
     18070     18073     18076     18078     18070     18073     18076     18079
     18071     18070     18073     18074     18071     18070     18073     18075
     18071     18070     18073     18076     18072     18070     18073     18074
     18072     18070     18073     18075     18072     18070     18073     18076
     18073     18076     18079     18080     18073     18076     18079     18081
     18073     18076     18079     18082     18074     18073     18076     18077
     18074     18073     18076     18078     18074     18073     18076     18079
     18075     18073     18076     18077     18075     18073     18076     18078
     18075     18073     18076     18079     18076     18079     18082     18083
     18076     18079     18082     18084     18076     18079     18082     18085
     18077     18076     18079     18080     18077     18076     18079     18081
     18077     18076     18079     18082     18078     18076     18079     18080
     18078     18076     18079     18081     18078     18076     18079     18082
     18079     18082     18085     18086     18079     18082     18085     18087
     18079     18082     18085     18088     18080     18079     18082     18083
     18080     18079     18082     18084     18080     18079     18082     18085
     18081     18079     18082     18083     18081     18079     18082     18084
     18081     18079     18082     18085     18082     18085     18088     18089
     18082     18085     18088     18090     18082     18085     18088     18091
     18083     18082     18085     18086     18083     18082     18085     18087
     18083     18082     18085     18088     18084     18082     18085     18086
     18084     18082     18085     18087     18084     18082     18085     18088
     18085     18088     18091     18092     18085     18088     18091     18093
     18085     18088     18091     18094     18086     18085     18088     18089
     18086     18085     18088     18090     18086     18085     18088     18091
     18087     18085     18088     18089     18087     18085     18088     18090
     18087     18085     18088     18091     18088     18091     18094     18095
     18088     18091     18094     18096     18088     18091     18094     18097
     18089     18088     18091     18092     18089     18088     18091     18093
     18089     18088     18091     18094     18090     18088     18091     18092
     18090     18088     18091     18093     18090     18088     18091     18094
     18091     18094     18097     18098     18091     18094     18097     18099
     18091     18094     18097     18100     18092     18091     18094     18095
     18092     18091     18094     18096     18092     18091     18094     18097
     18093     18091     18094     18095     18093     18091     18094     18096
     18093     18091     18094     18097     18094     18097     18100     18101
     18094     18097     18100     18102     18094     18097     18100     18103
     18095     18094     18097     18098     18095     18094     18097     18099
     18095     18094     18097     18100     18096     18094     18097     18098
     18096     18094     18097     18099     18096     18094     18097     18100
     18097     18100     18103     18104     18097     18100     18103     18105
     18097     18100     18103     18106     18098     18097     18100     18101
     18098     18097     18100     18102     18098     18097     18100     18103
     18099     18097     18100     18101     18099     18097     18100     18102
     18099     18097     18100     18103     18101     18100     18103     18104
     18101     18100     18103     18105     18101     18100     18103     18106
     18102     18100     18103     18104     18102     18100     18103     18105
     18102     18100     18103     18106     18107     18108     18123     18124
     18107     18108     18123     18125     18107     18108     18123     18129
     18108     18107     18111     18112     18108     18107     18111     18113
     18108     18107     18111     18114     18108     18107     18115     18116
     18108     18107     18115     18117     18108     18107     18115     18118
     18108     18107     18119     18120     18108     18107     18119     18121
     18108     18107     18119     18122     18108     18123     18129     18126
     18109     18108     18107     18111     18109     18108     18107     18115
     18109     18108     18107     18119     18109     18108     18123     18124
     18109     18108     18123     18125     18109     18108     18123     18129
     18110     18108     18107     18111     18110     18108     18107     18115
     18110     18108     18107     18119     18110     18108     18123     18124
     18110     18108     18123     18125     18110     18108     18123     18129
     18111     18107     18108     18123     18111     18107     18115     18116
     18111     18107     18115     18117     18111     18107     18115     18118
     18111     18107     18119     18120     18111     18107     18119     18121
     18111     18107     18119     18122     18112     18111     18107     18115
     18112     18111     18107     18119     18113     18111     18107     18115
     18113     18111     18107     18119     18114     18111     18107     18115
     18114     18111     18107     18119     18115     18107     18108     18123
     18115     18107     18119     18120     18115     18107     18119     18121
     18115     18107     18119     18122     18116     18115     18107     18119
     18117     18115     18107     18119     18118     18115     18107     18119
     18119     18107     18108     18123     18123     18129     18126     18127
     18123     18129     18126     18128     18123     18129     18126     18130
     18124     18123     18129     18126     18125     18123     18129     18126
     18126     18130     18131     18132     18126     18130     18131     18133
     18126     18130     18131     18134     18127     18126     18130     18131
     18128     18126     18130     18131     18129     18126     18130     18131
     18130     18131     18134     18135     18130     18131     18134     18136
     18130     18131     18134     18142     18131     18134     18136     18137
     18131     18134     18142     18143     18131     18134     18142     18144
     18131     18134     18142     18145     18132     18131     18134     18135
     18132     18131     18134     18136     18132     18131     18134     18142
     18133     18131     18134     18135     18133     18131     18134     18136
     18133     18131     18134     18142     18134     18136     18137     18138
     18134     18136     18137     18139     18134     18142     18145     18146
     18135     18134     18136     18137     18135     18134     18142     18143
     18135     18134     18142     18144     18135     18134     18142     18145
     18136     18134     18142     18143     18136     18134     18142     18144
     18136     18134     18142     18145     18136     18137     18139     18140
     18136     18137     18139     18141     18136     18137     18139     18151
     18137     18136     18134     18142     18137     18139     18151     18152
     18137     18139     18151     18153     18137     18139     18151     18154
     18138     18137     18139     18140     18138     18137     18139     18141
     18138     18137     18139     18151     18139     18151     18154     18155
     18139     18151     18154     18156     18139     18151     18154     18157
     18140     18139     18151     18152     18140     18139     18151     18153
     18140     18139     18151     18154     18141     18139     18151     18152
     18141     18139     18151     18153     18141     18139     18151     18154
     18142     18145     18146     18147     18142     18145     18146     18148
     18143     18142     18145     18146     18144     18142     18145     18146
     18145     18146     18148     18149     18145     18146     18148     18150
     18145     18146     18148     18198     18146     18148     18198     18199
     18146     18148     18198     18200     18146     18148     18198     18201
     18147     18146     18148     18149     18147     18146     18148     18150
     18147     18146     18148     18198     18148     18198     18201     18202
     18148     18198     18201     18203     18148     18198     18201     18204
     18149     18148     18198     18199     18149     18148     18198     18200
     18149     18148     18198     18201     18150     18148     18198     18199
     18150     18148     18198     18200     18150     18148     18198     18201
     18151     18154     18157     18158     18151     18154     18157     18159
     18151     18154     18157     18160     18152     18151     18154     18155
     18152     18151     18154     18156     18152     18151     18154     18157
     18153     18151     18154     18155     18153     18151     18154     18156
     18153     18151     18154     18157     18154     18157     18160     18161
     18154     18157     18160     18162     18154     18157     18160     18163
     18155     18154     18157     18158     18155     18154     18157     18159
     18155     18154     18157     18160     18156     18154     18157     18158
     18156     18154     18157     18159     18156     18154     18157     18160
     18157     18160     18163     18164     18157     18160     18163     18165
     18157     18160     18163     18166     18158     18157     18160     18161
     18158     18157     18160     18162     18158     18157     18160     18163
     18159     18157     18160     18161     18159     18157     18160     18162
     18159     18157     18160     18163     18160     18163     18166     18167
     18160     18163     18166     18168     18160     18163     18166     18169
     18161     18160     18163     18164     18161     18160     18163     18165
     18161     18160     18163     18166     18162     18160     18163     18164
     18162     18160     18163     18165     18162     18160     18163     18166
     18163     18166     18169     18170     18163     18166     18169     18171
     18164     18163     18166     18167     18164     18163     18166     18168
     18164     18163     18166     18169     18165     18163     18166     18167
     18165     18163     18166     18168     18165     18163     18166     18169
     18166     18169     18171     18172     18166     18169     18171     18173
     18167     18166     18169     18170     18167     18166     18169     18171
     18168     18166     18169     18170     18168     18166     18169     18171
     18169     18171     18173     18174     18169     18171     18173     18175
     18169     18171     18173     18176     18170     18169     18171     18172
     18170     18169     18171     18173     18171     18173     18176     18177
     18171     18173     18176     18178     18171     18173     18176     18179
     18172     18171     18173     18174     18172     18171     18173     18175
     18172     18171     18173     18176     18173     18176     18179     18180
     18173     18176     18179     18181     18173     18176     18179     18182
     18174     18173     18176     18177     18174     18173     18176     18178
     18174     18173     18176     18179     18175     18173     18176     18177
     18175     18173     18176     18178     18175     18173     18176     18179
     18176     18179     18182     18183     18176     18179     18182     18184
     18176     18179     18182     18185     18177     18176     18179     18180
     18177     18176     18179     18181     18177     18176     18179     18182
     18178     18176     18179     18180     18178     18176     18179     18181
     18178     18176     18179     18182     18179     18182     18185     18186
     18179     18182     18185     18187     18179     18182     18185     18188
     18180     18179     18182     18183     18180     18179     18182     18184
     18180     18179     18182     18185     18181     18179     18182     18183
     18181     18179     18182     18184     18181     18179     18182     18185
     18182     18185     18188     18189     18182     18185     18188     18190
     18182     18185     18188     18191     18183     18182     18185     18186
     18183     18182     18185     18187     18183     18182     18185     18188
     18184     18182     18185     18186     18184     18182     18185     18187
     18184     18182     18185     18188     18185     18188     18191     18192
     18185     18188     18191     18193     18185     18188     18191     18194
     18186     18185     18188     18189     18186     18185     18188     18190
     18186     18185     18188     18191     18187     18185     18188     18189
     18187     18185     18188     18190     18187     18185     18188     18191
     18188     18191     18194     18195     18188     18191     18194     18196
     18188     18191     18194     18197     18189     18188     18191     18192
     18189     18188     18191     18193     18189     18188     18191     18194
     18190     18188     18191     18192     18190     18188     18191     18193
     18190     18188     18191     18194     18192     18191     18194     18195
     18192     18191     18194     18196     18192     18191     18194     18197
     18193     18191     18194     18195     18193     18191     18194     18196
     18193     18191     18194     18197     18198     18201     18204     18205
     18198     18201     18204     18206     18198     18201     18204     18207
     18199     18198     18201     18202     18199     18198     18201     18203
     18199     18198     18201     18204     18200     18198     18201     18202
     18200     18198     18201     18203     18200     18198     18201     18204
     18201     18204     18207     18208     18201     18204     18207     18209
     18201     18204     18207     18210     18202     18201     18204     18205
     18202     18201     18204     18206     18202     18201     18204     18207
     18203     18201     18204     18205     18203     18201     18204     18206
     18203     18201     18204     18207     18204     18207     18210     18211
     18204     18207     18210     18212     18204     18207     18210     18213
     18205     18204     18207     18208     18205     18204     18207     18209
     18205     18204     18207     18210     18206     18204     18207     18208
     18206     18204     18207     18209     18206     18204     18207     18210
     18207     18210     18213     18214     18207     18210     18213     18215
     18207     18210     18213     18216     18208     18207     18210     18211
     18208     18207     18210     18212     18208     18207     18210     18213
     18209     18207     18210     18211     18209     18207     18210     18212
     18209     18207     18210     18213     18210     18213     18216     18217
     18210     18213     18216     18218     18210     18213     18216     18219
     18211     18210     18213     18214     18211     18210     18213     18215
     18211     18210     18213     18216     18212     18210     18213     18214
     18212     18210     18213     18215     18212     18210     18213     18216
     18213     18216     18219     18220     18213     18216     18219     18221
     18213     18216     18219     18222     18214     18213     18216     18217
     18214     18213     18216     18218     18214     18213     18216     18219
     18215     18213     18216     18217     18215     18213     18216     18218
     18215     18213     18216     18219     18216     18219     18222     18223
     18216     18219     18222     18224     18216     18219     18222     18225
     18217     18216     18219     18220     18217     18216     18219     18221
     18217     18216     18219     18222     18218     18216     18219     18220
     18218     18216     18219     18221     18218     18216     18219     18222
     18219     18222     18225     18226     18219     18222     18225     18227
     18219     18222     18225     18228     18220     18219     18222     18223
     18220     18219     18222     18224     18220     18219     18222     18225
     18221     18219     18222     18223     18221     18219     18222     18224
     18221     18219     18222     18225     18222     18225     18228     18229
     18222     18225     18228     18230     18222     18225     18228     18231
     18223     18222     18225     18226     18223     18222     18225     18227
     18223     18222     18225     18228     18224     18222     18225     18226
     18224     18222     18225     18227     18224     18222     18225     18228
     18225     18228     18231     18232     18225     18228     18231     18233
     18225     18228     18231     18234     18226     18225     18228     18229
     18226     18225     18228     18230     18226     18225     18228     18231
     18227     18225     18228     18229     18227     18225     18228     18230
     18227     18225     18228     18231     18228     18231     18234     18235
     18228     18231     18234     18236     18228     18231     18234     18237
     18229     18228     18231     18232     18229     18228     18231     18233
     18229     18228     18231     18234     18230     18228     18231     18232
     18230     18228     18231     18233     18230     18228     18231     18234
     18231     18234     18237     18238     18231     18234     18237     18239
     18231     18234     18237     18240     18232     18231     18234     18235
     18232     18231     18234     18236     18232     18231     18234     18237
     18233     18231     18234     18235     18233     18231     18234     18236
     18233     18231     18234     18237     18235     18234     18237     18238
     18235     18234     18237     18239     18235     18234     18237     18240
     18236     18234     18237     18238     18236     18234     18237     18239
     18236     18234     18237     18240      5596      5600      5603      5604
      5596      5600      5603      5605      5596      5600      5603      5610
      5597      5596      5600      5601      5597      5596      5600      5602
      5597      5596      5600      5603      5598      5596      5600      5601
      5598      5596      5600      5602      5598      5596      5600      5603
      5599      5596      5600      5601      5599      5596      5600      5602
      5599      5596      5600      5603      5600      5603      5610      5606
      5601      5600      5603      5604      5601      5600      5603      5605
      5601      5600      5603      5610      5602      5600      5603      5604
      5602      5600      5603      5605      5602      5600      5603      5610
      5603      5610      5606      5607      5603      5610      5606      5608
      5603      5610      5606      5609      5604      5603      5610      5606
      5605      5603      5610      5606      5606      5609      5611      5612
      5606      5609      5611      5613      5606      5609      5611      5614
      5607      5606      5609      5611      5608      5606      5609      5611
      5609      5611      5614      5615      5609      5611      5614      5616
      5609      5611      5614      5622      5610      5606      5609      5611
      5611      5614      5616      5617      5611      5614      5622      5623
      5611      5614      5622      5624      5611      5614      5622      5625
      5612      5611      5614      5615      5612      5611      5614      5616
      5612      5611      5614      5622      5613      5611      5614      5615
      5613      5611      5614      5616      5613      5611      5614      5622
      5614      5616      5617      5618      5614      5616      5617      5619
      5614      5622      5625      5626      5615      5614      5616      5617
      5615      5614      5622      5623      5615      5614      5622      5624
      5615      5614      5622      5625      5616      5614      5622      5623
      5616      5614      5622      5624      5616      5614      5622      5625
      5616      5617      5619      5620      5616      5617      5619      5621
      5616      5617      5619      5631      5617      5616      5614      5622
      5617      5619      5631      5632      5617      5619      5631      5633
      5617      5619      5631      5634      5618      5617      5619      5620
      5618      5617      5619      5621      5618      5617      5619      5631
      5619      5631      5634      5635      5619      5631      5634      5636
      5619      5631      5634      5637      5620      5619      5631      5632
      5620      5619      5631      5633      5620      5619      5631      5634
      5621      5619      5631      5632      5621      5619      5631      5633
      5621      5619      5631      5634      5622      5625      5626      5627
      5622      5625      5626      5628      5623      5622      5625      5626
      5624      5622      5625      5626      5625      5626      5628      5629
      5625      5626      5628      5630      5625      5626      5628      5678
      5626      5628      5678      5679      5626      5628      5678      5680
      5626      5628      5678      5681      5627      5626      5628      5629
      5627      5626      5628      5630      5627      5626      5628      5678
      5628      5678      5681      5682      5628      5678      5681      5683
      5628      5678      5681      5684      5629      5628      5678      5679
      5629      5628      5678      5680      5629      5628      5678      5681
      5630      5628      5678      5679      5630      5628      5678      5680
      5630      5628      5678      5681      5631      5634      5637      5638
      5631      5634      5637      5639      5631      5634      5637      5640
      5632      5631      5634      5635      5632      5631      5634      5636
      5632      5631      5634      5637      5633      5631      5634      5635
      5633      5631      5634      5636      5633      5631      5634      5637
      5634      5637      5640      5641      5634      5637      5640      5642
      5634      5637      5640      5643      5635      5634      5637      5638
      5635      5634      5637      5639      5635      5634      5637      5640
      5636      5634      5637      5638      5636      5634      5637      5639
      5636      5634      5637      5640      5637      5640      5643      5644
      5637      5640      5643      5645      5637      5640      5643      5646
      5638      5637      5640      5641      5638      5637      5640      5642
      5638      5637      5640      5643      5639      5637      5640      5641
      5639      5637      5640      5642      5639      5637      5640      5643
      5640      5643      5646      5647      5640      5643      5646      5648
      5640      5643      5646      5649      5641      5640      5643      5644
      5641      5640      5643      5645      5641      5640      5643      5646
      5642      5640      5643      5644      5642      5640      5643      5645
      5642      5640      5643      5646      5643      5646      5649      5650
      5643      5646      5649      5651      5644      5643      5646      5647
      5644      5643      5646      5648      5644      5643      5646      5649
      5645      5643      5646      5647      5645      5643      5646      5648
      5645      5643      5646      5649      5646      5649      5651      5652
      5646      5649      5651      5653      5647      5646      5649      5650
      5647      5646      5649      5651      5648      5646      5649      5650
      5648      5646      5649      5651      5649      5651      5653      5654
      5649      5651      5653      5655      5649      5651      5653      5656
      5650      5649      5651      5652      5650      5649      5651      5653
      5651      5653      5656      5657      5651      5653      5656      5658
      5651      5653      5656      5659      5652      5651      5653      5654
      5652      5651      5653      5655      5652      5651      5653      5656
      5653      5656      5659      5660      5653      5656      5659      5661
      5653      5656      5659      5662      5654      5653      5656      5657
      5654      5653      5656      5658      5654      5653      5656      5659
      5655      5653      5656      5657      5655      5653      5656      5658
      5655      5653      5656      5659      5656      5659      5662      5663
      5656      5659      5662      5664      5656      5659      5662      5665
      5657      5656      5659      5660      5657      5656      5659      5661
      5657      5656      5659      5662      5658      5656      5659      5660
      5658      5656      5659      5661      5658      5656      5659      5662
      5659      5662      5665      5666      5659      5662      5665      5667
      5659      5662      5665      5668      5660      5659      5662      5663
      5660      5659      5662      5664      5660      5659      5662      5665
      5661      5659      5662      5663      5661      5659      5662      5664
      5661      5659      5662      5665      5662      5665      5668      5669
      5662      5665      5668      5670      5662      5665      5668      5671
      5663      5662      5665      5666      5663      5662      5665      5667
      5663      5662      5665      5668      5664      5662      5665      5666
      5664      5662      5665      5667      5664      5662      5665      5668
      5665      5668      5671      5672      5665      5668      5671      5673
      5665      5668      5671      5674      5666      5665      5668      5669
      5666      5665      5668      5670      5666      5665      5668      5671
      5667      5665      5668      5669      5667      5665      5668      5670
      5667      5665      5668      5671      5668      5671      5674      5675
      5668      5671      5674      5676      5668      5671      5674      5677
      5669      5668      5671      5672      5669      5668      5671      5673
      5669      5668      5671      5674      5670      5668      5671      5672
      5670      5668      5671      5673      5670      5668      5671      5674
      5672      5671      5674      5675      5672      5671      5674      5676
      5672      5671      5674      5677      5673      5671      5674      5675
      5673      5671      5674      5676      5673      5671      5674      5677
      5678      5681      5684      5685      5678      5681      5684      5686
      5678      5681      5684      5687      5679      5678      5681      5682
      5679      5678      5681      5683      5679      5678      5681      5684
      5680      5678      5681      5682      5680      5678      5681      5683
      5680      5678      5681      5684      5681      5684      5687      5688
      5681      5684      5687      5689      5681      5684      5687      5690
      5682      5681      5684      5685      5682      5681      5684      5686
      5682      5681      5684      5687      5683      5681      5684      5685
      5683      5681      5684      5686      5683      5681      5684      5687
      5684      5687      5690      5691      5684      5687      5690      5692
      5684      5687      5690      5693      5685      5684      5687      5688
      5685      5684      5687      5689      5685      5684      5687      5690
      5686      5684      5687      5688      5686      5684      5687      5689
      5686      5684      5687      5690      5687      5690      5693      5694
      5687      5690      5693      5695      5687      5690      5693      5696
      5688      5687      5690      5691      5688      5687      5690      5692
      5688      5687      5690      5693      5689      5687      5690      5691
      5689      5687      5690      5692      5689      5687      5690      5693
      5690      5693      5696      5697      5690      5693      5696      5698
      5690      5693      5696      5699      5691      5690      5693      5694
      5691      5690      5693      5695      5691      5690      5693      5696
      5692      5690      5693      5694      5692      5690      5693      5695
      5692      5690      5693      5696      5693      5696      5699      5700
      5693      5696      5699      5701      5693      5696      5699      5702
      5694      5693      5696      5697      5694      5693      5696      5698
      5694      5693      5696      5699      5695      5693      5696      5697
      5695      5693      5696      5698      5695      5693      5696      5699
      5696      5699      5702      5703      5696      5699      5702      5704
      5696      5699      5702      5705      5697      5696      5699      5700
      5697      5696      5699      5701      5697      5696      5699      5702
      5698      5696      5699      5700      5698      5696      5699      5701
      5698      5696      5699      5702      5699      5702      5705      5706
      5699      5702      5705      5707      5699      5702      5705      5708
      5700      5699      5702      5703      5700      5699      5702      5704
      5700      5699      5702      5705      5701      5699      5702      5703
      5701      5699      5702      5704      5701      5699      5702      5705
      5702      5705      5708      5709      5702      5705      5708      5710
      5702      5705      5708      5711      5703      5702      5705      5706
      5703      5702      5705      5707      5703      5702      5705      5708
      5704      5702      5705      5706      5704      5702      5705      5707
      5704      5702      5705      5708      5705      5708      5711      5712
      5705      5708      5711      5713      5705      5708      5711      5714
      5706      5705      5708      5709      5706      5705      5708      5710
      5706      5705      5708      5711      5707      5705      5708      5709
      5707      5705      5708      5710      5707      5705      5708      5711
      5708      5711      5714      5715      5708      5711      5714      5716
      5708      5711      5714      5717      5709      5708      5711      5712
      5709      5708      5711      5713      5709      5708      5711      5714
      5710      5708      5711      5712      5710      5708      5711      5713
      5710      5708      5711      5714      5711      5714      5717      5718
      5711      5714      5717      5719      5711      5714      5717      5720
      5712      5711      5714      5715      5712      5711      5714      5716
      5712      5711      5714      5717      5713      5711      5714      5715
      5713      5711      5714      5716      5713      5711      5714      5717
      5715      5714      5717      5718      5715      5714      5717      5719
      5715      5714      5717      5720      5716      5714      5717      5718
      5716      5714      5717      5719      5716      5714      5717      5720
     11265     11269     11271     11272     11265     11269     11271     11273
     11265     11269     11274     11275     11265     11269     11274     11276
     11265     11269     11274     11280     11266     11265     11269     11270
     11266     11265     11269     11271     11266     11265     11269     11274
     11267     11265     11269     11270     11267     11265     11269     11271
     11267     11265     11269     11274     11268     11265     11269     11270
     11268     11265     11269     11271     11268     11265     11269     11274
     11269     11274     11280     11277     11270     11269     11271     11272
     11270     11269     11271     11273     11270     11269     11274     11275
     11270     11269     11274     11276     11270     11269     11274     11280
     11271     11269     11274     11275     11271     11269     11274     11276
     11271     11269     11274     11280     11272     11271     11269     11274
     11273     11271     11269     11274     11274     11280     11277     11278
     11274     11280     11277     11279     11274     11280     11277     11281
     11275     11274     11280     11277     11276     11274     11280     11277
     11277     11281     11282     11283     11277     11281     11282     11284
     11277     11281     11282     11285     11278     11277     11281     11282
     11279     11277     11281     11282     11280     11277     11281     11282
     11281     11282     11285     11286     11281     11282     11285     11287
     11281     11282     11285     11293     11282     11285     11287     11288
     11282     11285     11293     11294     11282     11285     11293     11295
     11282     11285     11293     11296     11283     11282     11285     11286
     11283     11282     11285     11287     11283     11282     11285     11293
     11284     11282     11285     11286     11284     11282     11285     11287
     11284     11282     11285     11293     11285     11287     11288     11289
     11285     11287     11288     11290     11285     11293     11296     11297
     11286     11285     11287     11288     11286     11285     11293     11294
     11286     11285     11293     11295     11286     11285     11293     11296
     11287     11285     11293     11294     11287     11285     11293     11295
     11287     11285     11293     11296     11287     11288     11290     11291
     11287     11288     11290     11292     11287     11288     11290     11302
     11288     11287     11285     11293     11288     11290     11302     11303
     11288     11290     11302     11304     11288     11290     11302     11305
     11289     11288     11290     11291     11289     11288     11290     11292
     11289     11288     11290     11302     11290     11302     11305     11306
     11290     11302     11305     11307     11290     11302     11305     11308
     11291     11290     11302     11303     11291     11290     11302     11304
     11291     11290     11302     11305     11292     11290     11302     11303
     11292     11290     11302     11304     11292     11290     11302     11305
     11293     11296     11297     11298     11293     11296     11297     11299
     11294     11293     11296     11297     11295     11293     11296     11297
     11296     11297     11299     11300     11296     11297     11299     11301
     11296     11297     11299     11349     11297     11299     11349     11350
     11297     11299     11349     11351     11297     11299     11349     11352
     11298     11297     11299     11300     11298     11297     11299     11301
     11298     11297     11299     11349     11299     11349     11352     11353
     11299     11349     11352     11354     11299     11349     11352     11355
     11300     11299     11349     11350     11300     11299     11349     11351
     11300     11299     11349     11352     11301     11299     11349     11350
     11301     11299     11349     11351     11301     11299     11349     11352
     11302     11305     11308     11309     11302     11305     11308     11310
     11302     11305     11308     11311     11303     11302     11305     11306
     11303     11302     11305     11307     11303     11302     11305     11308
     11304     11302     11305     11306     11304     11302     11305     11307
     11304     11302     11305     11308     11305     11308     11311     11312
     11305     11308     11311     11313     11305     11308     11311     11314
     11306     11305     11308     11309     11306     11305     11308     11310
     11306     11305     11308     11311     11307     11305     11308     11309
     11307     11305     11308     11310     11307     11305     11308     11311
     11308     11311     11314     11315     11308     11311     11314     11316
     11308     11311     11314     11317     11309     11308     11311     11312
     11309     11308     11311     11313     11309     11308     11311     11314
     11310     11308     11311     11312     11310     11308     11311     11313
     11310     11308     11311     11314     11311     11314     11317     11318
     11311     11314     11317     11319     11311     11314     11317     11320
     11312     11311     11314     11315     11312     11311     11314     11316
     11312     11311     11314     11317     11313     11311     11314     11315
     11313     11311     11314     11316     11313     11311     11314     11317
     11314     11317     11320     11321     11314     11317     11320     11322
     11315     11314     11317     11318     11315     11314     11317     11319
     11315     11314     11317     11320     11316     11314     11317     11318
     11316     11314     11317     11319     11316     11314     11317     11320
     11317     11320     11322     11323     11317     11320     11322     11324
     11318     11317     11320     11321     11318     11317     11320     11322
     11319     11317     11320     11321     11319     11317     11320     11322
     11320     11322     11324     11325     11320     11322     11324     11326
     11320     11322     11324     11327     11321     11320     11322     11323
     11321     11320     11322     11324     11322     11324     11327     11328
     11322     11324     11327     11329     11322     11324     11327     11330
     11323     11322     11324     11325     11323     11322     11324     11326
     11323     11322     11324     11327     11324     11327     11330     11331
     11324     11327     11330     11332     11324     11327     11330     11333
     11325     11324     11327     11328     11325     11324     11327     11329
     11325     11324     11327     11330     11326     11324     11327     11328
     11326     11324     11327     11329     11326     11324     11327     11330
     11327     11330     11333     11334     11327     11330     11333     11335
     11327     11330     11333     11336     11328     11327     11330     11331
     11328     11327     11330     11332     11328     11327     11330     11333
     11329     11327     11330     11331     11329     11327     11330     11332
     11329     11327     11330     11333     11330     11333     11336     11337
     11330     11333     11336     11338     11330     11333     11336     11339
     11331     11330     11333     11334     11331     11330     11333     11335
     11331     11330     11333     11336     11332     11330     11333     11334
     11332     11330     11333     11335     11332     11330     11333     11336
     11333     11336     11339     11340     11333     11336     11339     11341
     11333     11336     11339     11342     11334     11333     11336     11337
     11334     11333     11336     11338     11334     11333     11336     11339
     11335     11333     11336     11337     11335     11333     11336     11338
     11335     11333     11336     11339     11336     11339     11342     11343
     11336     11339     11342     11344     11336     11339     11342     11345
     11337     11336     11339     11340     11337     11336     11339     11341
     11337     11336     11339     11342     11338     11336     11339     11340
     11338     11336     11339     11341     11338     11336     11339     11342
     11339     11342     11345     11346     11339     11342     11345     11347
     11339     11342     11345     11348     11340     11339     11342     11343
     11340     11339     11342     11344     11340     11339     11342     11345
     11341     11339     11342     11343     11341     11339     11342     11344
     11341     11339     11342     11345     11343     11342     11345     11346
     11343     11342     11345     11347     11343     11342     11345     11348
     11344     11342     11345     11346     11344     11342     11345     11347
     11344     11342     11345     11348     11349     11352     11355     11356
     11349     11352     11355     11357     11349     11352     11355     11358
     11350     11349     11352     11353     11350     11349     11352     11354
     11350     11349     11352     11355     11351     11349     11352     11353
     11351     11349     11352     11354     11351     11349     11352     11355
     11352     11355     11358     11359     11352     11355     11358     11360
     11352     11355     11358     11361     11353     11352     11355     11356
     11353     11352     11355     11357     11353     11352     11355     11358
     11354     11352     11355     11356     11354     11352     11355     11357
     11354     11352     11355     11358     11355     11358     11361     11362
     11355     11358     11361     11363     11355     11358     11361     11364
     11356     11355     11358     11359     11356     11355     11358     11360
     11356     11355     11358     11361     11357     11355     11358     11359
     11357     11355     11358     11360     11357     11355     11358     11361
     11358     11361     11364     11365     11358     11361     11364     11366
     11358     11361     11364     11367     11359     11358     11361     11362
     11359     11358     11361     11363     11359     11358     11361     11364
     11360     11358     11361     11362     11360     11358     11361     11363
     11360     11358     11361     11364     11361     11364     11367     11368
     11361     11364     11367     11369     11361     11364     11367     11370
     11362     11361     11364     11365     11362     11361     11364     11366
     11362     11361     11364     11367     11363     11361     11364     11365
     11363     11361     11364     11366     11363     11361     11364     11367
     11364     11367     11370     11371     11364     11367     11370     11372
     11364     11367     11370     11373     11365     11364     11367     11368
     11365     11364     11367     11369     11365     11364     11367     11370
     11366     11364     11367     11368     11366     11364     11367     11369
     11366     11364     11367     11370     11367     11370     11373     11374
     11367     11370     11373     11375     11367     11370     11373     11376
     11368     11367     11370     11371     11368     11367     11370     11372
     11368     11367     11370     11373     11369     11367     11370     11371
     11369     11367     11370     11372     11369     11367     11370     11373
     11370     11373     11376     11377     11370     11373     11376     11378
     11370     11373     11376     11379     11371     11370     11373     11374
     11371     11370     11373     11375     11371     11370     11373     11376
     11372     11370     11373     11374     11372     11370     11373     11375
     11372     11370     11373     11376     11373     11376     11379     11380
     11373     11376     11379     11381     11373     11376     11379     11382
     11374     11373     11376     11377     11374     11373     11376     11378
     11374     11373     11376     11379     11375     11373     11376     11377
     11375     11373     11376     11378     11375     11373     11376     11379
     11376     11379     11382     11383     11376     11379     11382     11384
     11376     11379     11382     11385     11377     11376     11379     11380
     11377     11376     11379     11381     11377     11376     11379     11382
     11378     11376     11379     11380     11378     11376     11379     11381
     11378     11376     11379     11382     11379     11382     11385     11386
     11379     11382     11385     11387     11379     11382     11385     11388
     11380     11379     11382     11383     11380     11379     11382     11384
     11380     11379     11382     11385     11381     11379     11382     11383
     11381     11379     11382     11384     11381     11379     11382     11385
     11382     11385     11388     11389     11382     11385     11388     11390
     11382     11385     11388     11391     11383     11382     11385     11386
     11383     11382     11385     11387     11383     11382     11385     11388
     11384     11382     11385     11386     11384     11382     11385     11387
     11384     11382     11385     11388     11386     11385     11388     11389
     11386     11385     11388     11390     11386     11385     11388     11391
     11387     11385     11388     11389     11387     11385     11388     11390
     11387     11385     11388     11391     18241     18242     18257     18258
     18241     18242     18257     18259     18241     18242     18257     18263
     18242     18241     18245     18246     18242     18241     18245     18247
     18242     18241     18245     18248     18242     18241     18249     18250
     18242     18241     18249     18251     18242     18241     18249     18252
     18242     18241     18253     18254     18242     18241     18253     18255
     18242     18241     18253     18256     18242     18257     18263     18260
     18243     18242     18241     18245     18243     18242     18241     18249
     18243     18242     18241     18253     18243     18242     18257     18258
     18243     18242     18257     18259     18243     18242     18257     18263
     18244     18242     18241     18245     18244     18242     18241     18249
     18244     18242     18241     18253     18244     18242     18257     18258
     18244     18242     18257     18259     18244     18242     18257     18263
     18245     18241     18242     18257     18245     18241     18249     18250
     18245     18241     18249     18251     18245     18241     18249     18252
     18245     18241     18253     18254     18245     18241     18253     18255
     18245     18241     18253     18256     18246     18245     18241     18249
     18246     18245     18241     18253     18247     18245     18241     18249
     18247     18245     18241     18253     18248     18245     18241     18249
     18248     18245     18241     18253     18249     18241     18242     18257
     18249     18241     18253     18254     18249     18241     18253     18255
     18249     18241     18253     18256     18250     18249     18241     18253
     18251     18249     18241     18253     18252     18249     18241     18253
     18253     18241     18242     18257     18257     18263     18260     18261
     18257     18263     18260     18262     18257     18263     18260     18264
     18258     18257     18263     18260     18259     18257     18263     18260
     18260     18264     18265     18266     18260     18264     18265     18267
     18260     18264     18265     18268     18261     18260     18264     18265
     18262     18260     18264     18265     18263     18260     18264     18265
     18264     18265     18268     18269     18264     18265     18268     18270
     18264     18265     18268     18276     18265     18268     18270     18271
     18265     18268     18276     18277     18265     18268     18276     18278
     18265     18268     18276     18279     18266     18265     18268     18269
     18266     18265     18268     18270     18266     18265     18268     18276
     18267     18265     18268     18269     18267     18265     18268     18270
     18267     18265     18268     18276     18268     18270     18271     18272
     18268     18270     18271     18273     18268     18276     18279     18280
     18269     18268     18270     18271     18269     18268     18276     18277
     18269     18268     18276     18278     18269     18268     18276     18279
     18270     18268     18276     18277     18270     18268     18276     18278
     18270     18268     18276     18279     18270     18271     18273     18274
     18270     18271     18273     18275     18270     18271     18273     18285
     18271     18270     18268     18276     18271     18273     18285     18286
     18271     18273     18285     18287     18271     18273     18285     18288
     18272     18271     18273     18274     18272     18271     18273     18275
     18272     18271     18273     18285     18273     18285     18288     18289
     18273     18285     18288     18290     18273     18285     18288     18291
     18274     18273     18285     18286     18274     18273     18285     18287
     18274     18273     18285     18288     18275     18273     18285     18286
     18275     18273     18285     18287     18275     18273     18285     18288
     18276     18279     18280     18281     18276     18279     18280     18282
     18277     18276     18279     18280     18278     18276     18279     18280
     18279     18280     18282     18283     18279     18280     18282     18284
     18279     18280     18282     18332     18280     18282     18332     18333
     18280     18282     18332     18334     18280     18282     18332     18335
     18281     18280     18282     18283     18281     18280     18282     18284
     18281     18280     18282     18332     18282     18332     18335     18336
     18282     18332     18335     18337     18282     18332     18335     18338
     18283     18282     18332     18333     18283     18282     18332     18334
     18283     18282     18332     18335     18284     18282     18332     18333
     18284     18282     18332     18334     18284     18282     18332     18335
     18285     18288     18291     18292     18285     18288     18291     18293
     18285     18288     18291     18294     18286     18285     18288     18289
     18286     18285     18288     18290     18286     18285     18288     18291
     18287     18285     18288     18289     18287     18285     18288     18290
     18287     18285     18288     18291     18288     18291     18294     18295
     18288     18291     18294     18296     18288     18291     18294     18297
     18289     18288     18291     18292     18289     18288     18291     18293
     18289     18288     18291     18294     18290     18288     18291     18292
     18290     18288     18291     18293     18290     18288     18291     18294
     18291     18294     18297     18298     18291     18294     18297     18299
     18291     18294     18297     18300     18292     18291     18294     18295
     18292     18291     18294     18296     18292     18291     18294     18297
     18293     18291     18294     18295     18293     18291     18294     18296
     18293     18291     18294     18297     18294     18297     18300     18301
     18294     18297     18300     18302     18294     18297     18300     18303
     18295     18294     18297     18298     18295     18294     18297     18299
     18295     18294     18297     18300     18296     18294     18297     18298
     18296     18294     18297     18299     18296     18294     18297     18300
     18297     18300     18303     18304     18297     18300     18303     18305
     18298     18297     18300     18301     18298     18297     18300     18302
     18298     18297     18300     18303     18299     18297     18300     18301
     18299     18297     18300     18302     18299     18297     18300     18303
     18300     18303     18305     18306     18300     18303     18305     18307
     18301     18300     18303     18304     18301     18300     18303     18305
     18302     18300     18303     18304     18302     18300     18303     18305
     18303     18305     18307     18308     18303     18305     18307     18309
     18303     18305     18307     18310     18304     18303     18305     18306
     18304     18303     18305     18307     18305     18307     18310     18311
     18305     18307     18310     18312     18305     18307     18310     18313
     18306     18305     18307     18308     18306     18305     18307     18309
     18306     18305     18307     18310     18307     18310     18313     18314
     18307     18310     18313     18315     18307     18310     18313     18316
     18308     18307     18310     18311     18308     18307     18310     18312
     18308     18307     18310     18313     18309     18307     18310     18311
     18309     18307     18310     18312     18309     18307     18310     18313
     18310     18313     18316     18317     18310     18313     18316     18318
     18310     18313     18316     18319     18311     18310     18313     18314
     18311     18310     18313     18315     18311     18310     18313     18316
     18312     18310     18313     18314     18312     18310     18313     18315
     18312     18310     18313     18316     18313     18316     18319     18320
     18313     18316     18319     18321     18313     18316     18319     18322
     18314     18313     18316     18317     18314     18313     18316     18318
     18314     18313     18316     18319     18315     18313     18316     18317
     18315     18313     18316     18318     18315     18313     18316     18319
     18316     18319     18322     18323     18316     18319     18322     18324
     18316     18319     18322     18325     18317     18316     18319     18320
     18317     18316     18319     18321     18317     18316     18319     18322
     18318     18316     18319     18320     18318     18316     18319     18321
     18318     18316     18319     18322     18319     18322     18325     18326
     18319     18322     18325     18327     18319     18322     18325     18328
     18320     18319     18322     18323     18320     18319     18322     18324
     18320     18319     18322     18325     18321     18319     18322     18323
     18321     18319     18322     18324     18321     18319     18322     18325
     18322     18325     18328     18329     18322     18325     18328     18330
     18322     18325     18328     18331     18323     18322     18325     18326
     18323     18322     18325     18327     18323     18322     18325     18328
     18324     18322     18325     18326     18324     18322     18325     18327
     18324     18322     18325     18328     18326     18325     18328     18329
     18326     18325     18328     18330     18326     18325     18328     18331
     18327     18325     18328     18329     18327     18325     18328     18330
     18327     18325     18328     18331     18332     18335     18338     18339
     18332     18335     18338     18340     18332     18335     18338     18341
     18333     18332     18335     18336     18333     18332     18335     18337
     18333     18332     18335     18338     18334     18332     18335     18336
     18334     18332     18335     18337     18334     18332     18335     18338
     18335     18338     18341     18342     18335     18338     18341     18343
     18335     18338     18341     18344     18336     18335     18338     18339
     18336     18335     18338     18340     18336     18335     18338     18341
     18337     18335     18338     18339     18337     18335     18338     18340
     18337     18335     18338     18341     18338     18341     18344     18345
     18338     18341     18344     18346     18338     18341     18344     18347
     18339     18338     18341     18342     18339     18338     18341     18343
     18339     18338     18341     18344     18340     18338     18341     18342
     18340     18338     18341     18343     18340     18338     18341     18344
     18341     18344     18347     18348     18341     18344     18347     18349
     18341     18344     18347     18350     18342     18341     18344     18345
     18342     18341     18344     18346     18342     18341     18344     18347
     18343     18341     18344     18345     18343     18341     18344     18346
     18343     18341     18344     18347     18344     18347     18350     18351
     18344     18347     18350     18352     18344     18347     18350     18353
     18345     18344     18347     18348     18345     18344     18347     18349
     18345     18344     18347     18350     18346     18344     18347     18348
     18346     18344     18347     18349     18346     18344     18347     18350
     18347     18350     18353     18354     18347     18350     18353     18355
     18347     18350     18353     18356     18348     18347     18350     18351
     18348     18347     18350     18352     18348     18347     18350     18353
     18349     18347     18350     18351     18349     18347     18350     18352
     18349     18347     18350     18353     18350     18353     18356     18357
     18350     18353     18356     18358     18350     18353     18356     18359
     18351     18350     18353     18354     18351     18350     18353     18355
     18351     18350     18353     18356     18352     18350     18353     18354
     18352     18350     18353     18355     18352     18350     18353     18356
     18353     18356     18359     18360     18353     18356     18359     18361
     18353     18356     18359     18362     18354     18353     18356     18357
     18354     18353     18356     18358     18354     18353     18356     18359
     18355     18353     18356     18357     18355     18353     18356     18358
     18355     18353     18356     18359     18356     18359     18362     18363
     18356     18359     18362     18364     18356     18359     18362     18365
     18357     18356     18359     18360     18357     18356     18359     18361
     18357     18356     18359     18362     18358     18356     18359     18360
     18358     18356     18359     18361     18358     18356     18359     18362
     18359     18362     18365     18366     18359     18362     18365     18367
     18359     18362     18365     18368     18360     18359     18362     18363
     18360     18359     18362     18364     18360     18359     18362     18365
     18361     18359     18362     18363     18361     18359     18362     18364
     18361     18359     18362     18365     18362     18365     18368     18369
     18362     18365     18368     18370     18362     18365     18368     18371
     18363     18362     18365     18366     18363     18362     18365     18367
     18363     18362     18365     18368     18364     18362     18365     18366
     18364     18362     18365     18367     18364     18362     18365     18368
     18365     18368     18371     18372     18365     18368     18371     18373
     18365     18368     18371     18374     18366     18365     18368     18369
     18366     18365     18368     18370     18366     18365     18368     18371
     18367     18365     18368     18369     18367     18365     18368     18370
     18367     18365     18368     18371     18369     18368     18371     18372
     18369     18368     18371     18373     18369     18368     18371     18374
     18370     18368     18371     18372     18370     18368     18371     18373
     18370     18368     18371     18374     11392     11396     11398     11399
     11392     11396     11398     11400     11392     11396     11401     11402
     11392     11396     11401     11403     11392     11396     11401     11407
     11393     11392     11396     11397     11393     11392     11396     11398
     11393     11392     11396     11401     11394     11392     11396     11397
     11394     11392     11396     11398     11394     11392     11396     11401
     11395     11392     11396     11397     11395     11392     11396     11398
     11395     11392     11396     11401     11396     11401     11407     11404
     11397     11396     11398     11399     11397     11396     11398     11400
     11397     11396     11401     11402     11397     11396     11401     11403
     11397     11396     11401     11407     11398     11396     11401     11402
     11398     11396     11401     11403     11398     11396     11401     11407
     11399     11398     11396     11401     11400     11398     11396     11401
     11401     11407     11404     11405     11401     11407     11404     11406
     11401     11407     11404     11408     11402     11401     11407     11404
     11403     11401     11407     11404     11404     11408     11409     11410
     11404     11408     11409     11411     11404     11408     11409     11412
     11405     11404     11408     11409     11406     11404     11408     11409
     11407     11404     11408     11409     11408     11409     11412     11413
     11408     11409     11412     11414     11408     11409     11412     11420
     11409     11412     11414     11415     11409     11412     11420     11421
     11409     11412     11420     11422     11409     11412     11420     11423
     11410     11409     11412     11413     11410     11409     11412     11414
     11410     11409     11412     11420     11411     11409     11412     11413
     11411     11409     11412     11414     11411     11409     11412     11420
     11412     11414     11415     11416     11412     11414     11415     11417
     11412     11420     11423     11424     11413     11412     11414     11415
     11413     11412     11420     11421     11413     11412     11420     11422
     11413     11412     11420     11423     11414     11412     11420     11421
     11414     11412     11420     11422     11414     11412     11420     11423
     11414     11415     11417     11418     11414     11415     11417     11419
     11414     11415     11417     11429     11415     11414     11412     11420
     11415     11417     11429     11430     11415     11417     11429     11431
     11415     11417     11429     11432     11416     11415     11417     11418
     11416     11415     11417     11419     11416     11415     11417     11429
     11417     11429     11432     11433     11417     11429     11432     11434
     11417     11429     11432     11435     11418     11417     11429     11430
     11418     11417     11429     11431     11418     11417     11429     11432
     11419     11417     11429     11430     11419     11417     11429     11431
     11419     11417     11429     11432     11420     11423     11424     11425
     11420     11423     11424     11426     11421     11420     11423     11424
     11422     11420     11423     11424     11423     11424     11426     11427
     11423     11424     11426     11428     11423     11424     11426     11476
     11424     11426     11476     11477     11424     11426     11476     11478
     11424     11426     11476     11479     11425     11424     11426     11427
     11425     11424     11426     11428     11425     11424     11426     11476
     11426     11476     11479     11480     11426     11476     11479     11481
     11426     11476     11479     11482     11427     11426     11476     11477
     11427     11426     11476     11478     11427     11426     11476     11479
     11428     11426     11476     11477     11428     11426     11476     11478
     11428     11426     11476     11479     11429     11432     11435     11436
     11429     11432     11435     11437     11429     11432     11435     11438
     11430     11429     11432     11433     11430     11429     11432     11434
     11430     11429     11432     11435     11431     11429     11432     11433
     11431     11429     11432     11434     11431     11429     11432     11435
     11432     11435     11438     11439     11432     11435     11438     11440
     11432     11435     11438     11441     11433     11432     11435     11436
     11433     11432     11435     11437     11433     11432     11435     11438
     11434     11432     11435     11436     11434     11432     11435     11437
     11434     11432     11435     11438     11435     11438     11441     11442
     11435     11438     11441     11443     11435     11438     11441     11444
     11436     11435     11438     11439     11436     11435     11438     11440
     11436     11435     11438     11441     11437     11435     11438     11439
     11437     11435     11438     11440     11437     11435     11438     11441
     11438     11441     11444     11445     11438     11441     11444     11446
     11438     11441     11444     11447     11439     11438     11441     11442
     11439     11438     11441     11443     11439     11438     11441     11444
     11440     11438     11441     11442     11440     11438     11441     11443
     11440     11438     11441     11444     11441     11444     11447     11448
     11441     11444     11447     11449     11442     11441     11444     11445
     11442     11441     11444     11446     11442     11441     11444     11447
     11443     11441     11444     11445     11443     11441     11444     11446
     11443     11441     11444     11447     11444     11447     11449     11450
     11444     11447     11449     11451     11445     11444     11447     11448
     11445     11444     11447     11449     11446     11444     11447     11448
     11446     11444     11447     11449     11447     11449     11451     11452
     11447     11449     11451     11453     11447     11449     11451     11454
     11448     11447     11449     11450     11448     11447     11449     11451
     11449     11451     11454     11455     11449     11451     11454     11456
     11449     11451     11454     11457     11450     11449     11451     11452
     11450     11449     11451     11453     11450     11449     11451     11454
     11451     11454     11457     11458     11451     11454     11457     11459
     11451     11454     11457     11460     11452     11451     11454     11455
     11452     11451     11454     11456     11452     11451     11454     11457
     11453     11451     11454     11455     11453     11451     11454     11456
     11453     11451     11454     11457     11454     11457     11460     11461
     11454     11457     11460     11462     11454     11457     11460     11463
     11455     11454     11457     11458     11455     11454     11457     11459
     11455     11454     11457     11460     11456     11454     11457     11458
     11456     11454     11457     11459     11456     11454     11457     11460
     11457     11460     11463     11464     11457     11460     11463     11465
     11457     11460     11463     11466     11458     11457     11460     11461
     11458     11457     11460     11462     11458     11457     11460     11463
     11459     11457     11460     11461     11459     11457     11460     11462
     11459     11457     11460     11463     11460     11463     11466     11467
     11460     11463     11466     11468     11460     11463     11466     11469
     11461     11460     11463     11464     11461     11460     11463     11465
     11461     11460     11463     11466     11462     11460     11463     11464
     11462     11460     11463     11465     11462     11460     11463     11466
     11463     11466     11469     11470     11463     11466     11469     11471
     11463     11466     11469     11472     11464     11463     11466     11467
     11464     11463     11466     11468     11464     11463     11466     11469
     11465     11463     11466     11467     11465     11463     11466     11468
     11465     11463     11466     11469     11466     11469     11472     11473
     11466     11469     11472     11474     11466     11469     11472     11475
     11467     11466     11469     11470     11467     11466     11469     11471
     11467     11466     11469     11472     11468     11466     11469     11470
     11468     11466     11469     11471     11468     11466     11469     11472
     11470     11469     11472     11473     11470     11469     11472     11474
     11470     11469     11472     11475     11471     11469     11472     11473
     11471     11469     11472     11474     11471     11469     11472     11475
     11476     11479     11482     11483     11476     11479     11482     11484
     11476     11479     11482     11485     11477     11476     11479     11480
     11477     11476     11479     11481     11477     11476     11479     11482
     11478     11476     11479     11480     11478     11476     11479     11481
     11478     11476     11479     11482     11479     11482     11485     11486
     11479     11482     11485     11487     11479     11482     11485     11488
     11480     11479     11482     11483     11480     11479     11482     11484
     11480     11479     11482     11485     11481     11479     11482     11483
     11481     11479     11482     11484     11481     11479     11482     11485
     11482     11485     11488     11489     11482     11485     11488     11490
     11482     11485     11488     11491     11483     11482     11485     11486
     11483     11482     11485     11487     11483     11482     11485     11488
     11484     11482     11485     11486     11484     11482     11485     11487
     11484     11482     11485     11488     11485     11488     11491     11492
     11485     11488     11491     11493     11485     11488     11491     11494
     11486     11485     11488     11489     11486     11485     11488     11490
     11486     11485     11488     11491     11487     11485     11488     11489
     11487     11485     11488     11490     11487     11485     11488     11491
     11488     11491     11494     11495     11488     11491     11494     11496
     11488     11491     11494     11497     11489     11488     11491     11492
     11489     11488     11491     11493     11489     11488     11491     11494
     11490     11488     11491     11492     11490     11488     11491     11493
     11490     11488     11491     11494     11491     11494     11497     11498
     11491     11494     11497     11499     11491     11494     11497     11500
     11492     11491     11494     11495     11492     11491     11494     11496
     11492     11491     11494     11497     11493     11491     11494     11495
     11493     11491     11494     11496     11493     11491     11494     11497
     11494     11497     11500     11501     11494     11497     11500     11502
     11494     11497     11500     11503     11495     11494     11497     11498
     11495     11494     11497     11499     11495     11494     11497     11500
     11496     11494     11497     11498     11496     11494     11497     11499
     11496     11494     11497     11500     11497     11500     11503     11504
     11497     11500     11503     11505     11497     11500     11503     11506
     11498     11497     11500     11501     11498     11497     11500     11502
     11498     11497     11500     11503     11499     11497     11500     11501
     11499     11497     11500     11502     11499     11497     11500     11503
     11500     11503     11506     11507     11500     11503     11506     11508
     11500     11503     11506     11509     11501     11500     11503     11504
     11501     11500     11503     11505     11501     11500     11503     11506
     11502     11500     11503     11504     11502     11500     11503     11505
     11502     11500     11503     11506     11503     11506     11509     11510
     11503     11506     11509     11511     11503     11506     11509     11512
     11504     11503     11506     11507     11504     11503     11506     11508
     11504     11503     11506     11509     11505     11503     11506     11507
     11505     11503     11506     11508     11505     11503     11506     11509
     11506     11509     11512     11513     11506     11509     11512     11514
     11506     11509     11512     11515     11507     11506     11509     11510
     11507     11506     11509     11511     11507     11506     11509     11512
     11508     11506     11509     11510     11508     11506     11509     11511
     11508     11506     11509     11512     11509     11512     11515     11516
     11509     11512     11515     11517     11509     11512     11515     11518
     11510     11509     11512     11513     11510     11509     11512     11514
     11510     11509     11512     11515     11511     11509     11512     11513
     11511     11509     11512     11514     11511     11509     11512     11515
     11513     11512     11515     11516     11513     11512     11515     11517
     11513     11512     11515     11518     11514     11512     11515     11516
     11514     11512     11515     11517     11514     11512     11515     11518
      5721      5725      5728      5729      5721      5725      5728      5730
      5721      5725      5728      5735      5722      5721      5725      5726
      5722      5721      5725      5727      5722      5721      5725      5728
      5723      5721      5725      5726      5723      5721      5725      5727
      5723      5721      5725      5728      5724      5721      5725      5726
      5724      5721      5725      5727      5724      5721      5725      5728
      5725      5728      5735      5731      5726      5725      5728      5729
      5726      5725      5728      5730      5726      5725      5728      5735
      5727      5725      5728      5729      5727      5725      5728      5730
      5727      5725      5728      5735      5728      5735      5731      5732
      5728      5735      5731      5733      5728      5735      5731      5734
      5729      5728      5735      5731      5730      5728      5735      5731
      5731      5734      5736      5737      5731      5734      5736      5738
      5731      5734      5736      5739      5732      5731      5734      5736
      5733      5731      5734      5736      5734      5736      5739      5740
      5734      5736      5739      5741      5734      5736      5739      5747
      5735      5731      5734      5736      5736      5739      5741      5742
      5736      5739      5747      5748      5736      5739      5747      5749
      5736      5739      5747      5750      5737      5736      5739      5740
      5737      5736      5739      5741      5737      5736      5739      5747
      5738      5736      5739      5740      5738      5736      5739      5741
      5738      5736      5739      5747      5739      5741      5742      5743
      5739      5741      5742      5744      5739      5747      5750      5751
      5740      5739      5741      5742      5740      5739      5747      5748
      5740      5739      5747      5749      5740      5739      5747      5750
      5741      5739      5747      5748      5741      5739      5747      5749
      5741      5739      5747      5750      5741      5742      5744      5745
      5741      5742      5744      5746      5741      5742      5744      5756
      5742      5741      5739      5747      5742      5744      5756      5757
      5742      5744      5756      5758      5742      5744      5756      5759
      5743      5742      5744      5745      5743      5742      5744      5746
      5743      5742      5744      5756      5744      5756      5759      5760
      5744      5756      5759      5761      5744      5756      5759      5762
      5745      5744      5756      5757      5745      5744      5756      5758
      5745      5744      5756      5759      5746      5744      5756      5757
      5746      5744      5756      5758      5746      5744      5756      5759
      5747      5750      5751      5752      5747      5750      5751      5753
      5748      5747      5750      5751      5749      5747      5750      5751
      5750      5751      5753      5754      5750      5751      5753      5755
      5750      5751      5753      5803      5751      5753      5803      5804
      5751      5753      5803      5805      5751      5753      5803      5806
      5752      5751      5753      5754      5752      5751      5753      5755
      5752      5751      5753      5803      5753      5803      5806      5807
      5753      5803      5806      5808      5753      5803      5806      5809
      5754      5753      5803      5804      5754      5753      5803      5805
      5754      5753      5803      5806      5755      5753      5803      5804
      5755      5753      5803      5805      5755      5753      5803      5806
      5756      5759      5762      5763      5756      5759      5762      5764
      5756      5759      5762      5765      5757      5756      5759      5760
      5757      5756      5759      5761      5757      5756      5759      5762
      5758      5756      5759      5760      5758      5756      5759      5761
      5758      5756      5759      5762      5759      5762      5765      5766
      5759      5762      5765      5767      5759      5762      5765      5768
      5760      5759      5762      5763      5760      5759      5762      5764
      5760      5759      5762      5765      5761      5759      5762      5763
      5761      5759      5762      5764      5761      5759      5762      5765
      5762      5765      5768      5769      5762      5765      5768      5770
      5762      5765      5768      5771      5763      5762      5765      5766
      5763      5762      5765      5767      5763      5762      5765      5768
      5764      5762      5765      5766      5764      5762      5765      5767
      5764      5762      5765      5768      5765      5768      5771      5772
      5765      5768      5771      5773      5765      5768      5771      5774
      5766      5765      5768      5769      5766      5765      5768      5770
      5766      5765      5768      5771      5767      5765      5768      5769
      5767      5765      5768      5770      5767      5765      5768      5771
      5768      5771      5774      5775      5768      5771      5774      5776
      5769      5768      5771      5772      5769      5768      5771      5773
      5769      5768      5771      5774      5770      5768      5771      5772
      5770      5768      5771      5773      5770      5768      5771      5774
      5771      5774      5776      5777      5771      5774      5776      5778
      5772      5771      5774      5775      5772      5771      5774      5776
      5773      5771      5774      5775      5773      5771      5774      5776
      5774      5776      5778      5779      5774      5776      5778      5780
      5774      5776      5778      5781      5775      5774      5776      5777
      5775      5774      5776      5778      5776      5778      5781      5782
      5776      5778      5781      5783      5776      5778      5781      5784
      5777      5776      5778      5779      5777      5776      5778      5780
      5777      5776      5778      5781      5778      5781      5784      5785
      5778      5781      5784      5786      5778      5781      5784      5787
      5779      5778      5781      5782      5779      5778      5781      5783
      5779      5778      5781      5784      5780      5778      5781      5782
      5780      5778      5781      5783      5780      5778      5781      5784
      5781      5784      5787      5788      5781      5784      5787      5789
      5781      5784      5787      5790      5782      5781      5784      5785
      5782      5781      5784      5786      5782      5781      5784      5787
      5783      5781      5784      5785      5783      5781      5784      5786
      5783      5781      5784      5787      5784      5787      5790      5791
      5784      5787      5790      5792      5784      5787      5790      5793
      5785      5784      5787      5788      5785      5784      5787      5789
      5785      5784      5787      5790      5786      5784      5787      5788
      5786      5784      5787      5789      5786      5784      5787      5790
      5787      5790      5793      5794      5787      5790      5793      5795
      5787      5790      5793      5796      5788      5787      5790      5791
      5788      5787      5790      5792      5788      5787      5790      5793
      5789      5787      5790      5791      5789      5787      5790      5792
      5789      5787      5790      5793      5790      5793      5796      5797
      5790      5793      5796      5798      5790      5793      5796      5799
      5791      5790      5793      5794      5791      5790      5793      5795
      5791      5790      5793      5796      5792      5790      5793      5794
      5792      5790      5793      5795      5792      5790      5793      5796
      5793      5796      5799      5800      5793      5796      5799      5801
      5793      5796      5799      5802      5794      5793      5796      5797
      5794      5793      5796      5798      5794      5793      5796      5799
      5795      5793      5796      5797      5795      5793      5796      5798
      5795      5793      5796      5799      5797      5796      5799      5800
      5797      5796      5799      5801      5797      5796      5799      5802
      5798      5796      5799      5800      5798      5796      5799      5801
      5798      5796      5799      5802      5803      5806      5809      5810
      5803      5806      5809      5811      5803      5806      5809      5812
      5804      5803      5806      5807      5804      5803      5806      5808
      5804      5803      5806      5809      5805      5803      5806      5807
      5805      5803      5806      5808      5805      5803      5806      5809
      5806      5809      5812      5813      5806      5809      5812      5814
      5806      5809      5812      5815      5807      5806      5809      5810
      5807      5806      5809      5811      5807      5806      5809      5812
      5808      5806      5809      5810      5808      5806      5809      5811
      5808      5806      5809      5812      5809      5812      5815      5816
      5809      5812      5815      5817      5809      5812      5815      5818
      5810      5809      5812      5813      5810      5809      5812      5814
      5810      5809      5812      5815      5811      5809      5812      5813
      5811      5809      5812      5814      5811      5809      5812      5815
      5812      5815      5818      5819      5812      5815      5818      5820
      5812      5815      5818      5821      5813      5812      5815      5816
      5813      5812      5815      5817      5813      5812      5815      5818
      5814      5812      5815      5816      5814      5812      5815      5817
      5814      5812      5815      5818      5815      5818      5821      5822
      5815      5818      5821      5823      5815      5818      5821      5824
      5816      5815      5818      5819      5816      5815      5818      5820
      5816      5815      5818      5821      5817      5815      5818      5819
      5817      5815      5818      5820      5817      5815      5818      5821
      5818      5821      5824      5825      5818      5821      5824      5826
      5818      5821      5824      5827      5819      5818      5821      5822
      5819      5818      5821      5823      5819      5818      5821      5824
      5820      5818      5821      5822      5820      5818      5821      5823
      5820      5818      5821      5824      5821      5824      5827      5828
      5821      5824      5827      5829      5821      5824      5827      5830
      5822      5821      5824      5825      5822      5821      5824      5826
      5822      5821      5824      5827      5823      5821      5824      5825
      5823      5821      5824      5826      5823      5821      5824      5827
      5824      5827      5830      5831      5824      5827      5830      5832
      5824      5827      5830      5833      5825      5824      5827      5828
      5825      5824      5827      5829      5825      5824      5827      5830
      5826      5824      5827      5828      5826      5824      5827      5829
      5826      5824      5827      5830      5827      5830      5833      5834
      5827      5830      5833      5835      5827      5830      5833      5836
      5828      5827      5830      5831      5828      5827      5830      5832
      5828      5827      5830      5833      5829      5827      5830      5831
      5829      5827      5830      5832      5829      5827      5830      5833
      5830      5833      5836      5837      5830      5833      5836      5838
      5830      5833      5836      5839      5831      5830      5833      5834
      5831      5830      5833      5835      5831      5830      5833      5836
      5832      5830      5833      5834      5832      5830      5833      5835
      5832      5830      5833      5836      5833      5836      5839      5840
      5833      5836      5839      5841      5833      5836      5839      5842
      5834      5833      5836      5837      5834      5833      5836      5838
      5834      5833      5836      5839      5835      5833      5836      5837
      5835      5833      5836      5838      5835      5833      5836      5839
      5836      5839      5842      5843      5836      5839      5842      5844
      5836      5839      5842      5845      5837      5836      5839      5840
      5837      5836      5839      5841      5837      5836      5839      5842
      5838      5836      5839      5840      5838      5836      5839      5841
      5838      5836      5839      5842      5840      5839      5842      5843
      5840      5839      5842      5844      5840      5839      5842      5845
      5841      5839      5842      5843      5841      5839      5842      5844
      5841      5839      5842      5845     18375     18376     18391     18392
     18375     18376     18391     18393     18375     18376     18391     18397
     18376     18375     18379     18380     18376     18375     18379     18381
     18376     18375     18379     18382     18376     18375     18383     18384
     18376     18375     18383     18385     18376     18375     18383     18386
     18376     18375     18387     18388     18376     18375     18387     18389
     18376     18375     18387     18390     18376     18391     18397     18394
     18377     18376     18375     18379     18377     18376     18375     18383
     18377     18376     18375     18387     18377     18376     18391     18392
     18377     18376     18391     18393     18377     18376     18391     18397
     18378     18376     18375     18379     18378     18376     18375     18383
     18378     18376     18375     18387     18378     18376     18391     18392
     18378     18376     18391     18393     18378     18376     18391     18397
     18379     18375     18376     18391     18379     18375     18383     18384
     18379     18375     18383     18385     18379     18375     18383     18386
     18379     18375     18387     18388     18379     18375     18387     18389
     18379     18375     18387     18390     18380     18379     18375     18383
     18380     18379     18375     18387     18381     18379     18375     18383
     18381     18379     18375     18387     18382     18379     18375     18383
     18382     18379     18375     18387     18383     18375     18376     18391
     18383     18375     18387     18388     18383     18375     18387     18389
     18383     18375     18387     18390     18384     18383     18375     18387
     18385     18383     18375     18387     18386     18383     18375     18387
     18387     18375     18376     18391     18391     18397     18394     18395
     18391     18397     18394     18396     18391     18397     18394     18398
     18392     18391     18397     18394     18393     18391     18397     18394
     18394     18398     18399     18400     18394     18398     18399     18401
     18394     18398     18399     18402     18395     18394     18398     18399
     18396     18394     18398     18399     18397     18394     18398     18399
     18398     18399     18402     18403     18398     18399     18402     18404
     18398     18399     18402     18410     18399     18402     18404     18405
     18399     18402     18410     18411     18399     18402     18410     18412
     18399     18402     18410     18413     18400     18399     18402     18403
     18400     18399     18402     18404     18400     18399     18402     18410
     18401     18399     18402     18403     18401     18399     18402     18404
     18401     18399     18402     18410     18402     18404     18405     18406
     18402     18404     18405     18407     18402     18410     18413     18414
     18403     18402     18404     18405     18403     18402     18410     18411
     18403     18402     18410     18412     18403     18402     18410     18413
     18404     18402     18410     18411     18404     18402     18410     18412
     18404     18402     18410     18413     18404     18405     18407     18408
     18404     18405     18407     18409     18404     18405     18407     18419
     18405     18404     18402     18410     18405     18407     18419     18420
     18405     18407     18419     18421     18405     18407     18419     18422
     18406     18405     18407     18408     18406     18405     18407     18409
     18406     18405     18407     18419     18407     18419     18422     18423
     18407     18419     18422     18424     18407     18419     18422     18425
     18408     18407     18419     18420     18408     18407     18419     18421
     18408     18407     18419     18422     18409     18407     18419     18420
     18409     18407     18419     18421     18409     18407     18419     18422
     18410     18413     18414     18415     18410     18413     18414     18416
     18411     18410     18413     18414     18412     18410     18413     18414
     18413     18414     18416     18417     18413     18414     18416     18418
     18413     18414     18416     18466     18414     18416     18466     18467
     18414     18416     18466     18468     18414     18416     18466     18469
     18415     18414     18416     18417     18415     18414     18416     18418
     18415     18414     18416     18466     18416     18466     18469     18470
     18416     18466     18469     18471     18416     18466     18469     18472
     18417     18416     18466     18467     18417     18416     18466     18468
     18417     18416     18466     18469     18418     18416     18466     18467
     18418     18416     18466     18468     18418     18416     18466     18469
     18419     18422     18425     18426     18419     18422     18425     18427
     18419     18422     18425     18428     18420     18419     18422     18423
     18420     18419     18422     18424     18420     18419     18422     18425
     18421     18419     18422     18423     18421     18419     18422     18424
     18421     18419     18422     18425     18422     18425     18428     18429
     18422     18425     18428     18430     18422     18425     18428     18431
     18423     18422     18425     18426     18423     18422     18425     18427
     18423     18422     18425     18428     18424     18422     18425     18426
     18424     18422     18425     18427     18424     18422     18425     18428
     18425     18428     18431     18432     18425     18428     18431     18433
     18425     18428     18431     18434     18426     18425     18428     18429
     18426     18425     18428     18430     18426     18425     18428     18431
     18427     18425     18428     18429     18427     18425     18428     18430
     18427     18425     18428     18431     18428     18431     18434     18435
     18428     18431     18434     18436     18428     18431     18434     18437
     18429     18428     18431     18432     18429     18428     18431     18433
     18429     18428     18431     18434     18430     18428     18431     18432
     18430     18428     18431     18433     18430     18428     18431     18434
     18431     18434     18437     18438     18431     18434     18437     18439
     18432     18431     18434     18435     18432     18431     18434     18436
     18432     18431     18434     18437     18433     18431     18434     18435
     18433     18431     18434     18436     18433     18431     18434     18437
     18434     18437     18439     18440     18434     18437     18439     18441
     18435     18434     18437     18438     18435     18434     18437     18439
     18436     18434     18437     18438     18436     18434     18437     18439
     18437     18439     18441     18442     18437     18439     18441     18443
     18437     18439     18441     18444     18438     18437     18439     18440
     18438     18437     18439     18441     18439     18441     18444     18445
     18439     18441     18444     18446     18439     18441     18444     18447
     18440     18439     18441     18442     18440     18439     18441     18443
     18440     18439     18441     18444     18441     18444     18447     18448
     18441     18444     18447     18449     18441     18444     18447     18450
     18442     18441     18444     18445     18442     18441     18444     18446
     18442     18441     18444     18447     18443     18441     18444     18445
     18443     18441     18444     18446     18443     18441     18444     18447
     18444     18447     18450     18451     18444     18447     18450     18452
     18444     18447     18450     18453     18445     18444     18447     18448
     18445     18444     18447     18449     18445     18444     18447     18450
     18446     18444     18447     18448     18446     18444     18447     18449
     18446     18444     18447     18450     18447     18450     18453     18454
     18447     18450     18453     18455     18447     18450     18453     18456
     18448     18447     18450     18451     18448     18447     18450     18452
     18448     18447     18450     18453     18449     18447     18450     18451
     18449     18447     18450     18452     18449     18447     18450     18453
     18450     18453     18456     18457     18450     18453     18456     18458
     18450     18453     18456     18459     18451     18450     18453     18454
     18451     18450     18453     18455     18451     18450     18453     18456
     18452     18450     18453     18454     18452     18450     18453     18455
     18452     18450     18453     18456     18453     18456     18459     18460
     18453     18456     18459     18461     18453     18456     18459     18462
     18454     18453     18456     18457     18454     18453     18456     18458
     18454     18453     18456     18459     18455     18453     18456     18457
     18455     18453     18456     18458     18455     18453     18456     18459
     18456     18459     18462     18463     18456     18459     18462     18464
     18456     18459     18462     18465     18457     18456     18459     18460
     18457     18456     18459     18461     18457     18456     18459     18462
     18458     18456     18459     18460     18458     18456     18459     18461
     18458     18456     18459     18462     18460     18459     18462     18463
     18460     18459     18462     18464     18460     18459     18462     18465
     18461     18459     18462     18463     18461     18459     18462     18464
     18461     18459     18462     18465     18466     18469     18472     18473
     18466     18469     18472     18474     18466     18469     18472     18475
     18467     18466     18469     18470     18467     18466     18469     18471
     18467     18466     18469     18472     18468     18466     18469     18470
     18468     18466     18469     18471     18468     18466     18469     18472
     18469     18472     18475     18476     18469     18472     18475     18477
     18469     18472     18475     18478     18470     18469     18472     18473
     18470     18469     18472     18474     18470     18469     18472     18475
     18471     18469     18472     18473     18471     18469     18472     18474
     18471     18469     18472     18475     18472     18475     18478     18479
     18472     18475     18478     18480     18472     18475     18478     18481
     18473     18472     18475     18476     18473     18472     18475     18477
     18473     18472     18475     18478     18474     18472     18475     18476
     18474     18472     18475     18477     18474     18472     18475     18478
     18475     18478     18481     18482     18475     18478     18481     18483
     18475     18478     18481     18484     18476     18475     18478     18479
     18476     18475     18478     18480     18476     18475     18478     18481
     18477     18475     18478     18479     18477     18475     18478     18480
     18477     18475     18478     18481     18478     18481     18484     18485
     18478     18481     18484     18486     18478     18481     18484     18487
     18479     18478     18481     18482     18479     18478     18481     18483
     18479     18478     18481     18484     18480     18478     18481     18482
     18480     18478     18481     18483     18480     18478     18481     18484
     18481     18484     18487     18488     18481     18484     18487     18489
     18481     18484     18487     18490     18482     18481     18484     18485
     18482     18481     18484     18486     18482     18481     18484     18487
     18483     18481     18484     18485     18483     18481     18484     18486
     18483     18481     18484     18487     18484     18487     18490     18491
     18484     18487     18490     18492     18484     18487     18490     18493
     18485     18484     18487     18488     18485     18484     18487     18489
     18485     18484     18487     18490     18486     18484     18487     18488
     18486     18484     18487     18489     18486     18484     18487     18490
     18487     18490     18493     18494     18487     18490     18493     18495
     18487     18490     18493     18496     18488     18487     18490     18491
     18488     18487     18490     18492     18488     18487     18490     18493
     18489     18487     18490     18491     18489     18487     18490     18492
     18489     18487     18490     18493     18490     18493     18496     18497
     18490     18493     18496     18498     18490     18493     18496     18499
     18491     18490     18493     18494     18491     18490     18493     18495
     18491     18490     18493     18496     18492     18490     18493     18494
     18492     18490     18493     18495     18492     18490     18493     18496
     18493     18496     18499     18500     18493     18496     18499     18501
     18493     18496     18499     18502     18494     18493     18496     18497
     18494     18493     18496     18498     18494     18493     18496     18499
     18495     18493     18496     18497     18495     18493     18496     18498
     18495     18493     18496     18499     18496     18499     18502     18503
     18496     18499     18502     18504     18496     18499     18502     18505
     18497     18496     18499     18500     18497     18496     18499     18501
     18497     18496     18499     18502     18498     18496     18499     18500
     18498     18496     18499     18501     18498     18496     18499     18502
     18499     18502     18505     18506     18499     18502     18505     18507
     18499     18502     18505     18508     18500     18499     18502     18503
     18500     18499     18502     18504     18500     18499     18502     18505
     18501     18499     18502     18503     18501     18499     18502     18504
     18501     18499     18502     18505     18503     18502     18505     18506
     18503     18502     18505     18507     18503     18502     18505     18508
     18504     18502     18505     18506     18504     18502     18505     18507
     18504     18502     18505     18508      1333      1337      1340      1341
      1333      1337      1340      1371      1333      1379      1376      1371
      1333      1379      1376      1377      1333      1379      1376      1378
      1334      1333      1335      1336      1334      1333      1337      1338
      1334      1333      1337      1339      1334      1333      1337      1340
      1334      1333      1379      1376      1334      1333      1379      1380
      1334      1333      1379      1381      1335      1333      1337      1338
      1335      1333      1337      1339      1335      1333      1337      1340
      1335      1333      1379      1376      1335      1333      1379      1380
      1335      1333      1379      1381      1336      1335      1333      1337
      1336      1335      1333      1379      1337      1333      1379      1376
      1337      1333      1379      1380      1337      1333      1379      1381
      1337      1340      1341      1342      1337      1340      1341      1343
      1337      1340      1371      1369      1337      1340      1371      1372
      1337      1340      1371      1376      1338      1337      1333      1379
      1338      1337      1340      1341      1338      1337      1340      1371
      1339      1337      1333      1379      1339      1337      1340      1341
      1339      1337      1340      1371      1340      1337      1333      1379
      1340      1341      1343      1344      1340      1341      1343      1345
      1340      1341      1343      1346      1340      1371      1369      1346
      1340      1371      1369      1366      1340      1371      1369      1370
      1340      1371      1372      1373      1340      1371      1372      1374
      1340      1371      1372      1375      1340      1371      1376      1377
      1340      1371      1376      1378      1340      1371      1376      1379
      1341      1340      1371      1369      1341      1340      1371      1372
      1341      1340      1371      1376      1341      1343      1346      1347
      1341      1343      1346      1348      1341      1343      1346      1369
      1342      1341      1340      1371      1342      1341      1343      1344
      1342      1341      1343      1345      1342      1341      1343      1346
      1343      1341      1340      1371      1343      1346      1348      1349
      1343      1346      1348      1350      1343      1346      1348      1358
      1343      1346      1369      1366      1343      1346      1369      1370
      1343      1346      1369      1371      1344      1343      1346      1347
      1344      1343      1346      1348      1344      1343      1346      1369
      1345      1343      1346      1347      1345      1343      1346      1348
      1345      1343      1346      1369      1346      1348      1350      1351
      1346      1348      1350      1352      1346      1348      1350      1353
      1346      1348      1358      1356      1346      1348      1358      1359
      1346      1348      1358      1363      1346      1369      1366      1363
      1346      1369      1366      1367      1346      1369      1366      1368
      1346      1369      1371      1372      1346      1369      1371      1376
      1347      1346      1348      1349      1347      1346      1348      1350
      1347      1346      1348      1358      1347      1346      1369      1366
      1347      1346      1369      1370      1347      1346      1369      1371
      1348      1346      1369      1366      1348      1346      1369      1370
      1348      1346      1369      1371      1348      1350      1353      1354
      1348      1350      1353      1355      1348      1350      1353      1356
      1348      1358      1356      1353      1348      1358      1356      1357
      1348      1358      1356      1382      1348      1358      1359      1360
      1348      1358      1359      1361      1348      1358      1359      1362
      1348      1358      1363      1364      1348      1358      1363      1365
      1348      1358      1363      1366      1349      1348      1346      1369
      1349      1348      1350      1351      1349      1348      1350      1352
      1349      1348      1350      1353      1349      1348      1358      1356
      1349      1348      1358      1359      1349      1348      1358      1363
      1350      1348      1346      1369      1350      1348      1358      1356
      1350      1348      1358      1359      1350      1348      1358      1363
      1350      1353      1356      1357      1350      1353      1356      1358
      1350      1353      1356      1382      1351      1350      1348      1358
      1351      1350      1353      1354      1351      1350      1353      1355
      1351      1350      1353      1356      1352      1350      1348      1358
      1352      1350      1353      1354      1352      1350      1353      1355
      1352      1350      1353      1356      1353      1350      1348      1358
      1353      1356      1358      1359      1353      1356      1358      1363
      1353      1356      1382      1383      1353      1356      1382      1384
      1353      1356      1382      1388      1354      1353      1356      1357
      1354      1353      1356      1358      1354      1353      1356      1382
      1355      1353      1356      1357      1355      1353      1356      1358
      1355      1353      1356      1382      1356      1358      1359      1360
      1356      1358      1359      1361      1356      1358      1359      1362
      1356      1358      1363      1364      1356      1358      1363      1365
      1356      1358      1363      1366      1356      1382      1384      1385
      1356      1382      1384      1386      1356      1382      1384      1387
      1356      1382      1388      1389      1356      1382      1388      1390
      1356      1382      1388      1391      1357      1356      1358      1359
      1357      1356      1358      1363      1357      1356      1382      1383
      1357      1356      1382      1384      1357      1356      1382      1388
      1358      1348      1346      1369      1358      1356      1382      1383
      1358      1356      1382      1384      1358      1356      1382      1388
      1358      1363      1366      1367      1358      1363      1366      1368
      1358      1363      1366      1369      1359      1358      1356      1382
      1359      1358      1363      1364      1359      1358      1363      1365
      1359      1358      1363      1366      1360      1359      1358      1363
      1361      1359      1358      1363      1362      1359      1358      1363
      1363      1358      1356      1382      1363      1366      1369      1370
      1363      1366      1369      1371      1364      1363      1366      1367
      1364      1363      1366      1368      1364      1363      1366      1369
      1365      1363      1366      1367      1365      1363      1366      1368
      1365      1363      1366      1369      1366      1369      1371      1372
      1366      1369      1371      1376      1367      1366      1369      1370
      1367      1366      1369      1371      1368      1366      1369      1370
      1368      1366      1369      1371      1369      1371      1372      1373
      1369      1371      1372      1374      1369      1371      1372      1375
      1369      1371      1376      1377      1369      1371      1376      1378
      1369      1371      1376      1379      1370      1369      1371      1372
      1370      1369      1371      1376      1371      1376      1379      1380
      1371      1376      1379      1381      1372      1371      1376      1377
      1372      1371      1376      1378      1372      1371      1376      1379
      1373      1372      1371      1376      1374      1372      1371      1376
      1375      1372      1371      1376      1377      1376      1379      1380
      1377      1376      1379      1381      1378      1376      1379      1380
      1378      1376      1379      1381      1382      1388      1391      1392
      1382      1388      1391      1393      1382      1388      1391      1394
      1383      1382      1384      1385      1383      1382      1384      1386
      1383      1382      1384      1387      1383      1382      1388      1389
      1383      1382      1388      1390      1383      1382      1388      1391
      1384      1382      1388      1389      1384      1382      1388      1390
      1384      1382      1388      1391      1385      1384      1382      1388
      1386      1384      1382      1388      1387      1384      1382      1388
      1388      1391      1394      1395      1388      1391      1394      1396
      1388      1391      1394      1397      1389      1388      1391      1392
      1389      1388      1391      1393      1389      1388      1391      1394
      1390      1388      1391      1392      1390      1388      1391      1393
      1390      1388      1391      1394      1391      1394      1397      1398
      1391      1394      1397      1399      1391      1394      1397      1403
      1392      1391      1394      1395      1392      1391      1394      1396
      1392      1391      1394      1397      1393      1391      1394      1395
      1393      1391      1394      1396      1393      1391      1394      1397
      1394      1397      1399      1400      1394      1397      1399      1401
      1394      1397      1399      1402      1394      1397      1403      1404
      1394      1397      1403      1405      1394      1397      1403      1406
      1395      1394      1397      1398      1395      1394      1397      1399
      1395      1394      1397      1403      1396      1394      1397      1398
      1396      1394      1397      1399      1396      1394      1397      1403
      1398      1397      1399      1400      1398      1397      1399      1401
      1398      1397      1399      1402      1398      1397      1403      1404
      1398      1397      1403      1405      1398      1397      1403      1406
      1399      1397      1403      1404      1399      1397      1403      1405
      1399      1397      1403      1406      1400      1399      1397      1403
      1401      1399      1397      1403      1402      1399      1397      1403
     23596     23609     23612     23613     23596     23609     23612     23614
     23596     23609     23612     23619     23597     23596     23601     23602
     23597     23596     23601     23603     23597     23596     23601     23604
     23597     23596     23605     23606     23597     23596     23605     23607
     23597     23596     23605     23608     23597     23596     23609     23610
     23597     23596     23609     23611     23597     23596     23609     23612
     23598     23597     23596     23601     23598     23597     23596     23605
     23598     23597     23596     23609     23599     23597     23596     23601
     23599     23597     23596     23605     23599     23597     23596     23609
     23600     23597     23596     23601     23600     23597     23596     23605
     23600     23597     23596     23609     23601     23596     23605     23606
     23601     23596     23605     23607     23601     23596     23605     23608
     23601     23596     23609     23610     23601     23596     23609     23611
     23601     23596     23609     23612     23602     23601     23596     23605
     23602     23601     23596     23609     23603     23601     23596     23605
     23603     23601     23596     23609     23604     23601     23596     23605
     23604     23601     23596     23609     23605     23596     23609     23610
     23605     23596     23609     23611     23605     23596     23609     23612
     23606     23605     23596     23609     23607     23605     23596     23609
     23608     23605     23596     23609     23609     23612     23619     23615
     23610     23609     23612     23613     23610     23609     23612     23614
     23610     23609     23612     23619     23611     23609     23612     23613
     23611     23609     23612     23614     23611     23609     23612     23619
     23612     23619     23615     23616     23612     23619     23615     23617
     23612     23619     23615     23618     23613     23612     23619     23615
     23614     23612     23619     23615     23615     23618     23620     23621
     23615     23618     23620     23622     23615     23618     23620     23625
     23616     23615     23618     23620     23617     23615     23618     23620
     23618     23620     23625     23623     23618     23620     23625     23626
     23618     23620     23625     23627     23619     23615     23618     23620
     23620     23625     23623     23624     23620     23625     23623     23675
     23620     23625     23627     23628     23620     23625     23627     23629
     23620     23625     23627     23631     23621     23620     23625     23623
     23621     23620     23625     23626     23621     23620     23625     23627
     23622     23620     23625     23623     23622     23620     23625     23626
     23622     23620     23625     23627     23623     23625     23627     23628
     23623     23625     23627     23629     23623     23625     23627     23631
     23623     23675     23677     23678     23623     23675     23677     23679
     23623     23675     23677     23680     23624     23623     23625     23626
     23624     23623     23625     23627     23624     23623     23675     23676
     23624     23623     23675     23677     23625     23623     23675     23676
     23625     23623     23675     23677     23625     23627     23629     23630
     23625     23627     23631     23632     23625     23627     23631     23633
     23626     23625     23623     23675     23626     23625     23627     23628
     23626     23625     23627     23629     23626     23625     23627     23631
     23627     23625     23623     23675     23627     23631     23633     23634
     23627     23631     23633     23635     23628     23627     23629     23630
     23628     23627     23631     23632     23628     23627     23631     23633
     23629     23627     23631     23632     23629     23627     23631     23633
     23630     23629     23627     23631     23631     23633     23635     23636
     23631     23633     23635     23637     23631     23633     23635     23638
     23632     23631     23633     23634     23632     23631     23633     23635
     23633     23635     23638     23639     23633     23635     23638     23640
     23633     23635     23638     23641     23634     23633     23635     23636
     23634     23633     23635     23637     23634     23633     23635     23638
     23635     23638     23641     23642     23635     23638     23641     23643
     23635     23638     23641     23644     23636     23635     23638     23639
     23636     23635     23638     23640     23636     23635     23638     23641
     23637     23635     23638     23639     23637     23635     23638     23640
     23637     23635     23638     23641     23638     23641     23644     23645
     23638     23641     23644     23646     23638     23641     23644     23647
     23639     23638     23641     23642     23639     23638     23641     23643
     23639     23638     23641     23644     23640     23638     23641     23642
     23640     23638     23641     23643     23640     23638     23641     23644
     23641     23644     23647     23648     23641     23644     23647     23649
     23641     23644     23647     23650     23642     23641     23644     23645
     23642     23641     23644     23646     23642     23641     23644     23647
     23643     23641     23644     23645     23643     23641     23644     23646
     23643     23641     23644     23647     23644     23647     23650     23651
     23644     23647     23650     23652     23644     23647     23650     23653
     23645     23644     23647     23648     23645     23644     23647     23649
     23645     23644     23647     23650     23646     23644     23647     23648
     23646     23644     23647     23649     23646     23644     23647     23650
     23647     23650     23653     23654     23647     23650     23653     23655
     23647     23650     23653     23656     23648     23647     23650     23651
     23648     23647     23650     23652     23648     23647     23650     23653
     23649     23647     23650     23651     23649     23647     23650     23652
     23649     23647     23650     23653     23650     23653     23656     23657
     23650     23653     23656     23658     23650     23653     23656     23659
     23651     23650     23653     23654     23651     23650     23653     23655
     23651     23650     23653     23656     23652     23650     23653     23654
     23652     23650     23653     23655     23652     23650     23653     23656
     23653     23656     23659     23660     23653     23656     23659     23661
     23653     23656     23659     23662     23654     23653     23656     23657
     23654     23653     23656     23658     23654     23653     23656     23659
     23655     23653     23656     23657     23655     23653     23656     23658
     23655     23653     23656     23659     23656     23659     23662     23663
     23656     23659     23662     23664     23656     23659     23662     23665
     23657     23656     23659     23660     23657     23656     23659     23661
     23657     23656     23659     23662     23658     23656     23659     23660
     23658     23656     23659     23661     23658     23656     23659     23662
     23659     23662     23665     23666     23659     23662     23665     23667
     23659     23662     23665     23668     23660     23659     23662     23663
     23660     23659     23662     23664     23660     23659     23662     23665
     23661     23659     23662     23663     23661     23659     23662     23664
     23661     23659     23662     23665     23662     23665     23668     23669
     23662     23665     23668     23670     23662     23665     23668     23671
     23663     23662     23665     23666     23663     23662     23665     23667
     23663     23662     23665     23668     23664     23662     23665     23666
     23664     23662     23665     23667     23664     23662     23665     23668
     23665     23668     23671     23672     23665     23668     23671     23673
     23665     23668     23671     23674     23666     23665     23668     23669
     23666     23665     23668     23670     23666     23665     23668     23671
     23667     23665     23668     23669     23667     23665     23668     23670
     23667     23665     23668     23671     23669     23668     23671     23672
     23669     23668     23671     23673     23669     23668     23671     23674
     23670     23668     23671     23672     23670     23668     23671     23673
     23670     23668     23671     23674     23675     23677     23680     23681
     23675     23677     23680     23682     23675     23677     23680     23683
     23676     23675     23677     23678     23676     23675     23677     23679
     23676     23675     23677     23680     23677     23680     23683     23684
     23677     23680     23683     23685     23677     23680     23683     23686
     23678     23677     23680     23681     23678     23677     23680     23682
     23678     23677     23680     23683     23679     23677     23680     23681
     23679     23677     23680     23682     23679     23677     23680     23683
     23680     23683     23686     23687     23680     23683     23686     23688
     23680     23683     23686     23689     23681     23680     23683     23684
     23681     23680     23683     23685     23681     23680     23683     23686
     23682     23680     23683     23684     23682     23680     23683     23685
     23682     23680     23683     23686     23683     23686     23689     23690
     23683     23686     23689     23691     23683     23686     23689     23692
     23684     23683     23686     23687     23684     23683     23686     23688
     23684     23683     23686     23689     23685     23683     23686     23687
     23685     23683     23686     23688     23685     23683     23686     23689
     23686     23689     23692     23693     23686     23689     23692     23694
     23686     23689     23692     23695     23687     23686     23689     23690
     23687     23686     23689     23691     23687     23686     23689     23692
     23688     23686     23689     23690     23688     23686     23689     23691
     23688     23686     23689     23692     23689     23692     23695     23696
     23689     23692     23695     23697     23689     23692     23695     23698
     23690     23689     23692     23693     23690     23689     23692     23694
     23690     23689     23692     23695     23691     23689     23692     23693
     23691     23689     23692     23694     23691     23689     23692     23695
     23692     23695     23698     23699     23692     23695     23698     23700
     23692     23695     23698     23701     23693     23692     23695     23696
     23693     23692     23695     23697     23693     23692     23695     23698
     23694     23692     23695     23696     23694     23692     23695     23697
     23694     23692     23695     23698     23695     23698     23701     23702
     23695     23698     23701     23703     23695     23698     23701     23704
     23696     23695     23698     23699     23696     23695     23698     23700
     23696     23695     23698     23701     23697     23695     23698     23699
     23697     23695     23698     23700     23697     23695     23698     23701
     23698     23701     23704     23705     23698     23701     23704     23706
     23698     23701     23704     23707     23699     23698     23701     23702
     23699     23698     23701     23703     23699     23698     23701     23704
     23700     23698     23701     23702     23700     23698     23701     23703
     23700     23698     23701     23704     23701     23704     23707     23708
     23701     23704     23707     23709     23701     23704     23707     23710
     23702     23701     23704     23705     23702     23701     23704     23706
     23702     23701     23704     23707     23703     23701     23704     23705
     23703     23701     23704     23706     23703     23701     23704     23707
     23704     23707     23710     23711     23704     23707     23710     23712
     23704     23707     23710     23713     23705     23704     23707     23708
     23705     23704     23707     23709     23705     23704     23707     23710
     23706     23704     23707     23708     23706     23704     23707     23709
     23706     23704     23707     23710     23707     23710     23713     23714
     23707     23710     23713     23715     23707     23710     23713     23716
     23708     23707     23710     23711     23708     23707     23710     23712
     23708     23707     23710     23713     23709     23707     23710     23711
     23709     23707     23710     23712     23709     23707     23710     23713
     23710     23713     23716     23717     23710     23713     23716     23718
     23710     23713     23716     23719     23711     23710     23713     23714
     23711     23710     23713     23715     23711     23710     23713     23716
     23712     23710     23713     23714     23712     23710     23713     23715
     23712     23710     23713     23716     23713     23716     23719     23720
     23713     23716     23719     23721     23713     23716     23719     23722
     23714     23713     23716     23717     23714     23713     23716     23718
     23714     23713     23716     23719     23715     23713     23716     23717
     23715     23713     23716     23718     23715     23713     23716     23719
     23717     23716     23719     23720     23717     23716     23719     23721
     23717     23716     23719     23722     23718     23716     23719     23720
     23718     23716     23719     23721     23718     23716     23719     23722
     11519     11523     11525     11526     11519     11523     11525     11527
     11519     11523     11528     11529     11519     11523     11528     11530
     11519     11523     11528     11534     11520     11519     11523     11524
     11520     11519     11523     11525     11520     11519     11523     11528
     11521     11519     11523     11524     11521     11519     11523     11525
     11521     11519     11523     11528     11522     11519     11523     11524
     11522     11519     11523     11525     11522     11519     11523     11528
     11523     11528     11534     11531     11524     11523     11525     11526
     11524     11523     11525     11527     11524     11523     11528     11529
     11524     11523     11528     11530     11524     11523     11528     11534
     11525     11523     11528     11529     11525     11523     11528     11530
     11525     11523     11528     11534     11526     11525     11523     11528
     11527     11525     11523     11528     11528     11534     11531     11532
     11528     11534     11531     11533     11528     11534     11531     11535
     11529     11528     11534     11531     11530     11528     11534     11531
     11531     11535     11536     11537     11531     11535     11536     11538
     11531     11535     11536     11539     11532     11531     11535     11536
     11533     11531     11535     11536     11534     11531     11535     11536
     11535     11536     11539     11540     11535     11536     11539     11541
     11535     11536     11539     11547     11536     11539     11541     11542
     11536     11539     11547     11548     11536     11539     11547     11549
     11536     11539     11547     11550     11537     11536     11539     11540
     11537     11536     11539     11541     11537     11536     11539     11547
     11538     11536     11539     11540     11538     11536     11539     11541
     11538     11536     11539     11547     11539     11541     11542     11543
     11539     11541     11542     11544     11539     11547     11550     11551
     11540     11539     11541     11542     11540     11539     11547     11548
     11540     11539     11547     11549     11540     11539     11547     11550
     11541     11539     11547     11548     11541     11539     11547     11549
     11541     11539     11547     11550     11541     11542     11544     11545
     11541     11542     11544     11546     11541     11542     11544     11556
     11542     11541     11539     11547     11542     11544     11556     11557
     11542     11544     11556     11558     11542     11544     11556     11559
     11543     11542     11544     11545     11543     11542     11544     11546
     11543     11542     11544     11556     11544     11556     11559     11560
     11544     11556     11559     11561     11544     11556     11559     11562
     11545     11544     11556     11557     11545     11544     11556     11558
     11545     11544     11556     11559     11546     11544     11556     11557
     11546     11544     11556     11558     11546     11544     11556     11559
     11547     11550     11551     11552     11547     11550     11551     11553
     11548     11547     11550     11551     11549     11547     11550     11551
     11550     11551     11553     11554     11550     11551     11553     11555
     11550     11551     11553     11603     11551     11553     11603     11604
     11551     11553     11603     11605     11551     11553     11603     11606
     11552     11551     11553     11554     11552     11551     11553     11555
     11552     11551     11553     11603     11553     11603     11606     11607
     11553     11603     11606     11608     11553     11603     11606     11609
     11554     11553     11603     11604     11554     11553     11603     11605
     11554     11553     11603     11606     11555     11553     11603     11604
     11555     11553     11603     11605     11555     11553     11603     11606
     11556     11559     11562     11563     11556     11559     11562     11564
     11556     11559     11562     11565     11557     11556     11559     11560
     11557     11556     11559     11561     11557     11556     11559     11562
     11558     11556     11559     11560     11558     11556     11559     11561
     11558     11556     11559     11562     11559     11562     11565     11566
     11559     11562     11565     11567     11559     11562     11565     11568
     11560     11559     11562     11563     11560     11559     11562     11564
     11560     11559     11562     11565     11561     11559     11562     11563
     11561     11559     11562     11564     11561     11559     11562     11565
     11562     11565     11568     11569     11562     11565     11568     11570
     11562     11565     11568     11571     11563     11562     11565     11566
     11563     11562     11565     11567     11563     11562     11565     11568
     11564     11562     11565     11566     11564     11562     11565     11567
     11564     11562     11565     11568     11565     11568     11571     11572
     11565     11568     11571     11573     11565     11568     11571     11574
     11566     11565     11568     11569     11566     11565     11568     11570
     11566     11565     11568     11571     11567     11565     11568     11569
     11567     11565     11568     11570     11567     11565     11568     11571
     11568     11571     11574     11575     11568     11571     11574     11576
     11569     11568     11571     11572     11569     11568     11571     11573
     11569     11568     11571     11574     11570     11568     11571     11572
     11570     11568     11571     11573     11570     11568     11571     11574
     11571     11574     11576     11577     11571     11574     11576     11578
     11572     11571     11574     11575     11572     11571     11574     11576
     11573     11571     11574     11575     11573     11571     11574     11576
     11574     11576     11578     11579     11574     11576     11578     11580
     11574     11576     11578     11581     11575     11574     11576     11577
     11575     11574     11576     11578     11576     11578     11581     11582
     11576     11578     11581     11583     11576     11578     11581     11584
     11577     11576     11578     11579     11577     11576     11578     11580
     11577     11576     11578     11581     11578     11581     11584     11585
     11578     11581     11584     11586     11578     11581     11584     11587
     11579     11578     11581     11582     11579     11578     11581     11583
     11579     11578     11581     11584     11580     11578     11581     11582
     11580     11578     11581     11583     11580     11578     11581     11584
     11581     11584     11587     11588     11581     11584     11587     11589
     11581     11584     11587     11590     11582     11581     11584     11585
     11582     11581     11584     11586     11582     11581     11584     11587
     11583     11581     11584     11585     11583     11581     11584     11586
     11583     11581     11584     11587     11584     11587     11590     11591
     11584     11587     11590     11592     11584     11587     11590     11593
     11585     11584     11587     11588     11585     11584     11587     11589
     11585     11584     11587     11590     11586     11584     11587     11588
     11586     11584     11587     11589     11586     11584     11587     11590
     11587     11590     11593     11594     11587     11590     11593     11595
     11587     11590     11593     11596     11588     11587     11590     11591
     11588     11587     11590     11592     11588     11587     11590     11593
     11589     11587     11590     11591     11589     11587     11590     11592
     11589     11587     11590     11593     11590     11593     11596     11597
     11590     11593     11596     11598     11590     11593     11596     11599
     11591     11590     11593     11594     11591     11590     11593     11595
     11591     11590     11593     11596     11592     11590     11593     11594
     11592     11590     11593     11595     11592     11590     11593     11596
     11593     11596     11599     11600     11593     11596     11599     11601
     11593     11596     11599     11602     11594     11593     11596     11597
     11594     11593     11596     11598     11594     11593     11596     11599
     11595     11593     11596     11597     11595     11593     11596     11598
     11595     11593     11596     11599     11597     11596     11599     11600
     11597     11596     11599     11601     11597     11596     11599     11602
     11598     11596     11599     11600     11598     11596     11599     11601
     11598     11596     11599     11602     11603     11606     11609     11610
     11603     11606     11609     11611     11603     11606     11609     11612
     11604     11603     11606     11607     11604     11603     11606     11608
     11604     11603     11606     11609     11605     11603     11606     11607
     11605     11603     11606     11608     11605     11603     11606     11609
     11606     11609     11612     11613     11606     11609     11612     11614
     11606     11609     11612     11615     11607     11606     11609     11610
     11607     11606     11609     11611     11607     11606     11609     11612
     11608     11606     11609     11610     11608     11606     11609     11611
     11608     11606     11609     11612     11609     11612     11615     11616
     11609     11612     11615     11617     11609     11612     11615     11618
     11610     11609     11612     11613     11610     11609     11612     11614
     11610     11609     11612     11615     11611     11609     11612     11613
     11611     11609     11612     11614     11611     11609     11612     11615
     11612     11615     11618     11619     11612     11615     11618     11620
     11612     11615     11618     11621     11613     11612     11615     11616
     11613     11612     11615     11617     11613     11612     11615     11618
     11614     11612     11615     11616     11614     11612     11615     11617
     11614     11612     11615     11618     11615     11618     11621     11622
     11615     11618     11621     11623     11615     11618     11621     11624
     11616     11615     11618     11619     11616     11615     11618     11620
     11616     11615     11618     11621     11617     11615     11618     11619
     11617     11615     11618     11620     11617     11615     11618     11621
     11618     11621     11624     11625     11618     11621     11624     11626
     11618     11621     11624     11627     11619     11618     11621     11622
     11619     11618     11621     11623     11619     11618     11621     11624
     11620     11618     11621     11622     11620     11618     11621     11623
     11620     11618     11621     11624     11621     11624     11627     11628
     11621     11624     11627     11629     11621     11624     11627     11630
     11622     11621     11624     11625     11622     11621     11624     11626
     11622     11621     11624     11627     11623     11621     11624     11625
     11623     11621     11624     11626     11623     11621     11624     11627
     11624     11627     11630     11631     11624     11627     11630     11632
     11624     11627     11630     11633     11625     11624     11627     11628
     11625     11624     11627     11629     11625     11624     11627     11630
     11626     11624     11627     11628     11626     11624     11627     11629
     11626     11624     11627     11630     11627     11630     11633     11634
     11627     11630     11633     11635     11627     11630     11633     11636
     11628     11627     11630     11631     11628     11627     11630     11632
     11628     11627     11630     11633     11629     11627     11630     11631
     11629     11627     11630     11632     11629     11627     11630     11633
     11630     11633     11636     11637     11630     11633     11636     11638
     11630     11633     11636     11639     11631     11630     11633     11634
     11631     11630     11633     11635     11631     11630     11633     11636
     11632     11630     11633     11634     11632     11630     11633     11635
     11632     11630     11633     11636     11633     11636     11639     11640
     11633     11636     11639     11641     11633     11636     11639     11642
     11634     11633     11636     11637     11634     11633     11636     11638
     11634     11633     11636     11639     11635     11633     11636     11637
     11635     11633     11636     11638     11635     11633     11636     11639
     11636     11639     11642     11643     11636     11639     11642     11644
     11636     11639     11642     11645     11637     11636     11639     11640
     11637     11636     11639     11641     11637     11636     11639     11642
     11638     11636     11639     11640     11638     11636     11639     11641
     11638     11636     11639     11642     11640     11639     11642     11643
     11640     11639     11642     11644     11640     11639     11642     11645
     11641     11639     11642     11643     11641     11639     11642     11644
     11641     11639     11642     11645     23723     23736     23739     23740
     23723     23736     23739     23741     23723     23736     23739     23746
     23724     23723     23728     23729     23724     23723     23728     23730
     23724     23723     23728     23731     23724     23723     23732     23733
     23724     23723     23732     23734     23724     23723     23732     23735
     23724     23723     23736     23737     23724     23723     23736     23738
     23724     23723     23736     23739     23725     23724     23723     23728
     23725     23724     23723     23732     23725     23724     23723     23736
     23726     23724     23723     23728     23726     23724     23723     23732
     23726     23724     23723     23736     23727     23724     23723     23728
     23727     23724     23723     23732     23727     23724     23723     23736
     23728     23723     23732     23733     23728     23723     23732     23734
     23728     23723     23732     23735     23728     23723     23736     23737
     23728     23723     23736     23738     23728     23723     23736     23739
     23729     23728     23723     23732     23729     23728     23723     23736
     23730     23728     23723     23732     23730     23728     23723     23736
     23731     23728     23723     23732     23731     23728     23723     23736
     23732     23723     23736     23737     23732     23723     23736     23738
     23732     23723     23736     23739     23733     23732     23723     23736
     23734     23732     23723     23736     23735     23732     23723     23736
     23736     23739     23746     23742     23737     23736     23739     23740
     23737     23736     23739     23741     23737     23736     23739     23746
     23738     23736     23739     23740     23738     23736     23739     23741
     23738     23736     23739     23746     23739     23746     23742     23743
     23739     23746     23742     23744     23739     23746     23742     23745
     23740     23739     23746     23742     23741     23739     23746     23742
     23742     23745     23747     23748     23742     23745     23747     23749
     23742     23745     23747     23752     23743     23742     23745     23747
     23744     23742     23745     23747     23745     23747     23752     23750
     23745     23747     23752     23753     23745     23747     23752     23754
     23746     23742     23745     23747     23747     23752     23750     23751
     23747     23752     23750     23802     23747     23752     23754     23755
     23747     23752     23754     23756     23747     23752     23754     23758
     23748     23747     23752     23750     23748     23747     23752     23753
     23748     23747     23752     23754     23749     23747     23752     23750
     23749     23747     23752     23753     23749     23747     23752     23754
     23750     23752     23754     23755     23750     23752     23754     23756
     23750     23752     23754     23758     23750     23802     23804     23805
     23750     23802     23804     23806     23750     23802     23804     23807
     23751     23750     23752     23753     23751     23750     23752     23754
     23751     23750     23802     23803     23751     23750     23802     23804
     23752     23750     23802     23803     23752     23750     23802     23804
     23752     23754     23756     23757     23752     23754     23758     23759
     23752     23754     23758     23760     23753     23752     23750     23802
     23753     23752     23754     23755     23753     23752     23754     23756
     23753     23752     23754     23758     23754     23752     23750     23802
     23754     23758     23760     23761     23754     23758     23760     23762
     23755     23754     23756     23757     23755     23754     23758     23759
     23755     23754     23758     23760     23756     23754     23758     23759
     23756     23754     23758     23760     23757     23756     23754     23758
     23758     23760     23762     23763     23758     23760     23762     23764
     23758     23760     23762     23765     23759     23758     23760     23761
     23759     23758     23760     23762     23760     23762     23765     23766
     23760     23762     23765     23767     23760     23762     23765     23768
     23761     23760     23762     23763     23761     23760     23762     23764
     23761     23760     23762     23765     23762     23765     23768     23769
     23762     23765     23768     23770     23762     23765     23768     23771
     23763     23762     23765     23766     23763     23762     23765     23767
     23763     23762     23765     23768     23764     23762     23765     23766
     23764     23762     23765     23767     23764     23762     23765     23768
     23765     23768     23771     23772     23765     23768     23771     23773
     23765     23768     23771     23774     23766     23765     23768     23769
     23766     23765     23768     23770     23766     23765     23768     23771
     23767     23765     23768     23769     23767     23765     23768     23770
     23767     23765     23768     23771     23768     23771     23774     23775
     23768     23771     23774     23776     23768     23771     23774     23777
     23769     23768     23771     23772     23769     23768     23771     23773
     23769     23768     23771     23774     23770     23768     23771     23772
     23770     23768     23771     23773     23770     23768     23771     23774
     23771     23774     23777     23778     23771     23774     23777     23779
     23771     23774     23777     23780     23772     23771     23774     23775
     23772     23771     23774     23776     23772     23771     23774     23777
     23773     23771     23774     23775     23773     23771     23774     23776
     23773     23771     23774     23777     23774     23777     23780     23781
     23774     23777     23780     23782     23774     23777     23780     23783
     23775     23774     23777     23778     23775     23774     23777     23779
     23775     23774     23777     23780     23776     23774     23777     23778
     23776     23774     23777     23779     23776     23774     23777     23780
     23777     23780     23783     23784     23777     23780     23783     23785
     23777     23780     23783     23786     23778     23777     23780     23781
     23778     23777     23780     23782     23778     23777     23780     23783
     23779     23777     23780     23781     23779     23777     23780     23782
     23779     23777     23780     23783     23780     23783     23786     23787
     23780     23783     23786     23788     23780     23783     23786     23789
     23781     23780     23783     23784     23781     23780     23783     23785
     23781     23780     23783     23786     23782     23780     23783     23784
     23782     23780     23783     23785     23782     23780     23783     23786
     23783     23786     23789     23790     23783     23786     23789     23791
     23783     23786     23789     23792     23784     23783     23786     23787
     23784     23783     23786     23788     23784     23783     23786     23789
     23785     23783     23786     23787     23785     23783     23786     23788
     23785     23783     23786     23789     23786     23789     23792     23793
     23786     23789     23792     23794     23786     23789     23792     23795
     23787     23786     23789     23790     23787     23786     23789     23791
     23787     23786     23789     23792     23788     23786     23789     23790
     23788     23786     23789     23791     23788     23786     23789     23792
     23789     23792     23795     23796     23789     23792     23795     23797
     23789     23792     23795     23798     23790     23789     23792     23793
     23790     23789     23792     23794     23790     23789     23792     23795
     23791     23789     23792     23793     23791     23789     23792     23794
     23791     23789     23792     23795     23792     23795     23798     23799
     23792     23795     23798     23800     23792     23795     23798     23801
     23793     23792     23795     23796     23793     23792     23795     23797
     23793     23792     23795     23798     23794     23792     23795     23796
     23794     23792     23795     23797     23794     23792     23795     23798
     23796     23795     23798     23799     23796     23795     23798     23800
     23796     23795     23798     23801     23797     23795     23798     23799
     23797     23795     23798     23800     23797     23795     23798     23801
     23802     23804     23807     23808     23802     23804     23807     23809
     23802     23804     23807     23810     23803     23802     23804     23805
     23803     23802     23804     23806     23803     23802     23804     23807
     23804     23807     23810     23811     23804     23807     23810     23812
     23804     23807     23810     23813     23805     23804     23807     23808
     23805     23804     23807     23809     23805     23804     23807     23810
     23806     23804     23807     23808     23806     23804     23807     23809
     23806     23804     23807     23810     23807     23810     23813     23814
     23807     23810     23813     23815     23807     23810     23813     23816
     23808     23807     23810     23811     23808     23807     23810     23812
     23808     23807     23810     23813     23809     23807     23810     23811
     23809     23807     23810     23812     23809     23807     23810     23813
     23810     23813     23816     23817     23810     23813     23816     23818
     23810     23813     23816     23819     23811     23810     23813     23814
     23811     23810     23813     23815     23811     23810     23813     23816
     23812     23810     23813     23814     23812     23810     23813     23815
     23812     23810     23813     23816     23813     23816     23819     23820
     23813     23816     23819     23821     23813     23816     23819     23822
     23814     23813     23816     23817     23814     23813     23816     23818
     23814     23813     23816     23819     23815     23813     23816     23817
     23815     23813     23816     23818     23815     23813     23816     23819
     23816     23819     23822     23823     23816     23819     23822     23824
     23816     23819     23822     23825     23817     23816     23819     23820
     23817     23816     23819     23821     23817     23816     23819     23822
     23818     23816     23819     23820     23818     23816     23819     23821
     23818     23816     23819     23822     23819     23822     23825     23826
     23819     23822     23825     23827     23819     23822     23825     23828
     23820     23819     23822     23823     23820     23819     23822     23824
     23820     23819     23822     23825     23821     23819     23822     23823
     23821     23819     23822     23824     23821     23819     23822     23825
     23822     23825     23828     23829     23822     23825     23828     23830
     23822     23825     23828     23831     23823     23822     23825     23826
     23823     23822     23825     23827     23823     23822     23825     23828
     23824     23822     23825     23826     23824     23822     23825     23827
     23824     23822     23825     23828     23825     23828     23831     23832
     23825     23828     23831     23833     23825     23828     23831     23834
     23826     23825     23828     23829     23826     23825     23828     23830
     23826     23825     23828     23831     23827     23825     23828     23829
     23827     23825     23828     23830     23827     23825     23828     23831
     23828     23831     23834     23835     23828     23831     23834     23836
     23828     23831     23834     23837     23829     23828     23831     23832
     23829     23828     23831     23833     23829     23828     23831     23834
     23830     23828     23831     23832     23830     23828     23831     23833
     23830     23828     23831     23834     23831     23834     23837     23838
     23831     23834     23837     23839     23831     23834     23837     23840
     23832     23831     23834     23835     23832     23831     23834     23836
     23832     23831     23834     23837     23833     23831     23834     23835
     23833     23831     23834     23836     23833     23831     23834     23837
     23834     23837     23840     23841     23834     23837     23840     23842
     23834     23837     23840     23843     23835     23834     23837     23838
     23835     23834     23837     23839     23835     23834     23837     23840
     23836     23834     23837     23838     23836     23834     23837     23839
     23836     23834     23837     23840     23837     23840     23843     23844
     23837     23840     23843     23845     23837     23840     23843     23846
     23838     23837     23840     23841     23838     23837     23840     23842
     23838     23837     23840     23843     23839     23837     23840     23841
     23839     23837     23840     23842     23839     23837     23840     23843
     23840     23843     23846     23847     23840     23843     23846     23848
     23840     23843     23846     23849     23841     23840     23843     23844
     23841     23840     23843     23845     23841     23840     23843     23846
     23842     23840     23843     23844     23842     23840     23843     23845
     23842     23840     23843     23846     23844     23843     23846     23847
     23844     23843     23846     23848     23844     23843     23846     23849
     23845     23843     23846     23847     23845     23843     23846     23848
     23845     23843     23846     23849     23850     23863     23866     23867
     23850     23863     23866     23868     23850     23863     23866     23873
     23851     23850     23855     23856     23851     23850     23855     23857
     23851     23850     23855     23858     23851     23850     23859     23860
     23851     23850     23859     23861     23851     23850     23859     23862
     23851     23850     23863     23864     23851     23850     23863     23865
     23851     23850     23863     23866     23852     23851     23850     23855
     23852     23851     23850     23859     23852     23851     23850     23863
     23853     23851     23850     23855     23853     23851     23850     23859
     23853     23851     23850     23863     23854     23851     23850     23855
     23854     23851     23850     23859     23854     23851     23850     23863
     23855     23850     23859     23860     23855     23850     23859     23861
     23855     23850     23859     23862     23855     23850     23863     23864
     23855     23850     23863     23865     23855     23850     23863     23866
     23856     23855     23850     23859     23856     23855     23850     23863
     23857     23855     23850     23859     23857     23855     23850     23863
     23858     23855     23850     23859     23858     23855     23850     23863
     23859     23850     23863     23864     23859     23850     23863     23865
     23859     23850     23863     23866     23860     23859     23850     23863
     23861     23859     23850     23863     23862     23859     23850     23863
     23863     23866     23873     23869     23864     23863     23866     23867
     23864     23863     23866     23868     23864     23863     23866     23873
     23865     23863     23866     23867     23865     23863     23866     23868
     23865     23863     23866     23873     23866     23873     23869     23870
     23866     23873     23869     23871     23866     23873     23869     23872
     23867     23866     23873     23869     23868     23866     23873     23869
     23869     23872     23874     23875     23869     23872     23874     23876
     23869     23872     23874     23879     23870     23869     23872     23874
     23871     23869     23872     23874     23872     23874     23879     23877
     23872     23874     23879     23880     23872     23874     23879     23881
     23873     23869     23872     23874     23874     23879     23877     23878
     23874     23879     23877     23929     23874     23879     23881     23882
     23874     23879     23881     23883     23874     23879     23881     23885
     23875     23874     23879     23877     23875     23874     23879     23880
     23875     23874     23879     23881     23876     23874     23879     23877
     23876     23874     23879     23880     23876     23874     23879     23881
     23877     23879     23881     23882     23877     23879     23881     23883
     23877     23879     23881     23885     23877     23929     23931     23932
     23877     23929     23931     23933     23877     23929     23931     23934
     23878     23877     23879     23880     23878     23877     23879     23881
     23878     23877     23929     23930     23878     23877     23929     23931
     23879     23877     23929     23930     23879     23877     23929     23931
     23879     23881     23883     23884     23879     23881     23885     23886
     23879     23881     23885     23887     23880     23879     23877     23929
     23880     23879     23881     23882     23880     23879     23881     23883
     23880     23879     23881     23885     23881     23879     23877     23929
     23881     23885     23887     23888     23881     23885     23887     23889
     23882     23881     23883     23884     23882     23881     23885     23886
     23882     23881     23885     23887     23883     23881     23885     23886
     23883     23881     23885     23887     23884     23883     23881     23885
     23885     23887     23889     23890     23885     23887     23889     23891
     23885     23887     23889     23892     23886     23885     23887     23888
     23886     23885     23887     23889     23887     23889     23892     23893
     23887     23889     23892     23894     23887     23889     23892     23895
     23888     23887     23889     23890     23888     23887     23889     23891
     23888     23887     23889     23892     23889     23892     23895     23896
     23889     23892     23895     23897     23889     23892     23895     23898
     23890     23889     23892     23893     23890     23889     23892     23894
     23890     23889     23892     23895     23891     23889     23892     23893
     23891     23889     23892     23894     23891     23889     23892     23895
     23892     23895     23898     23899     23892     23895     23898     23900
     23892     23895     23898     23901     23893     23892     23895     23896
     23893     23892     23895     23897     23893     23892     23895     23898
     23894     23892     23895     23896     23894     23892     23895     23897
     23894     23892     23895     23898     23895     23898     23901     23902
     23895     23898     23901     23903     23895     23898     23901     23904
     23896     23895     23898     23899     23896     23895     23898     23900
     23896     23895     23898     23901     23897     23895     23898     23899
     23897     23895     23898     23900     23897     23895     23898     23901
     23898     23901     23904     23905     23898     23901     23904     23906
     23898     23901     23904     23907     23899     23898     23901     23902
     23899     23898     23901     23903     23899     23898     23901     23904
     23900     23898     23901     23902     23900     23898     23901     23903
     23900     23898     23901     23904     23901     23904     23907     23908
     23901     23904     23907     23909     23901     23904     23907     23910
     23902     23901     23904     23905     23902     23901     23904     23906
     23902     23901     23904     23907     23903     23901     23904     23905
     23903     23901     23904     23906     23903     23901     23904     23907
     23904     23907     23910     23911     23904     23907     23910     23912
     23904     23907     23910     23913     23905     23904     23907     23908
     23905     23904     23907     23909     23905     23904     23907     23910
     23906     23904     23907     23908     23906     23904     23907     23909
     23906     23904     23907     23910     23907     23910     23913     23914
     23907     23910     23913     23915     23907     23910     23913     23916
     23908     23907     23910     23911     23908     23907     23910     23912
     23908     23907     23910     23913     23909     23907     23910     23911
     23909     23907     23910     23912     23909     23907     23910     23913
     23910     23913     23916     23917     23910     23913     23916     23918
     23910     23913     23916     23919     23911     23910     23913     23914
     23911     23910     23913     23915     23911     23910     23913     23916
     23912     23910     23913     23914     23912     23910     23913     23915
     23912     23910     23913     23916     23913     23916     23919     23920
     23913     23916     23919     23921     23913     23916     23919     23922
     23914     23913     23916     23917     23914     23913     23916     23918
     23914     23913     23916     23919     23915     23913     23916     23917
     23915     23913     23916     23918     23915     23913     23916     23919
     23916     23919     23922     23923     23916     23919     23922     23924
     23916     23919     23922     23925     23917     23916     23919     23920
     23917     23916     23919     23921     23917     23916     23919     23922
     23918     23916     23919     23920     23918     23916     23919     23921
     23918     23916     23919     23922     23919     23922     23925     23926
     23919     23922     23925     23927     23919     23922     23925     23928
     23920     23919     23922     23923     23920     23919     23922     23924
     23920     23919     23922     23925     23921     23919     23922     23923
     23921     23919     23922     23924     23921     23919     23922     23925
     23923     23922     23925     23926     23923     23922     23925     23927
     23923     23922     23925     23928     23924     23922     23925     23926
     23924     23922     23925     23927     23924     23922     23925     23928
     23929     23931     23934     23935     23929     23931     23934     23936
     23929     23931     23934     23937     23930     23929     23931     23932
     23930     23929     23931     23933     23930     23929     23931     23934
     23931     23934     23937     23938     23931     23934     23937     23939
     23931     23934     23937     23940     23932     23931     23934     23935
     23932     23931     23934     23936     23932     23931     23934     23937
     23933     23931     23934     23935     23933     23931     23934     23936
     23933     23931     23934     23937     23934     23937     23940     23941
     23934     23937     23940     23942     23934     23937     23940     23943
     23935     23934     23937     23938     23935     23934     23937     23939
     23935     23934     23937     23940     23936     23934     23937     23938
     23936     23934     23937     23939     23936     23934     23937     23940
     23937     23940     23943     23944     23937     23940     23943     23945
     23937     23940     23943     23946     23938     23937     23940     23941
     23938     23937     23940     23942     23938     23937     23940     23943
     23939     23937     23940     23941     23939     23937     23940     23942
     23939     23937     23940     23943     23940     23943     23946     23947
     23940     23943     23946     23948     23940     23943     23946     23949
     23941     23940     23943     23944     23941     23940     23943     23945
     23941     23940     23943     23946     23942     23940     23943     23944
     23942     23940     23943     23945     23942     23940     23943     23946
     23943     23946     23949     23950     23943     23946     23949     23951
     23943     23946     23949     23952     23944     23943     23946     23947
     23944     23943     23946     23948     23944     23943     23946     23949
     23945     23943     23946     23947     23945     23943     23946     23948
     23945     23943     23946     23949     23946     23949     23952     23953
     23946     23949     23952     23954     23946     23949     23952     23955
     23947     23946     23949     23950     23947     23946     23949     23951
     23947     23946     23949     23952     23948     23946     23949     23950
     23948     23946     23949     23951     23948     23946     23949     23952
     23949     23952     23955     23956     23949     23952     23955     23957
     23949     23952     23955     23958     23950     23949     23952     23953
     23950     23949     23952     23954     23950     23949     23952     23955
     23951     23949     23952     23953     23951     23949     23952     23954
     23951     23949     23952     23955     23952     23955     23958     23959
     23952     23955     23958     23960     23952     23955     23958     23961
     23953     23952     23955     23956     23953     23952     23955     23957
     23953     23952     23955     23958     23954     23952     23955     23956
     23954     23952     23955     23957     23954     23952     23955     23958
     23955     23958     23961     23962     23955     23958     23961     23963
     23955     23958     23961     23964     23956     23955     23958     23959
     23956     23955     23958     23960     23956     23955     23958     23961
     23957     23955     23958     23959     23957     23955     23958     23960
     23957     23955     23958     23961     23958     23961     23964     23965
     23958     23961     23964     23966     23958     23961     23964     23967
     23959     23958     23961     23962     23959     23958     23961     23963
     23959     23958     23961     23964     23960     23958     23961     23962
     23960     23958     23961     23963     23960     23958     23961     23964
     23961     23964     23967     23968     23961     23964     23967     23969
     23961     23964     23967     23970     23962     23961     23964     23965
     23962     23961     23964     23966     23962     23961     23964     23967
     23963     23961     23964     23965     23963     23961     23964     23966
     23963     23961     23964     23967     23964     23967     23970     23971
     23964     23967     23970     23972     23964     23967     23970     23973
     23965     23964     23967     23968     23965     23964     23967     23969
     23965     23964     23967     23970     23966     23964     23967     23968
     23966     23964     23967     23969     23966     23964     23967     23970
     23967     23970     23973     23974     23967     23970     23973     23975
     23967     23970     23973     23976     23968     23967     23970     23971
     23968     23967     23970     23972     23968     23967     23970     23973
     23969     23967     23970     23971     23969     23967     23970     23972
     23969     23967     23970     23973     23971     23970     23973     23974
     23971     23970     23973     23975     23971     23970     23973     23976
     23972     23970     23973     23974     23972     23970     23973     23975
     23972     23970     23973     23976     23977     23990     23993     23994
     23977     23990     23993     23995     23977     23990     23993     24000
     23978     23977     23982     23983     23978     23977     23982     23984
     23978     23977     23982     23985     23978     23977     23986     23987
     23978     23977     23986     23988     23978     23977     23986     23989
     23978     23977     23990     23991     23978     23977     23990     23992
     23978     23977     23990     23993     23979     23978     23977     23982
     23979     23978     23977     23986     23979     23978     23977     23990
     23980     23978     23977     23982     23980     23978     23977     23986
     23980     23978     23977     23990     23981     23978     23977     23982
     23981     23978     23977     23986     23981     23978     23977     23990
     23982     23977     23986     23987     23982     23977     23986     23988
     23982     23977     23986     23989     23982     23977     23990     23991
     23982     23977     23990     23992     23982     23977     23990     23993
     23983     23982     23977     23986     23983     23982     23977     23990
     23984     23982     23977     23986     23984     23982     23977     23990
     23985     23982     23977     23986     23985     23982     23977     23990
     23986     23977     23990     23991     23986     23977     23990     23992
     23986     23977     23990     23993     23987     23986     23977     23990
     23988     23986     23977     23990     23989     23986     23977     23990
     23990     23993     24000     23996     23991     23990     23993     23994
     23991     23990     23993     23995     23991     23990     23993     24000
     23992     23990     23993     23994     23992     23990     23993     23995
     23992     23990     23993     24000     23993     24000     23996     23997
     23993     24000     23996     23998     23993     24000     23996     23999
     23994     23993     24000     23996     23995     23993     24000     23996
     23996     23999     24001     24002     23996     23999     24001     24003
     23996     23999     24001     24006     23997     23996     23999     24001
     23998     23996     23999     24001     23999     24001     24006     24004
     23999     24001     24006     24007     23999     24001     24006     24008
     24000     23996     23999     24001     24001     24006     24004     24005
     24001     24006     24004     24056     24001     24006     24008     24009
     24001     24006     24008     24010     24001     24006     24008     24012
     24002     24001     24006     24004     24002     24001     24006     24007
     24002     24001     24006     24008     24003     24001     24006     24004
     24003     24001     24006     24007     24003     24001     24006     24008
     24004     24006     24008     24009     24004     24006     24008     24010
     24004     24006     24008     24012     24004     24056     24058     24059
     24004     24056     24058     24060     24004     24056     24058     24061
     24005     24004     24006     24007     24005     24004     24006     24008
     24005     24004     24056     24057     24005     24004     24056     24058
     24006     24004     24056     24057     24006     24004     24056     24058
     24006     24008     24010     24011     24006     24008     24012     24013
     24006     24008     24012     24014     24007     24006     24004     24056
     24007     24006     24008     24009     24007     24006     24008     24010
     24007     24006     24008     24012     24008     24006     24004     24056
     24008     24012     24014     24015     24008     24012     24014     24016
     24009     24008     24010     24011     24009     24008     24012     24013
     24009     24008     24012     24014     24010     24008     24012     24013
     24010     24008     24012     24014     24011     24010     24008     24012
     24012     24014     24016     24017     24012     24014     24016     24018
     24012     24014     24016     24019     24013     24012     24014     24015
     24013     24012     24014     24016     24014     24016     24019     24020
     24014     24016     24019     24021     24014     24016     24019     24022
     24015     24014     24016     24017     24015     24014     24016     24018
     24015     24014     24016     24019     24016     24019     24022     24023
     24016     24019     24022     24024     24016     24019     24022     24025
     24017     24016     24019     24020     24017     24016     24019     24021
     24017     24016     24019     24022     24018     24016     24019     24020
     24018     24016     24019     24021     24018     24016     24019     24022
     24019     24022     24025     24026     24019     24022     24025     24027
     24019     24022     24025     24028     24020     24019     24022     24023
     24020     24019     24022     24024     24020     24019     24022     24025
     24021     24019     24022     24023     24021     24019     24022     24024
     24021     24019     24022     24025     24022     24025     24028     24029
     24022     24025     24028     24030     24022     24025     24028     24031
     24023     24022     24025     24026     24023     24022     24025     24027
     24023     24022     24025     24028     24024     24022     24025     24026
     24024     24022     24025     24027     24024     24022     24025     24028
     24025     24028     24031     24032     24025     24028     24031     24033
     24025     24028     24031     24034     24026     24025     24028     24029
     24026     24025     24028     24030     24026     24025     24028     24031
     24027     24025     24028     24029     24027     24025     24028     24030
     24027     24025     24028     24031     24028     24031     24034     24035
     24028     24031     24034     24036     24028     24031     24034     24037
     24029     24028     24031     24032     24029     24028     24031     24033
     24029     24028     24031     24034     24030     24028     24031     24032
     24030     24028     24031     24033     24030     24028     24031     24034
     24031     24034     24037     24038     24031     24034     24037     24039
     24031     24034     24037     24040     24032     24031     24034     24035
     24032     24031     24034     24036     24032     24031     24034     24037
     24033     24031     24034     24035     24033     24031     24034     24036
     24033     24031     24034     24037     24034     24037     24040     24041
     24034     24037     24040     24042     24034     24037     24040     24043
     24035     24034     24037     24038     24035     24034     24037     24039
     24035     24034     24037     24040     24036     24034     24037     24038
     24036     24034     24037     24039     24036     24034     24037     24040
     24037     24040     24043     24044     24037     24040     24043     24045
     24037     24040     24043     24046     24038     24037     24040     24041
     24038     24037     24040     24042     24038     24037     24040     24043
     24039     24037     24040     24041     24039     24037     24040     24042
     24039     24037     24040     24043     24040     24043     24046     24047
     24040     24043     24046     24048     24040     24043     24046     24049
     24041     24040     24043     24044     24041     24040     24043     24045
     24041     24040     24043     24046     24042     24040     24043     24044
     24042     24040     24043     24045     24042     24040     24043     24046
     24043     24046     24049     24050     24043     24046     24049     24051
     24043     24046     24049     24052     24044     24043     24046     24047
     24044     24043     24046     24048     24044     24043     24046     24049
     24045     24043     24046     24047     24045     24043     24046     24048
     24045     24043     24046     24049     24046     24049     24052     24053
     24046     24049     24052     24054     24046     24049     24052     24055
     24047     24046     24049     24050     24047     24046     24049     24051
     24047     24046     24049     24052     24048     24046     24049     24050
     24048     24046     24049     24051     24048     24046     24049     24052
     24050     24049     24052     24053     24050     24049     24052     24054
     24050     24049     24052     24055     24051     24049     24052     24053
     24051     24049     24052     24054     24051     24049     24052     24055
     24056     24058     24061     24062     24056     24058     24061     24063
     24056     24058     24061     24064     24057     24056     24058     24059
     24057     24056     24058     24060     24057     24056     24058     24061
     24058     24061     24064     24065     24058     24061     24064     24066
     24058     24061     24064     24067     24059     24058     24061     24062
     24059     24058     24061     24063     24059     24058     24061     24064
     24060     24058     24061     24062     24060     24058     24061     24063
     24060     24058     24061     24064     24061     24064     24067     24068
     24061     24064     24067     24069     24061     24064     24067     24070
     24062     24061     24064     24065     24062     24061     24064     24066
     24062     24061     24064     24067     24063     24061     24064     24065
     24063     24061     24064     24066     24063     24061     24064     24067
     24064     24067     24070     24071     24064     24067     24070     24072
     24064     24067     24070     24073     24065     24064     24067     24068
     24065     24064     24067     24069     24065     24064     24067     24070
     24066     24064     24067     24068     24066     24064     24067     24069
     24066     24064     24067     24070     24067     24070     24073     24074
     24067     24070     24073     24075     24067     24070     24073     24076
     24068     24067     24070     24071     24068     24067     24070     24072
     24068     24067     24070     24073     24069     24067     24070     24071
     24069     24067     24070     24072     24069     24067     24070     24073
     24070     24073     24076     24077     24070     24073     24076     24078
     24070     24073     24076     24079     24071     24070     24073     24074
     24071     24070     24073     24075     24071     24070     24073     24076
     24072     24070     24073     24074     24072     24070     24073     24075
     24072     24070     24073     24076     24073     24076     24079     24080
     24073     24076     24079     24081     24073     24076     24079     24082
     24074     24073     24076     24077     24074     24073     24076     24078
     24074     24073     24076     24079     24075     24073     24076     24077
     24075     24073     24076     24078     24075     24073     24076     24079
     24076     24079     24082     24083     24076     24079     24082     24084
     24076     24079     24082     24085     24077     24076     24079     24080
     24077     24076     24079     24081     24077     24076     24079     24082
     24078     24076     24079     24080     24078     24076     24079     24081
     24078     24076     24079     24082     24079     24082     24085     24086
     24079     24082     24085     24087     24079     24082     24085     24088
     24080     24079     24082     24083     24080     24079     24082     24084
     24080     24079     24082     24085     24081     24079     24082     24083
     24081     24079     24082     24084     24081     24079     24082     24085
     24082     24085     24088     24089     24082     24085     24088     24090
     24082     24085     24088     24091     24083     24082     24085     24086
     24083     24082     24085     24087     24083     24082     24085     24088
     24084     24082     24085     24086     24084     24082     24085     24087
     24084     24082     24085     24088     24085     24088     24091     24092
     24085     24088     24091     24093     24085     24088     24091     24094
     24086     24085     24088     24089     24086     24085     24088     24090
     24086     24085     24088     24091     24087     24085     24088     24089
     24087     24085     24088     24090     24087     24085     24088     24091
     24088     24091     24094     24095     24088     24091     24094     24096
     24088     24091     24094     24097     24089     24088     24091     24092
     24089     24088     24091     24093     24089     24088     24091     24094
     24090     24088     24091     24092     24090     24088     24091     24093
     24090     24088     24091     24094     24091     24094     24097     24098
     24091     24094     24097     24099     24091     24094     24097     24100
     24092     24091     24094     24095     24092     24091     24094     24096
     24092     24091     24094     24097     24093     24091     24094     24095
     24093     24091     24094     24096     24093     24091     24094     24097
     24094     24097     24100     24101     24094     24097     24100     24102
     24094     24097     24100     24103     24095     24094     24097     24098
     24095     24094     24097     24099     24095     24094     24097     24100
     24096     24094     24097     24098     24096     24094     24097     24099
     24096     24094     24097     24100     24098     24097     24100     24101
     24098     24097     24100     24102     24098     24097     24100     24103
     24099     24097     24100     24101     24099     24097     24100     24102
     24099     24097     24100     24103     24104     24117     24120     24121
     24104     24117     24120     24122     24104     24117     24120     24127
     24105     24104     24109     24110     24105     24104     24109     24111
     24105     24104     24109     24112     24105     24104     24113     24114
     24105     24104     24113     24115     24105     24104     24113     24116
     24105     24104     24117     24118     24105     24104     24117     24119
     24105     24104     24117     24120     24106     24105     24104     24109
     24106     24105     24104     24113     24106     24105     24104     24117
     24107     24105     24104     24109     24107     24105     24104     24113
     24107     24105     24104     24117     24108     24105     24104     24109
     24108     24105     24104     24113     24108     24105     24104     24117
     24109     24104     24113     24114     24109     24104     24113     24115
     24109     24104     24113     24116     24109     24104     24117     24118
     24109     24104     24117     24119     24109     24104     24117     24120
     24110     24109     24104     24113     24110     24109     24104     24117
     24111     24109     24104     24113     24111     24109     24104     24117
     24112     24109     24104     24113     24112     24109     24104     24117
     24113     24104     24117     24118     24113     24104     24117     24119
     24113     24104     24117     24120     24114     24113     24104     24117
     24115     24113     24104     24117     24116     24113     24104     24117
     24117     24120     24127     24123     24118     24117     24120     24121
     24118     24117     24120     24122     24118     24117     24120     24127
     24119     24117     24120     24121     24119     24117     24120     24122
     24119     24117     24120     24127     24120     24127     24123     24124
     24120     24127     24123     24125     24120     24127     24123     24126
     24121     24120     24127     24123     24122     24120     24127     24123
     24123     24126     24128     24129     24123     24126     24128     24130
     24123     24126     24128     24133     24124     24123     24126     24128
     24125     24123     24126     24128     24126     24128     24133     24131
     24126     24128     24133     24134     24126     24128     24133     24135
     24127     24123     24126     24128     24128     24133     24131     24132
     24128     24133     24131     24183     24128     24133     24135     24136
     24128     24133     24135     24137     24128     24133     24135     24139
     24129     24128     24133     24131     24129     24128     24133     24134
     24129     24128     24133     24135     24130     24128     24133     24131
     24130     24128     24133     24134     24130     24128     24133     24135
     24131     24133     24135     24136     24131     24133     24135     24137
     24131     24133     24135     24139     24131     24183     24185     24186
     24131     24183     24185     24187     24131     24183     24185     24188
     24132     24131     24133     24134     24132     24131     24133     24135
     24132     24131     24183     24184     24132     24131     24183     24185
     24133     24131     24183     24184     24133     24131     24183     24185
     24133     24135     24137     24138     24133     24135     24139     24140
     24133     24135     24139     24141     24134     24133     24131     24183
     24134     24133     24135     24136     24134     24133     24135     24137
     24134     24133     24135     24139     24135     24133     24131     24183
     24135     24139     24141     24142     24135     24139     24141     24143
     24136     24135     24137     24138     24136     24135     24139     24140
     24136     24135     24139     24141     24137     24135     24139     24140
     24137     24135     24139     24141     24138     24137     24135     24139
     24139     24141     24143     24144     24139     24141     24143     24145
     24139     24141     24143     24146     24140     24139     24141     24142
     24140     24139     24141     24143     24141     24143     24146     24147
     24141     24143     24146     24148     24141     24143     24146     24149
     24142     24141     24143     24144     24142     24141     24143     24145
     24142     24141     24143     24146     24143     24146     24149     24150
     24143     24146     24149     24151     24143     24146     24149     24152
     24144     24143     24146     24147     24144     24143     24146     24148
     24144     24143     24146     24149     24145     24143     24146     24147
     24145     24143     24146     24148     24145     24143     24146     24149
     24146     24149     24152     24153     24146     24149     24152     24154
     24146     24149     24152     24155     24147     24146     24149     24150
     24147     24146     24149     24151     24147     24146     24149     24152
     24148     24146     24149     24150     24148     24146     24149     24151
     24148     24146     24149     24152     24149     24152     24155     24156
     24149     24152     24155     24157     24149     24152     24155     24158
     24150     24149     24152     24153     24150     24149     24152     24154
     24150     24149     24152     24155     24151     24149     24152     24153
     24151     24149     24152     24154     24151     24149     24152     24155
     24152     24155     24158     24159     24152     24155     24158     24160
     24152     24155     24158     24161     24153     24152     24155     24156
     24153     24152     24155     24157     24153     24152     24155     24158
     24154     24152     24155     24156     24154     24152     24155     24157
     24154     24152     24155     24158     24155     24158     24161     24162
     24155     24158     24161     24163     24155     24158     24161     24164
     24156     24155     24158     24159     24156     24155     24158     24160
     24156     24155     24158     24161     24157     24155     24158     24159
     24157     24155     24158     24160     24157     24155     24158     24161
     24158     24161     24164     24165     24158     24161     24164     24166
     24158     24161     24164     24167     24159     24158     24161     24162
     24159     24158     24161     24163     24159     24158     24161     24164
     24160     24158     24161     24162     24160     24158     24161     24163
     24160     24158     24161     24164     24161     24164     24167     24168
     24161     24164     24167     24169     24161     24164     24167     24170
     24162     24161     24164     24165     24162     24161     24164     24166
     24162     24161     24164     24167     24163     24161     24164     24165
     24163     24161     24164     24166     24163     24161     24164     24167
     24164     24167     24170     24171     24164     24167     24170     24172
     24164     24167     24170     24173     24165     24164     24167     24168
     24165     24164     24167     24169     24165     24164     24167     24170
     24166     24164     24167     24168     24166     24164     24167     24169
     24166     24164     24167     24170     24167     24170     24173     24174
     24167     24170     24173     24175     24167     24170     24173     24176
     24168     24167     24170     24171     24168     24167     24170     24172
     24168     24167     24170     24173     24169     24167     24170     24171
     24169     24167     24170     24172     24169     24167     24170     24173
     24170     24173     24176     24177     24170     24173     24176     24178
     24170     24173     24176     24179     24171     24170     24173     24174
     24171     24170     24173     24175     24171     24170     24173     24176
     24172     24170     24173     24174     24172     24170     24173     24175
     24172     24170     24173     24176     24173     24176     24179     24180
     24173     24176     24179     24181     24173     24176     24179     24182
     24174     24173     24176     24177     24174     24173     24176     24178
     24174     24173     24176     24179     24175     24173     24176     24177
     24175     24173     24176     24178     24175     24173     24176     24179
     24177     24176     24179     24180     24177     24176     24179     24181
     24177     24176     24179     24182     24178     24176     24179     24180
     24178     24176     24179     24181     24178     24176     24179     24182
     24183     24185     24188     24189     24183     24185     24188     24190
     24183     24185     24188     24191     24184     24183     24185     24186
     24184     24183     24185     24187     24184     24183     24185     24188
     24185     24188     24191     24192     24185     24188     24191     24193
     24185     24188     24191     24194     24186     24185     24188     24189
     24186     24185     24188     24190     24186     24185     24188     24191
     24187     24185     24188     24189     24187     24185     24188     24190
     24187     24185     24188     24191     24188     24191     24194     24195
     24188     24191     24194     24196     24188     24191     24194     24197
     24189     24188     24191     24192     24189     24188     24191     24193
     24189     24188     24191     24194     24190     24188     24191     24192
     24190     24188     24191     24193     24190     24188     24191     24194
     24191     24194     24197     24198     24191     24194     24197     24199
     24191     24194     24197     24200     24192     24191     24194     24195
     24192     24191     24194     24196     24192     24191     24194     24197
     24193     24191     24194     24195     24193     24191     24194     24196
     24193     24191     24194     24197     24194     24197     24200     24201
     24194     24197     24200     24202     24194     24197     24200     24203
     24195     24194     24197     24198     24195     24194     24197     24199
     24195     24194     24197     24200     24196     24194     24197     24198
     24196     24194     24197     24199     24196     24194     24197     24200
     24197     24200     24203     24204     24197     24200     24203     24205
     24197     24200     24203     24206     24198     24197     24200     24201
     24198     24197     24200     24202     24198     24197     24200     24203
     24199     24197     24200     24201     24199     24197     24200     24202
     24199     24197     24200     24203     24200     24203     24206     24207
     24200     24203     24206     24208     24200     24203     24206     24209
     24201     24200     24203     24204     24201     24200     24203     24205
     24201     24200     24203     24206     24202     24200     24203     24204
     24202     24200     24203     24205     24202     24200     24203     24206
     24203     24206     24209     24210     24203     24206     24209     24211
     24203     24206     24209     24212     24204     24203     24206     24207
     24204     24203     24206     24208     24204     24203     24206     24209
     24205     24203     24206     24207     24205     24203     24206     24208
     24205     24203     24206     24209     24206     24209     24212     24213
     24206     24209     24212     24214     24206     24209     24212     24215
     24207     24206     24209     24210     24207     24206     24209     24211
     24207     24206     24209     24212     24208     24206     24209     24210
     24208     24206     24209     24211     24208     24206     24209     24212
     24209     24212     24215     24216     24209     24212     24215     24217
     24209     24212     24215     24218     24210     24209     24212     24213
     24210     24209     24212     24214     24210     24209     24212     24215
     24211     24209     24212     24213     24211     24209     24212     24214
     24211     24209     24212     24215     24212     24215     24218     24219
     24212     24215     24218     24220     24212     24215     24218     24221
     24213     24212     24215     24216     24213     24212     24215     24217
     24213     24212     24215     24218     24214     24212     24215     24216
     24214     24212     24215     24217     24214     24212     24215     24218
     24215     24218     24221     24222     24215     24218     24221     24223
     24215     24218     24221     24224     24216     24215     24218     24219
     24216     24215     24218     24220     24216     24215     24218     24221
     24217     24215     24218     24219     24217     24215     24218     24220
     24217     24215     24218     24221     24218     24221     24224     24225
     24218     24221     24224     24226     24218     24221     24224     24227
     24219     24218     24221     24222     24219     24218     24221     24223
     24219     24218     24221     24224     24220     24218     24221     24222
     24220     24218     24221     24223     24220     24218     24221     24224
     24221     24224     24227     24228     24221     24224     24227     24229
     24221     24224     24227     24230     24222     24221     24224     24225
     24222     24221     24224     24226     24222     24221     24224     24227
     24223     24221     24224     24225     24223     24221     24224     24226
     24223     24221     24224     24227     24225     24224     24227     24228
     24225     24224     24227     24229     24225     24224     24227     24230
     24226     24224     24227     24228     24226     24224     24227     24229
     24226     24224     24227     24230      5846      5850      5853      5854
      5846      5850      5853      5855      5846      5850      5853      5860
      5847      5846      5850      5851      5847      5846      5850      5852
      5847      5846      5850      5853      5848      5846      5850      5851
      5848      5846      5850      5852      5848      5846      5850      5853
      5849      5846      5850      5851      5849      5846      5850      5852
      5849      5846      5850      5853      5850      5853      5860      5856
      5851      5850      5853      5854      5851      5850      5853      5855
      5851      5850      5853      5860      5852      5850      5853      5854
      5852      5850      5853      5855      5852      5850      5853      5860
      5853      5860      5856      5857      5853      5860      5856      5858
      5853      5860      5856      5859      5854      5853      5860      5856
      5855      5853      5860      5856      5856      5859      5861      5862
      5856      5859      5861      5863      5856      5859      5861      5864
      5857      5856      5859      5861      5858      5856      5859      5861
      5859      5861      5864      5865      5859      5861      5864      5866
      5859      5861      5864      5872      5860      5856      5859      5861
      5861      5864      5866      5867      5861      5864      5872      5873
      5861      5864      5872      5874      5861      5864      5872      5875
      5862      5861      5864      5865      5862      5861      5864      5866
      5862      5861      5864      5872      5863      5861      5864      5865
      5863      5861      5864      5866      5863      5861      5864      5872
      5864      5866      5867      5868      5864      5866      5867      5869
      5864      5872      5875      5876      5865      5864      5866      5867
      5865      5864      5872      5873      5865      5864      5872      5874
      5865      5864      5872      5875      5866      5864      5872      5873
      5866      5864      5872      5874      5866      5864      5872      5875
      5866      5867      5869      5870      5866      5867      5869      5871
      5866      5867      5869      5881      5867      5866      5864      5872
      5867      5869      5881      5882      5867      5869      5881      5883
      5867      5869      5881      5884      5868      5867      5869      5870
      5868      5867      5869      5871      5868      5867      5869      5881
      5869      5881      5884      5885      5869      5881      5884      5886
      5869      5881      5884      5887      5870      5869      5881      5882
      5870      5869      5881      5883      5870      5869      5881      5884
      5871      5869      5881      5882      5871      5869      5881      5883
      5871      5869      5881      5884      5872      5875      5876      5877
      5872      5875      5876      5878      5873      5872      5875      5876
      5874      5872      5875      5876      5875      5876      5878      5879
      5875      5876      5878      5880      5875      5876      5878      5928
      5876      5878      5928      5929      5876      5878      5928      5930
      5876      5878      5928      5931      5877      5876      5878      5879
      5877      5876      5878      5880      5877      5876      5878      5928
      5878      5928      5931      5932      5878      5928      5931      5933
      5878      5928      5931      5934      5879      5878      5928      5929
      5879      5878      5928      5930      5879      5878      5928      5931
      5880      5878      5928      5929      5880      5878      5928      5930
      5880      5878      5928      5931      5881      5884      5887      5888
      5881      5884      5887      5889      5881      5884      5887      5890
      5882      5881      5884      5885      5882      5881      5884      5886
      5882      5881      5884      5887      5883      5881      5884      5885
      5883      5881      5884      5886      5883      5881      5884      5887
      5884      5887      5890      5891      5884      5887      5890      5892
      5884      5887      5890      5893      5885      5884      5887      5888
      5885      5884      5887      5889      5885      5884      5887      5890
      5886      5884      5887      5888      5886      5884      5887      5889
      5886      5884      5887      5890      5887      5890      5893      5894
      5887      5890      5893      5895      5887      5890      5893      5896
      5888      5887      5890      5891      5888      5887      5890      5892
      5888      5887      5890      5893      5889      5887      5890      5891
      5889      5887      5890      5892      5889      5887      5890      5893
      5890      5893      5896      5897      5890      5893      5896      5898
      5890      5893      5896      5899      5891      5890      5893      5894
      5891      5890      5893      5895      5891      5890      5893      5896
      5892      5890      5893      5894      5892      5890      5893      5895
      5892      5890      5893      5896      5893      5896      5899      5900
      5893      5896      5899      5901      5894      5893      5896      5897
      5894      5893      5896      5898      5894      5893      5896      5899
      5895      5893      5896      5897      5895      5893      5896      5898
      5895      5893      5896      5899      5896      5899      5901      5902
      5896      5899      5901      5903      5897      5896      5899      5900
      5897      5896      5899      5901      5898      5896      5899      5900
      5898      5896      5899      5901      5899      5901      5903      5904
      5899      5901      5903      5905      5899      5901      5903      5906
      5900      5899      5901      5902      5900      5899      5901      5903
      5901      5903      5906      5907      5901      5903      5906      5908
      5901      5903      5906      5909      5902      5901      5903      5904
      5902      5901      5903      5905      5902      5901      5903      5906
      5903      5906      5909      5910      5903      5906      5909      5911
      5903      5906      5909      5912      5904      5903      5906      5907
      5904      5903      5906      5908      5904      5903      5906      5909
      5905      5903      5906      5907      5905      5903      5906      5908
      5905      5903      5906      5909      5906      5909      5912      5913
      5906      5909      5912      5914      5906      5909      5912      5915
      5907      5906      5909      5910      5907      5906      5909      5911
      5907      5906      5909      5912      5908      5906      5909      5910
      5908      5906      5909      5911      5908      5906      5909      5912
      5909      5912      5915      5916      5909      5912      5915      5917
      5909      5912      5915      5918      5910      5909      5912      5913
      5910      5909      5912      5914      5910      5909      5912      5915
      5911      5909      5912      5913      5911      5909      5912      5914
      5911      5909      5912      5915      5912      5915      5918      5919
      5912      5915      5918      5920      5912      5915      5918      5921
      5913      5912      5915      5916      5913      5912      5915      5917
      5913      5912      5915      5918      5914      5912      5915      5916
      5914      5912      5915      5917      5914      5912      5915      5918
      5915      5918      5921      5922      5915      5918      5921      5923
      5915      5918      5921      5924      5916      5915      5918      5919
      5916      5915      5918      5920      5916      5915      5918      5921
      5917      5915      5918      5919      5917      5915      5918      5920
      5917      5915      5918      5921      5918      5921      5924      5925
      5918      5921      5924      5926      5918      5921      5924      5927
      5919      5918      5921      5922      5919      5918      5921      5923
      5919      5918      5921      5924      5920      5918      5921      5922
      5920      5918      5921      5923      5920      5918      5921      5924
      5922      5921      5924      5925      5922      5921      5924      5926
      5922      5921      5924      5927      5923      5921      5924      5925
      5923      5921      5924      5926      5923      5921      5924      5927
      5928      5931      5934      5935      5928      5931      5934      5936
      5928      5931      5934      5937      5929      5928      5931      5932
      5929      5928      5931      5933      5929      5928      5931      5934
      5930      5928      5931      5932      5930      5928      5931      5933
      5930      5928      5931      5934      5931      5934      5937      5938
      5931      5934      5937      5939      5931      5934      5937      5940
      5932      5931      5934      5935      5932      5931      5934      5936
      5932      5931      5934      5937      5933      5931      5934      5935
      5933      5931      5934      5936      5933      5931      5934      5937
      5934      5937      5940      5941      5934      5937      5940      5942
      5934      5937      5940      5943      5935      5934      5937      5938
      5935      5934      5937      5939      5935      5934      5937      5940
      5936      5934      5937      5938      5936      5934      5937      5939
      5936      5934      5937      5940      5937      5940      5943      5944
      5937      5940      5943      5945      5937      5940      5943      5946
      5938      5937      5940      5941      5938      5937      5940      5942
      5938      5937      5940      5943      5939      5937      5940      5941
      5939      5937      5940      5942      5939      5937      5940      5943
      5940      5943      5946      5947      5940      5943      5946      5948
      5940      5943      5946      5949      5941      5940      5943      5944
      5941      5940      5943      5945      5941      5940      5943      5946
      5942      5940      5943      5944      5942      5940      5943      5945
      5942      5940      5943      5946      5943      5946      5949      5950
      5943      5946      5949      5951      5943      5946      5949      5952
      5944      5943      5946      5947      5944      5943      5946      5948
      5944      5943      5946      5949      5945      5943      5946      5947
      5945      5943      5946      5948      5945      5943      5946      5949
      5946      5949      5952      5953      5946      5949      5952      5954
      5946      5949      5952      5955      5947      5946      5949      5950
      5947      5946      5949      5951      5947      5946      5949      5952
      5948      5946      5949      5950      5948      5946      5949      5951
      5948      5946      5949      5952      5949      5952      5955      5956
      5949      5952      5955      5957      5949      5952      5955      5958
      5950      5949      5952      5953      5950      5949      5952      5954
      5950      5949      5952      5955      5951      5949      5952      5953
      5951      5949      5952      5954      5951      5949      5952      5955
      5952      5955      5958      5959      5952      5955      5958      5960
      5952      5955      5958      5961      5953      5952      5955      5956
      5953      5952      5955      5957      5953      5952      5955      5958
      5954      5952      5955      5956      5954      5952      5955      5957
      5954      5952      5955      5958      5955      5958      5961      5962
      5955      5958      5961      5963      5955      5958      5961      5964
      5956      5955      5958      5959      5956      5955      5958      5960
      5956      5955      5958      5961      5957      5955      5958      5959
      5957      5955      5958      5960      5957      5955      5958      5961
      5958      5961      5964      5965      5958      5961      5964      5966
      5958      5961      5964      5967      5959      5958      5961      5962
      5959      5958      5961      5963      5959      5958      5961      5964
      5960      5958      5961      5962      5960      5958      5961      5963
      5960      5958      5961      5964      5961      5964      5967      5968
      5961      5964      5967      5969      5961      5964      5967      5970
      5962      5961      5964      5965      5962      5961      5964      5966
      5962      5961      5964      5967      5963      5961      5964      5965
      5963      5961      5964      5966      5963      5961      5964      5967
      5965      5964      5967      5968      5965      5964      5967      5969
      5965      5964      5967      5970      5966      5964      5967      5968
      5966      5964      5967      5969      5966      5964      5967      5970
     18509     18510     18525     18526     18509     18510     18525     18527
     18509     18510     18525     18531     18510     18509     18513     18514
     18510     18509     18513     18515     18510     18509     18513     18516
     18510     18509     18517     18518     18510     18509     18517     18519
     18510     18509     18517     18520     18510     18509     18521     18522
     18510     18509     18521     18523     18510     18509     18521     18524
     18510     18525     18531     18528     18511     18510     18509     18513
     18511     18510     18509     18517     18511     18510     18509     18521
     18511     18510     18525     18526     18511     18510     18525     18527
     18511     18510     18525     18531     18512     18510     18509     18513
     18512     18510     18509     18517     18512     18510     18509     18521
     18512     18510     18525     18526     18512     18510     18525     18527
     18512     18510     18525     18531     18513     18509     18510     18525
     18513     18509     18517     18518     18513     18509     18517     18519
     18513     18509     18517     18520     18513     18509     18521     18522
     18513     18509     18521     18523     18513     18509     18521     18524
     18514     18513     18509     18517     18514     18513     18509     18521
     18515     18513     18509     18517     18515     18513     18509     18521
     18516     18513     18509     18517     18516     18513     18509     18521
     18517     18509     18510     18525     18517     18509     18521     18522
     18517     18509     18521     18523     18517     18509     18521     18524
     18518     18517     18509     18521     18519     18517     18509     18521
     18520     18517     18509     18521     18521     18509     18510     18525
     18525     18531     18528     18529     18525     18531     18528     18530
     18525     18531     18528     18532     18526     18525     18531     18528
     18527     18525     18531     18528     18528     18532     18533     18534
     18528     18532     18533     18535     18528     18532     18533     18536
     18529     18528     18532     18533     18530     18528     18532     18533
     18531     18528     18532     18533     18532     18533     18536     18537
     18532     18533     18536     18538     18532     18533     18536     18544
     18533     18536     18538     18539     18533     18536     18544     18545
     18533     18536     18544     18546     18533     18536     18544     18547
     18534     18533     18536     18537     18534     18533     18536     18538
     18534     18533     18536     18544     18535     18533     18536     18537
     18535     18533     18536     18538     18535     18533     18536     18544
     18536     18538     18539     18540     18536     18538     18539     18541
     18536     18544     18547     18548     18537     18536     18538     18539
     18537     18536     18544     18545     18537     18536     18544     18546
     18537     18536     18544     18547     18538     18536     18544     18545
     18538     18536     18544     18546     18538     18536     18544     18547
     18538     18539     18541     18542     18538     18539     18541     18543
     18538     18539     18541     18553     18539     18538     18536     18544
     18539     18541     18553     18554     18539     18541     18553     18555
     18539     18541     18553     18556     18540     18539     18541     18542
     18540     18539     18541     18543     18540     18539     18541     18553
     18541     18553     18556     18557     18541     18553     18556     18558
     18541     18553     18556     18559     18542     18541     18553     18554
     18542     18541     18553     18555     18542     18541     18553     18556
     18543     18541     18553     18554     18543     18541     18553     18555
     18543     18541     18553     18556     18544     18547     18548     18549
     18544     18547     18548     18550     18545     18544     18547     18548
     18546     18544     18547     18548     18547     18548     18550     18551
     18547     18548     18550     18552     18547     18548     18550     18600
     18548     18550     18600     18601     18548     18550     18600     18602
     18548     18550     18600     18603     18549     18548     18550     18551
     18549     18548     18550     18552     18549     18548     18550     18600
     18550     18600     18603     18604     18550     18600     18603     18605
     18550     18600     18603     18606     18551     18550     18600     18601
     18551     18550     18600     18602     18551     18550     18600     18603
     18552     18550     18600     18601     18552     18550     18600     18602
     18552     18550     18600     18603     18553     18556     18559     18560
     18553     18556     18559     18561     18553     18556     18559     18562
     18554     18553     18556     18557     18554     18553     18556     18558
     18554     18553     18556     18559     18555     18553     18556     18557
     18555     18553     18556     18558     18555     18553     18556     18559
     18556     18559     18562     18563     18556     18559     18562     18564
     18556     18559     18562     18565     18557     18556     18559     18560
     18557     18556     18559     18561     18557     18556     18559     18562
     18558     18556     18559     18560     18558     18556     18559     18561
     18558     18556     18559     18562     18559     18562     18565     18566
     18559     18562     18565     18567     18559     18562     18565     18568
     18560     18559     18562     18563     18560     18559     18562     18564
     18560     18559     18562     18565     18561     18559     18562     18563
     18561     18559     18562     18564     18561     18559     18562     18565
     18562     18565     18568     18569     18562     18565     18568     18570
     18562     18565     18568     18571     18563     18562     18565     18566
     18563     18562     18565     18567     18563     18562     18565     18568
     18564     18562     18565     18566     18564     18562     18565     18567
     18564     18562     18565     18568     18565     18568     18571     18572
     18565     18568     18571     18573     18566     18565     18568     18569
     18566     18565     18568     18570     18566     18565     18568     18571
     18567     18565     18568     18569     18567     18565     18568     18570
     18567     18565     18568     18571     18568     18571     18573     18574
     18568     18571     18573     18575     18569     18568     18571     18572
     18569     18568     18571     18573     18570     18568     18571     18572
     18570     18568     18571     18573     18571     18573     18575     18576
     18571     18573     18575     18577     18571     18573     18575     18578
     18572     18571     18573     18574     18572     18571     18573     18575
     18573     18575     18578     18579     18573     18575     18578     18580
     18573     18575     18578     18581     18574     18573     18575     18576
     18574     18573     18575     18577     18574     18573     18575     18578
     18575     18578     18581     18582     18575     18578     18581     18583
     18575     18578     18581     18584     18576     18575     18578     18579
     18576     18575     18578     18580     18576     18575     18578     18581
     18577     18575     18578     18579     18577     18575     18578     18580
     18577     18575     18578     18581     18578     18581     18584     18585
     18578     18581     18584     18586     18578     18581     18584     18587
     18579     18578     18581     18582     18579     18578     18581     18583
     18579     18578     18581     18584     18580     18578     18581     18582
     18580     18578     18581     18583     18580     18578     18581     18584
     18581     18584     18587     18588     18581     18584     18587     18589
     18581     18584     18587     18590     18582     18581     18584     18585
     18582     18581     18584     18586     18582     18581     18584     18587
     18583     18581     18584     18585     18583     18581     18584     18586
     18583     18581     18584     18587     18584     18587     18590     18591
     18584     18587     18590     18592     18584     18587     18590     18593
     18585     18584     18587     18588     18585     18584     18587     18589
     18585     18584     18587     18590     18586     18584     18587     18588
     18586     18584     18587     18589     18586     18584     18587     18590
     18587     18590     18593     18594     18587     18590     18593     18595
     18587     18590     18593     18596     18588     18587     18590     18591
     18588     18587     18590     18592     18588     18587     18590     18593
     18589     18587     18590     18591     18589     18587     18590     18592
     18589     18587     18590     18593     18590     18593     18596     18597
     18590     18593     18596     18598     18590     18593     18596     18599
     18591     18590     18593     18594     18591     18590     18593     18595
     18591     18590     18593     18596     18592     18590     18593     18594
     18592     18590     18593     18595     18592     18590     18593     18596
     18594     18593     18596     18597     18594     18593     18596     18598
     18594     18593     18596     18599     18595     18593     18596     18597
     18595     18593     18596     18598     18595     18593     18596     18599
     18600     18603     18606     18607     18600     18603     18606     18608
     18600     18603     18606     18609     18601     18600     18603     18604
     18601     18600     18603     18605     18601     18600     18603     18606
     18602     18600     18603     18604     18602     18600     18603     18605
     18602     18600     18603     18606     18603     18606     18609     18610
     18603     18606     18609     18611     18603     18606     18609     18612
     18604     18603     18606     18607     18604     18603     18606     18608
     18604     18603     18606     18609     18605     18603     18606     18607
     18605     18603     18606     18608     18605     18603     18606     18609
     18606     18609     18612     18613     18606     18609     18612     18614
     18606     18609     18612     18615     18607     18606     18609     18610
     18607     18606     18609     18611     18607     18606     18609     18612
     18608     18606     18609     18610     18608     18606     18609     18611
     18608     18606     18609     18612     18609     18612     18615     18616
     18609     18612     18615     18617     18609     18612     18615     18618
     18610     18609     18612     18613     18610     18609     18612     18614
     18610     18609     18612     18615     18611     18609     18612     18613
     18611     18609     18612     18614     18611     18609     18612     18615
     18612     18615     18618     18619     18612     18615     18618     18620
     18612     18615     18618     18621     18613     18612     18615     18616
     18613     18612     18615     18617     18613     18612     18615     18618
     18614     18612     18615     18616     18614     18612     18615     18617
     18614     18612     18615     18618     18615     18618     18621     18622
     18615     18618     18621     18623     18615     18618     18621     18624
     18616     18615     18618     18619     18616     18615     18618     18620
     18616     18615     18618     18621     18617     18615     18618     18619
     18617     18615     18618     18620     18617     18615     18618     18621
     18618     18621     18624     18625     18618     18621     18624     18626
     18618     18621     18624     18627     18619     18618     18621     18622
     18619     18618     18621     18623     18619     18618     18621     18624
     18620     18618     18621     18622     18620     18618     18621     18623
     18620     18618     18621     18624     18621     18624     18627     18628
     18621     18624     18627     18629     18621     18624     18627     18630
     18622     18621     18624     18625     18622     18621     18624     18626
     18622     18621     18624     18627     18623     18621     18624     18625
     18623     18621     18624     18626     18623     18621     18624     18627
     18624     18627     18630     18631     18624     18627     18630     18632
     18624     18627     18630     18633     18625     18624     18627     18628
     18625     18624     18627     18629     18625     18624     18627     18630
     18626     18624     18627     18628     18626     18624     18627     18629
     18626     18624     18627     18630     18627     18630     18633     18634
     18627     18630     18633     18635     18627     18630     18633     18636
     18628     18627     18630     18631     18628     18627     18630     18632
     18628     18627     18630     18633     18629     18627     18630     18631
     18629     18627     18630     18632     18629     18627     18630     18633
     18630     18633     18636     18637     18630     18633     18636     18638
     18630     18633     18636     18639     18631     18630     18633     18634
     18631     18630     18633     18635     18631     18630     18633     18636
     18632     18630     18633     18634     18632     18630     18633     18635
     18632     18630     18633     18636     18633     18636     18639     18640
     18633     18636     18639     18641     18633     18636     18639     18642
     18634     18633     18636     18637     18634     18633     18636     18638
     18634     18633     18636     18639     18635     18633     18636     18637
     18635     18633     18636     18638     18635     18633     18636     18639
     18637     18636     18639     18640     18637     18636     18639     18641
     18637     18636     18639     18642     18638     18636     18639     18640
     18638     18636     18639     18641     18638     18636     18639     18642
     22276     22280     22282     22283     22276     22280     22284     22285
     22276     22280     22284     22286     22276     22280     22284     22288
     22276     22296     22292     22288     22276     22296     22292     22293
     22276     22296     22292     22294     22276     22296     22301     22298
     22277     22276     22278     22279     22277     22276     22280     22281
     22277     22276     22280     22282     22277     22276     22280     22284
     22277     22276     22296     22292     22277     22276     22296     22297
     22277     22276     22296     22301     22278     22276     22280     22281
     22278     22276     22280     22282     22278     22276     22280     22284
     22278     22276     22296     22292     22278     22276     22296     22297
     22278     22276     22296     22301     22279     22278     22276     22280
     22279     22278     22276     22296     22280     22276     22296     22292
     22280     22276     22296     22297     22280     22276     22296     22301
     22280     22284     22286     22287     22280     22284     22288     22289
     22280     22284     22288     22290     22280     22284     22288     22292
     22281     22280     22276     22296     22281     22280     22282     22283
     22281     22280     22284     22285     22281     22280     22284     22286
     22281     22280     22284     22288     22282     22280     22276     22296
     22282     22280     22284     22285     22282     22280     22284     22286
     22282     22280     22284     22288     22283     22282     22280     22284
     22284     22280     22276     22296     22284     22288     22290     22291
     22284     22288     22292     22293     22284     22288     22292     22294
     22284     22288     22292     22296     22285     22284     22286     22287
     22285     22284     22288     22289     22285     22284     22288     22290
     22285     22284     22288     22292     22286     22284     22288     22289
     22286     22284     22288     22290     22286     22284     22288     22292
     22287     22286     22284     22288     22288     22292     22294     22295
     22288     22292     22296     22297     22288     22292     22296     22301
     22289     22288     22290     22291     22289     22288     22292     22293
     22289     22288     22292     22294     22289     22288     22292     22296
     22290     22288     22292     22293     22290     22288     22292     22294
     22290     22288     22292     22296     22291     22290     22288     22292
     22292     22296     22301     22298     22293     22292     22294     22295
     22293     22292     22296     22297     22293     22292     22296     22301
     22294     22292     22296     22297     22294     22292     22296     22301
     22295     22294     22292     22296     22296     22301     22298     22299
     22296     22301     22298     22300     22296     22301     22298     22302
     22297     22296     22301     22298     22298     22302     22303     22304
     22298     22302     22303     22305     22298     22302     22303     22306
     22299     22298     22302     22303     22300     22298     22302     22303
     22301     22298     22302     22303     22302     22303     22306     22307
     22302     22303     22306     22308     22302     22303     22306     22314
     22303     22306     22308     22309     22303     22306     22314     22315
     22303     22306     22314     22316     22303     22306     22314     22317
     22304     22303     22306     22307     22304     22303     22306     22308
     22304     22303     22306     22314     22305     22303     22306     22307
     22305     22303     22306     22308     22305     22303     22306     22314
     22306     22308     22309     22310     22306     22308     22309     22311
     22306     22314     22317     22318     22307     22306     22308     22309
     22307     22306     22314     22315     22307     22306     22314     22316
     22307     22306     22314     22317     22308     22306     22314     22315
     22308     22306     22314     22316     22308     22306     22314     22317
     22308     22309     22311     22312     22308     22309     22311     22313
     22308     22309     22311     22323     22309     22308     22306     22314
     22309     22311     22323     22324     22309     22311     22323     22325
     22309     22311     22323     22326     22310     22309     22311     22312
     22310     22309     22311     22313     22310     22309     22311     22323
     22311     22323     22326     22327     22311     22323     22326     22328
     22311     22323     22326     22329     22312     22311     22323     22324
     22312     22311     22323     22325     22312     22311     22323     22326
     22313     22311     22323     22324     22313     22311     22323     22325
     22313     22311     22323     22326     22314     22317     22318     22319
     22314     22317     22318     22320     22315     22314     22317     22318
     22316     22314     22317     22318     22317     22318     22320     22321
     22317     22318     22320     22322     22317     22318     22320     22370
     22318     22320     22370     22371     22318     22320     22370     22372
     22318     22320     22370     22373     22319     22318     22320     22321
     22319     22318     22320     22322     22319     22318     22320     22370
     22320     22370     22373     22374     22320     22370     22373     22375
     22320     22370     22373     22376     22321     22320     22370     22371
     22321     22320     22370     22372     22321     22320     22370     22373
     22322     22320     22370     22371     22322     22320     22370     22372
     22322     22320     22370     22373     22323     22326     22329     22330
     22323     22326     22329     22331     22323     22326     22329     22332
     22324     22323     22326     22327     22324     22323     22326     22328
     22324     22323     22326     22329     22325     22323     22326     22327
     22325     22323     22326     22328     22325     22323     22326     22329
     22326     22329     22332     22333     22326     22329     22332     22334
     22326     22329     22332     22335     22327     22326     22329     22330
     22327     22326     22329     22331     22327     22326     22329     22332
     22328     22326     22329     22330     22328     22326     22329     22331
     22328     22326     22329     22332     22329     22332     22335     22336
     22329     22332     22335     22337     22329     22332     22335     22338
     22330     22329     22332     22333     22330     22329     22332     22334
     22330     22329     22332     22335     22331     22329     22332     22333
     22331     22329     22332     22334     22331     22329     22332     22335
     22332     22335     22338     22339     22332     22335     22338     22340
     22332     22335     22338     22341     22333     22332     22335     22336
     22333     22332     22335     22337     22333     22332     22335     22338
     22334     22332     22335     22336     22334     22332     22335     22337
     22334     22332     22335     22338     22335     22338     22341     22342
     22335     22338     22341     22343     22336     22335     22338     22339
     22336     22335     22338     22340     22336     22335     22338     22341
     22337     22335     22338     22339     22337     22335     22338     22340
     22337     22335     22338     22341     22338     22341     22343     22344
     22338     22341     22343     22345     22339     22338     22341     22342
     22339     22338     22341     22343     22340     22338     22341     22342
     22340     22338     22341     22343     22341     22343     22345     22346
     22341     22343     22345     22347     22341     22343     22345     22348
     22342     22341     22343     22344     22342     22341     22343     22345
     22343     22345     22348     22349     22343     22345     22348     22350
     22343     22345     22348     22351     22344     22343     22345     22346
     22344     22343     22345     22347     22344     22343     22345     22348
     22345     22348     22351     22352     22345     22348     22351     22353
     22345     22348     22351     22354     22346     22345     22348     22349
     22346     22345     22348     22350     22346     22345     22348     22351
     22347     22345     22348     22349     22347     22345     22348     22350
     22347     22345     22348     22351     22348     22351     22354     22355
     22348     22351     22354     22356     22348     22351     22354     22357
     22349     22348     22351     22352     22349     22348     22351     22353
     22349     22348     22351     22354     22350     22348     22351     22352
     22350     22348     22351     22353     22350     22348     22351     22354
     22351     22354     22357     22358     22351     22354     22357     22359
     22351     22354     22357     22360     22352     22351     22354     22355
     22352     22351     22354     22356     22352     22351     22354     22357
     22353     22351     22354     22355     22353     22351     22354     22356
     22353     22351     22354     22357     22354     22357     22360     22361
     22354     22357     22360     22362     22354     22357     22360     22363
     22355     22354     22357     22358     22355     22354     22357     22359
     22355     22354     22357     22360     22356     22354     22357     22358
     22356     22354     22357     22359     22356     22354     22357     22360
     22357     22360     22363     22364     22357     22360     22363     22365
     22357     22360     22363     22366     22358     22357     22360     22361
     22358     22357     22360     22362     22358     22357     22360     22363
     22359     22357     22360     22361     22359     22357     22360     22362
     22359     22357     22360     22363     22360     22363     22366     22367
     22360     22363     22366     22368     22360     22363     22366     22369
     22361     22360     22363     22364     22361     22360     22363     22365
     22361     22360     22363     22366     22362     22360     22363     22364
     22362     22360     22363     22365     22362     22360     22363     22366
     22364     22363     22366     22367     22364     22363     22366     22368
     22364     22363     22366     22369     22365     22363     22366     22367
     22365     22363     22366     22368     22365     22363     22366     22369
     22370     22373     22376     22377     22370     22373     22376     22378
     22370     22373     22376     22379     22371     22370     22373     22374
     22371     22370     22373     22375     22371     22370     22373     22376
     22372     22370     22373     22374     22372     22370     22373     22375
     22372     22370     22373     22376     22373     22376     22379     22380
     22373     22376     22379     22381     22373     22376     22379     22382
     22374     22373     22376     22377     22374     22373     22376     22378
     22374     22373     22376     22379     22375     22373     22376     22377
     22375     22373     22376     22378     22375     22373     22376     22379
     22376     22379     22382     22383     22376     22379     22382     22384
     22376     22379     22382     22385     22377     22376     22379     22380
     22377     22376     22379     22381     22377     22376     22379     22382
     22378     22376     22379     22380     22378     22376     22379     22381
     22378     22376     22379     22382     22379     22382     22385     22386
     22379     22382     22385     22387     22379     22382     22385     22388
     22380     22379     22382     22383     22380     22379     22382     22384
     22380     22379     22382     22385     22381     22379     22382     22383
     22381     22379     22382     22384     22381     22379     22382     22385
     22382     22385     22388     22389     22382     22385     22388     22390
     22382     22385     22388     22391     22383     22382     22385     22386
     22383     22382     22385     22387     22383     22382     22385     22388
     22384     22382     22385     22386     22384     22382     22385     22387
     22384     22382     22385     22388     22385     22388     22391     22392
     22385     22388     22391     22393     22385     22388     22391     22394
     22386     22385     22388     22389     22386     22385     22388     22390
     22386     22385     22388     22391     22387     22385     22388     22389
     22387     22385     22388     22390     22387     22385     22388     22391
     22388     22391     22394     22395     22388     22391     22394     22396
     22388     22391     22394     22397     22389     22388     22391     22392
     22389     22388     22391     22393     22389     22388     22391     22394
     22390     22388     22391     22392     22390     22388     22391     22393
     22390     22388     22391     22394     22391     22394     22397     22398
     22391     22394     22397     22399     22391     22394     22397     22400
     22392     22391     22394     22395     22392     22391     22394     22396
     22392     22391     22394     22397     22393     22391     22394     22395
     22393     22391     22394     22396     22393     22391     22394     22397
     22394     22397     22400     22401     22394     22397     22400     22402
     22394     22397     22400     22403     22395     22394     22397     22398
     22395     22394     22397     22399     22395     22394     22397     22400
     22396     22394     22397     22398     22396     22394     22397     22399
     22396     22394     22397     22400     22397     22400     22403     22404
     22397     22400     22403     22405     22397     22400     22403     22406
     22398     22397     22400     22401     22398     22397     22400     22402
     22398     22397     22400     22403     22399     22397     22400     22401
     22399     22397     22400     22402     22399     22397     22400     22403
     22400     22403     22406     22407     22400     22403     22406     22408
     22400     22403     22406     22409     22401     22400     22403     22404
     22401     22400     22403     22405     22401     22400     22403     22406
     22402     22400     22403     22404     22402     22400     22403     22405
     22402     22400     22403     22406     22403     22406     22409     22410
     22403     22406     22409     22411     22403     22406     22409     22412
     22404     22403     22406     22407     22404     22403     22406     22408
     22404     22403     22406     22409     22405     22403     22406     22407
     22405     22403     22406     22408     22405     22403     22406     22409
     22407     22406     22409     22410     22407     22406     22409     22411
     22407     22406     22409     22412     22408     22406     22409     22410
     22408     22406     22409     22411     22408     22406     22409     22412
      1407      1411      1414      1415      1407      1411      1414      1445
      1407      1453      1450      1445      1407      1453      1450      1451
      1407      1453      1450      1452      1408      1407      1409      1410
      1408      1407      1411      1412      1408      1407      1411      1413
      1408      1407      1411      1414      1408      1407      1453      1450
      1408      1407      1453      1454      1408      1407      1453      1455
      1409      1407      1411      1412      1409      1407      1411      1413
      1409      1407      1411      1414      1409      1407      1453      1450
      1409      1407      1453      1454      1409      1407      1453      1455
      1410      1409      1407      1411      1410      1409      1407      1453
      1411      1407      1453      1450      1411      1407      1453      1454
      1411      1407      1453      1455      1411      1414      1415      1416
      1411      1414      1415      1417      1411      1414      1445      1443
      1411      1414      1445      1446      1411      1414      1445      1450
      1412      1411      1407      1453      1412      1411      1414      1415
      1412      1411      1414      1445      1413      1411      1407      1453
      1413      1411      1414      1415      1413      1411      1414      1445
      1414      1411      1407      1453      1414      1415      1417      1418
      1414      1415      1417      1419      1414      1415      1417      1420
      1414      1445      1443      1420      1414      1445      1443      1440
      1414      1445      1443      1444      1414      1445      1446      1447
      1414      1445      1446      1448      1414      1445      1446      1449
      1414      1445      1450      1451      1414      1445      1450      1452
      1414      1445      1450      1453      1415      1414      1445      1443
      1415      1414      1445      1446      1415      1414      1445      1450
      1415      1417      1420      1421      1415      1417      1420      1422
      1415      1417      1420      1443      1416      1415      1414      1445
      1416      1415      1417      1418      1416      1415      1417      1419
      1416      1415      1417      1420      1417      1415      1414      1445
      1417      1420      1422      1423      1417      1420      1422      1424
      1417      1420      1422      1432      1417      1420      1443      1440
      1417      1420      1443      1444      1417      1420      1443      1445
      1418      1417      1420      1421      1418      1417      1420      1422
      1418      1417      1420      1443      1419      1417      1420      1421
      1419      1417      1420      1422      1419      1417      1420      1443
      1420      1422      1424      1425      1420      1422      1424      1426
      1420      1422      1424      1427      1420      1422      1432      1430
      1420      1422      1432      1433      1420      1422      1432      1437
      1420      1443      1440      1437      1420      1443      1440      1441
      1420      1443      1440      1442      1420      1443      1445      1446
      1420      1443      1445      1450      1421      1420      1422      1423
      1421      1420      1422      1424      1421      1420      1422      1432
      1421      1420      1443      1440      1421      1420      1443      1444
      1421      1420      1443      1445      1422      1420      1443      1440
      1422      1420      1443      1444      1422      1420      1443      1445
      1422      1424      1427      1428      1422      1424      1427      1429
      1422      1424      1427      1430      1422      1432      1430      1427
      1422      1432      1430      1431      1422      1432      1430      1456
      1422      1432      1433      1434      1422      1432      1433      1435
      1422      1432      1433      1436      1422      1432      1437      1438
      1422      1432      1437      1439      1422      1432      1437      1440
      1423      1422      1420      1443      1423      1422      1424      1425
      1423      1422      1424      1426      1423      1422      1424      1427
      1423      1422      1432      1430      1423      1422      1432      1433
      1423      1422      1432      1437      1424      1422      1420      1443
      1424      1422      1432      1430      1424      1422      1432      1433
      1424      1422      1432      1437      1424      1427      1430      1431
      1424      1427      1430      1432      1424      1427      1430      1456
      1425      1424      1422      1432      1425      1424      1427      1428
      1425      1424      1427      1429      1425      1424      1427      1430
      1426      1424      1422      1432      1426      1424      1427      1428
      1426      1424      1427      1429      1426      1424      1427      1430
      1427      1424      1422      1432      1427      1430      1432      1433
      1427      1430      1432      1437      1427      1430      1456      1457
      1427      1430      1456      1458      1427      1430      1456      1462
      1428      1427      1430      1431      1428      1427      1430      1432
      1428      1427      1430      1456      1429      1427      1430      1431
      1429      1427      1430      1432      1429      1427      1430      1456
      1430      1432      1433      1434      1430      1432      1433      1435
      1430      1432      1433      1436      1430      1432      1437      1438
      1430      1432      1437      1439      1430      1432      1437      1440
      1430      1456      1458      1459      1430      1456      1458      1460
      1430      1456      1458      1461      1430      1456      1462      1463
      1430      1456      1462      1464      1430      1456      1462      1465
      1431      1430      1432      1433      1431      1430      1432      1437
      1431      1430      1456      1457      1431      1430      1456      1458
      1431      1430      1456      1462      1432      1422      1420      1443
      1432      1430      1456      1457      1432      1430      1456      1458
      1432      1430      1456      1462      1432      1437      1440      1441
      1432      1437      1440      1442      1432      1437      1440      1443
      1433      1432      1430      1456      1433      1432      1437      1438
      1433      1432      1437      1439      1433      1432      1437      1440
      1434      1433      1432      1437      1435      1433      1432      1437
      1436      1433      1432      1437      1437      1432      1430      1456
      1437      1440      1443      1444      1437      1440      1443      1445
      1438      1437      1440      1441      1438      1437      1440      1442
      1438      1437      1440      1443      1439      1437      1440      1441
      1439      1437      1440      1442      1439      1437      1440      1443
      1440      1443      1445      1446      1440      1443      1445      1450
      1441      1440      1443      1444      1441      1440      1443      1445
      1442      1440      1443      1444      1442      1440      1443      1445
      1443      1445      1446      1447      1443      1445      1446      1448
      1443      1445      1446      1449      1443      1445      1450      1451
      1443      1445      1450      1452      1443      1445      1450      1453
      1444      1443      1445      1446      1444      1443      1445      1450
      1445      1450      1453      1454      1445      1450      1453      1455
      1446      1445      1450      1451      1446      1445      1450      1452
      1446      1445      1450      1453      1447      1446      1445      1450
      1448      1446      1445      1450      1449      1446      1445      1450
      1451      1450      1453      1454      1451      1450      1453      1455
      1452      1450      1453      1454      1452      1450      1453      1455
      1456      1462      1465      1466      1456      1462      1465      1467
      1456      1462      1465      1468      1457      1456      1458      1459
      1457      1456      1458      1460      1457      1456      1458      1461
      1457      1456      1462      1463      1457      1456      1462      1464
      1457      1456      1462      1465      1458      1456      1462      1463
      1458      1456      1462      1464      1458      1456      1462      1465
      1459      1458      1456      1462      1460      1458      1456      1462
      1461      1458      1456      1462      1462      1465      1468      1469
      1462      1465      1468      1470      1462      1465      1468      1471
      1463      1462      1465      1466      1463      1462      1465      1467
      1463      1462      1465      1468      1464      1462      1465      1466
      1464      1462      1465      1467      1464      1462      1465      1468
      1465      1468      1471      1472      1465      1468      1471      1473
      1465      1468      1471      1477      1466      1465      1468      1469
      1466      1465      1468      1470      1466      1465      1468      1471
      1467      1465      1468      1469      1467      1465      1468      1470
      1467      1465      1468      1471      1468      1471      1473      1474
      1468      1471      1473      1475      1468      1471      1473      1476
      1468      1471      1477      1478      1468      1471      1477      1479
      1468      1471      1477      1480      1469      1468      1471      1472
      1469      1468      1471      1473      1469      1468      1471      1477
      1470      1468      1471      1472      1470      1468      1471      1473
      1470      1468      1471      1477      1472      1471      1473      1474
      1472      1471      1473      1475      1472      1471      1473      1476
      1472      1471      1477      1478      1472      1471      1477      1479
      1472      1471      1477      1480      1473      1471      1477      1478
      1473      1471      1477      1479      1473      1471      1477      1480
      1474      1473      1471      1477      1475      1473      1471      1477
      1476      1473      1471      1477     11646     11650     11652     11653
     11646     11650     11652     11654     11646     11650     11655     11656
     11646     11650     11655     11657     11646     11650     11655     11661
     11647     11646     11650     11651     11647     11646     11650     11652
     11647     11646     11650     11655     11648     11646     11650     11651
     11648     11646     11650     11652     11648     11646     11650     11655
     11649     11646     11650     11651     11649     11646     11650     11652
     11649     11646     11650     11655     11650     11655     11661     11658
     11651     11650     11652     11653     11651     11650     11652     11654
     11651     11650     11655     11656     11651     11650     11655     11657
     11651     11650     11655     11661     11652     11650     11655     11656
     11652     11650     11655     11657     11652     11650     11655     11661
     11653     11652     11650     11655     11654     11652     11650     11655
     11655     11661     11658     11659     11655     11661     11658     11660
     11655     11661     11658     11662     11656     11655     11661     11658
     11657     11655     11661     11658     11658     11662     11663     11664
     11658     11662     11663     11665     11658     11662     11663     11666
     11659     11658     11662     11663     11660     11658     11662     11663
     11661     11658     11662     11663     11662     11663     11666     11667
     11662     11663     11666     11668     11662     11663     11666     11674
     11663     11666     11668     11669     11663     11666     11674     11675
     11663     11666     11674     11676     11663     11666     11674     11677
     11664     11663     11666     11667     11664     11663     11666     11668
     11664     11663     11666     11674     11665     11663     11666     11667
     11665     11663     11666     11668     11665     11663     11666     11674
     11666     11668     11669     11670     11666     11668     11669     11671
     11666     11674     11677     11678     11667     11666     11668     11669
     11667     11666     11674     11675     11667     11666     11674     11676
     11667     11666     11674     11677     11668     11666     11674     11675
     11668     11666     11674     11676     11668     11666     11674     11677
     11668     11669     11671     11672     11668     11669     11671     11673
     11668     11669     11671     11683     11669     11668     11666     11674
     11669     11671     11683     11684     11669     11671     11683     11685
     11669     11671     11683     11686     11670     11669     11671     11672
     11670     11669     11671     11673     11670     11669     11671     11683
     11671     11683     11686     11687     11671     11683     11686     11688
     11671     11683     11686     11689     11672     11671     11683     11684
     11672     11671     11683     11685     11672     11671     11683     11686
     11673     11671     11683     11684     11673     11671     11683     11685
     11673     11671     11683     11686     11674     11677     11678     11679
     11674     11677     11678     11680     11675     11674     11677     11678
     11676     11674     11677     11678     11677     11678     11680     11681
     11677     11678     11680     11682     11677     11678     11680     11730
     11678     11680     11730     11731     11678     11680     11730     11732
     11678     11680     11730     11733     11679     11678     11680     11681
     11679     11678     11680     11682     11679     11678     11680     11730
     11680     11730     11733     11734     11680     11730     11733     11735
     11680     11730     11733     11736     11681     11680     11730     11731
     11681     11680     11730     11732     11681     11680     11730     11733
     11682     11680     11730     11731     11682     11680     11730     11732
     11682     11680     11730     11733     11683     11686     11689     11690
     11683     11686     11689     11691     11683     11686     11689     11692
     11684     11683     11686     11687     11684     11683     11686     11688
     11684     11683     11686     11689     11685     11683     11686     11687
     11685     11683     11686     11688     11685     11683     11686     11689
     11686     11689     11692     11693     11686     11689     11692     11694
     11686     11689     11692     11695     11687     11686     11689     11690
     11687     11686     11689     11691     11687     11686     11689     11692
     11688     11686     11689     11690     11688     11686     11689     11691
     11688     11686     11689     11692     11689     11692     11695     11696
     11689     11692     11695     11697     11689     11692     11695     11698
     11690     11689     11692     11693     11690     11689     11692     11694
     11690     11689     11692     11695     11691     11689     11692     11693
     11691     11689     11692     11694     11691     11689     11692     11695
     11692     11695     11698     11699     11692     11695     11698     11700
     11692     11695     11698     11701     11693     11692     11695     11696
     11693     11692     11695     11697     11693     11692     11695     11698
     11694     11692     11695     11696     11694     11692     11695     11697
     11694     11692     11695     11698     11695     11698     11701     11702
     11695     11698     11701     11703     11696     11695     11698     11699
     11696     11695     11698     11700     11696     11695     11698     11701
     11697     11695     11698     11699     11697     11695     11698     11700
     11697     11695     11698     11701     11698     11701     11703     11704
     11698     11701     11703     11705     11699     11698     11701     11702
     11699     11698     11701     11703     11700     11698     11701     11702
     11700     11698     11701     11703     11701     11703     11705     11706
     11701     11703     11705     11707     11701     11703     11705     11708
     11702     11701     11703     11704     11702     11701     11703     11705
     11703     11705     11708     11709     11703     11705     11708     11710
     11703     11705     11708     11711     11704     11703     11705     11706
     11704     11703     11705     11707     11704     11703     11705     11708
     11705     11708     11711     11712     11705     11708     11711     11713
     11705     11708     11711     11714     11706     11705     11708     11709
     11706     11705     11708     11710     11706     11705     11708     11711
     11707     11705     11708     11709     11707     11705     11708     11710
     11707     11705     11708     11711     11708     11711     11714     11715
     11708     11711     11714     11716     11708     11711     11714     11717
     11709     11708     11711     11712     11709     11708     11711     11713
     11709     11708     11711     11714     11710     11708     11711     11712
     11710     11708     11711     11713     11710     11708     11711     11714
     11711     11714     11717     11718     11711     11714     11717     11719
     11711     11714     11717     11720     11712     11711     11714     11715
     11712     11711     11714     11716     11712     11711     11714     11717
     11713     11711     11714     11715     11713     11711     11714     11716
     11713     11711     11714     11717     11714     11717     11720     11721
     11714     11717     11720     11722     11714     11717     11720     11723
     11715     11714     11717     11718     11715     11714     11717     11719
     11715     11714     11717     11720     11716     11714     11717     11718
     11716     11714     11717     11719     11716     11714     11717     11720
     11717     11720     11723     11724     11717     11720     11723     11725
     11717     11720     11723     11726     11718     11717     11720     11721
     11718     11717     11720     11722     11718     11717     11720     11723
     11719     11717     11720     11721     11719     11717     11720     11722
     11719     11717     11720     11723     11720     11723     11726     11727
     11720     11723     11726     11728     11720     11723     11726     11729
     11721     11720     11723     11724     11721     11720     11723     11725
     11721     11720     11723     11726     11722     11720     11723     11724
     11722     11720     11723     11725     11722     11720     11723     11726
     11724     11723     11726     11727     11724     11723     11726     11728
     11724     11723     11726     11729     11725     11723     11726     11727
     11725     11723     11726     11728     11725     11723     11726     11729
     11730     11733     11736     11737     11730     11733     11736     11738
     11730     11733     11736     11739     11731     11730     11733     11734
     11731     11730     11733     11735     11731     11730     11733     11736
     11732     11730     11733     11734     11732     11730     11733     11735
     11732     11730     11733     11736     11733     11736     11739     11740
     11733     11736     11739     11741     11733     11736     11739     11742
     11734     11733     11736     11737     11734     11733     11736     11738
     11734     11733     11736     11739     11735     11733     11736     11737
     11735     11733     11736     11738     11735     11733     11736     11739
     11736     11739     11742     11743     11736     11739     11742     11744
     11736     11739     11742     11745     11737     11736     11739     11740
     11737     11736     11739     11741     11737     11736     11739     11742
     11738     11736     11739     11740     11738     11736     11739     11741
     11738     11736     11739     11742     11739     11742     11745     11746
     11739     11742     11745     11747     11739     11742     11745     11748
     11740     11739     11742     11743     11740     11739     11742     11744
     11740     11739     11742     11745     11741     11739     11742     11743
     11741     11739     11742     11744     11741     11739     11742     11745
     11742     11745     11748     11749     11742     11745     11748     11750
     11742     11745     11748     11751     11743     11742     11745     11746
     11743     11742     11745     11747     11743     11742     11745     11748
     11744     11742     11745     11746     11744     11742     11745     11747
     11744     11742     11745     11748     11745     11748     11751     11752
     11745     11748     11751     11753     11745     11748     11751     11754
     11746     11745     11748     11749     11746     11745     11748     11750
     11746     11745     11748     11751     11747     11745     11748     11749
     11747     11745     11748     11750     11747     11745     11748     11751
     11748     11751     11754     11755     11748     11751     11754     11756
     11748     11751     11754     11757     11749     11748     11751     11752
     11749     11748     11751     11753     11749     11748     11751     11754
     11750     11748     11751     11752     11750     11748     11751     11753
     11750     11748     11751     11754     11751     11754     11757     11758
     11751     11754     11757     11759     11751     11754     11757     11760
     11752     11751     11754     11755     11752     11751     11754     11756
     11752     11751     11754     11757     11753     11751     11754     11755
     11753     11751     11754     11756     11753     11751     11754     11757
     11754     11757     11760     11761     11754     11757     11760     11762
     11754     11757     11760     11763     11755     11754     11757     11758
     11755     11754     11757     11759     11755     11754     11757     11760
     11756     11754     11757     11758     11756     11754     11757     11759
     11756     11754     11757     11760     11757     11760     11763     11764
     11757     11760     11763     11765     11757     11760     11763     11766
     11758     11757     11760     11761     11758     11757     11760     11762
     11758     11757     11760     11763     11759     11757     11760     11761
     11759     11757     11760     11762     11759     11757     11760     11763
     11760     11763     11766     11767     11760     11763     11766     11768
     11760     11763     11766     11769     11761     11760     11763     11764
     11761     11760     11763     11765     11761     11760     11763     11766
     11762     11760     11763     11764     11762     11760     11763     11765
     11762     11760     11763     11766     11763     11766     11769     11770
     11763     11766     11769     11771     11763     11766     11769     11772
     11764     11763     11766     11767     11764     11763     11766     11768
     11764     11763     11766     11769     11765     11763     11766     11767
     11765     11763     11766     11768     11765     11763     11766     11769
     11767     11766     11769     11770     11767     11766     11769     11771
     11767     11766     11769     11772     11768     11766     11769     11770
     11768     11766     11769     11771     11768     11766     11769     11772
      5971      5975      5978      5979      5971      5975      5978      5980
      5971      5975      5978      5985      5972      5971      5975      5976
      5972      5971      5975      5977      5972      5971      5975      5978
      5973      5971      5975      5976      5973      5971      5975      5977
      5973      5971      5975      5978      5974      5971      5975      5976
      5974      5971      5975      5977      5974      5971      5975      5978
      5975      5978      5985      5981      5976      5975      5978      5979
      5976      5975      5978      5980      5976      5975      5978      5985
      5977      5975      5978      5979      5977      5975      5978      5980
      5977      5975      5978      5985      5978      5985      5981      5982
      5978      5985      5981      5983      5978      5985      5981      5984
      5979      5978      5985      5981      5980      5978      5985      5981
      5981      5984      5986      5987      5981      5984      5986      5988
      5981      5984      5986      5989      5982      5981      5984      5986
      5983      5981      5984      5986      5984      5986      5989      5990
      5984      5986      5989      5991      5984      5986      5989      5997
      5985      5981      5984      5986      5986      5989      5991      5992
      5986      5989      5997      5998      5986      5989      5997      5999
      5986      5989      5997      6000      5987      5986      5989      5990
      5987      5986      5989      5991      5987      5986      5989      5997
      5988      5986      5989      5990      5988      5986      5989      5991
      5988      5986      5989      5997      5989      5991      5992      5993
      5989      5991      5992      5994      5989      5997      6000      6001
      5990      5989      5991      5992      5990      5989      5997      5998
      5990      5989      5997      5999      5990      5989      5997      6000
      5991      5989      5997      5998      5991      5989      5997      5999
      5991      5989      5997      6000      5991      5992      5994      5995
      5991      5992      5994      5996      5991      5992      5994      6006
      5992      5991      5989      5997      5992      5994      6006      6007
      5992      5994      6006      6008      5992      5994      6006      6009
      5993      5992      5994      5995      5993      5992      5994      5996
      5993      5992      5994      6006      5994      6006      6009      6010
      5994      6006      6009      6011      5994      6006      6009      6012
      5995      5994      6006      6007      5995      5994      6006      6008
      5995      5994      6006      6009      5996      5994      6006      6007
      5996      5994      6006      6008      5996      5994      6006      6009
      5997      6000      6001      6002      5997      6000      6001      6003
      5998      5997      6000      6001      5999      5997      6000      6001
      6000      6001      6003      6004      6000      6001      6003      6005
      6000      6001      6003      6053      6001      6003      6053      6054
      6001      6003      6053      6055      6001      6003      6053      6056
      6002      6001      6003      6004      6002      6001      6003      6005
      6002      6001      6003      6053      6003      6053      6056      6057
      6003      6053      6056      6058      6003      6053      6056      6059
      6004      6003      6053      6054      6004      6003      6053      6055
      6004      6003      6053      6056      6005      6003      6053      6054
      6005      6003      6053      6055      6005      6003      6053      6056
      6006      6009      6012      6013      6006      6009      6012      6014
      6006      6009      6012      6015      6007      6006      6009      6010
      6007      6006      6009      6011      6007      6006      6009      6012
      6008      6006      6009      6010      6008      6006      6009      6011
      6008      6006      6009      6012      6009      6012      6015      6016
      6009      6012      6015      6017      6009      6012      6015      6018
      6010      6009      6012      6013      6010      6009      6012      6014
      6010      6009      6012      6015      6011      6009      6012      6013
      6011      6009      6012      6014      6011      6009      6012      6015
      6012      6015      6018      6019      6012      6015      6018      6020
      6012      6015      6018      6021      6013      6012      6015      6016
      6013      6012      6015      6017      6013      6012      6015      6018
      6014      6012      6015      6016      6014      6012      6015      6017
      6014      6012      6015      6018      6015      6018      6021      6022
      6015      6018      6021      6023      6015      6018      6021      6024
      6016      6015      6018      6019      6016      6015      6018      6020
      6016      6015      6018      6021      6017      6015      6018      6019
      6017      6015      6018      6020      6017      6015      6018      6021
      6018      6021      6024      6025      6018      6021      6024      6026
      6019      6018      6021      6022      6019      6018      6021      6023
      6019      6018      6021      6024      6020      6018      6021      6022
      6020      6018      6021      6023      6020      6018      6021      6024
      6021      6024      6026      6027      6021      6024      6026      6028
      6022      6021      6024      6025      6022      6021      6024      6026
      6023      6021      6024      6025      6023      6021      6024      6026
      6024      6026      6028      6029      6024      6026      6028      6030
      6024      6026      6028      6031      6025      6024      6026      6027
      6025      6024      6026      6028      6026      6028      6031      6032
      6026      6028      6031      6033      6026      6028      6031      6034
      6027      6026      6028      6029      6027      6026      6028      6030
      6027      6026      6028      6031      6028      6031      6034      6035
      6028      6031      6034      6036      6028      6031      6034      6037
      6029      6028      6031      6032      6029      6028      6031      6033
      6029      6028      6031      6034      6030      6028      6031      6032
      6030      6028      6031      6033      6030      6028      6031      6034
      6031      6034      6037      6038      6031      6034      6037      6039
      6031      6034      6037      6040      6032      6031      6034      6035
      6032      6031      6034      6036      6032      6031      6034      6037
      6033      6031      6034      6035      6033      6031      6034      6036
      6033      6031      6034      6037      6034      6037      6040      6041
      6034      6037      6040      6042      6034      6037      6040      6043
      6035      6034      6037      6038      6035      6034      6037      6039
      6035      6034      6037      6040      6036      6034      6037      6038
      6036      6034      6037      6039      6036      6034      6037      6040
      6037      6040      6043      6044      6037      6040      6043      6045
      6037      6040      6043      6046      6038      6037      6040      6041
      6038      6037      6040      6042      6038      6037      6040      6043
      6039      6037      6040      6041      6039      6037      6040      6042
      6039      6037      6040      6043      6040      6043      6046      6047
      6040      6043      6046      6048      6040      6043      6046      6049
      6041      6040      6043      6044      6041      6040      6043      6045
      6041      6040      6043      6046      6042      6040      6043      6044
      6042      6040      6043      6045      6042      6040      6043      6046
      6043      6046      6049      6050      6043      6046      6049      6051
      6043      6046      6049      6052      6044      6043      6046      6047
      6044      6043      6046      6048      6044      6043      6046      6049
      6045      6043      6046      6047      6045      6043      6046      6048
      6045      6043      6046      6049      6047      6046      6049      6050
      6047      6046      6049      6051      6047      6046      6049      6052
      6048      6046      6049      6050      6048      6046      6049      6051
      6048      6046      6049      6052      6053      6056      6059      6060
      6053      6056      6059      6061      6053      6056      6059      6062
      6054      6053      6056      6057      6054      6053      6056      6058
      6054      6053      6056      6059      6055      6053      6056      6057
      6055      6053      6056      6058      6055      6053      6056      6059
      6056      6059      6062      6063      6056      6059      6062      6064
      6056      6059      6062      6065      6057      6056      6059      6060
      6057      6056      6059      6061      6057      6056      6059      6062
      6058      6056      6059      6060      6058      6056      6059      6061
      6058      6056      6059      6062      6059      6062      6065      6066
      6059      6062      6065      6067      6059      6062      6065      6068
      6060      6059      6062      6063      6060      6059      6062      6064
      6060      6059      6062      6065      6061      6059      6062      6063
      6061      6059      6062      6064      6061      6059      6062      6065
      6062      6065      6068      6069      6062      6065      6068      6070
      6062      6065      6068      6071      6063      6062      6065      6066
      6063      6062      6065      6067      6063      6062      6065      6068
      6064      6062      6065      6066      6064      6062      6065      6067
      6064      6062      6065      6068      6065      6068      6071      6072
      6065      6068      6071      6073      6065      6068      6071      6074
      6066      6065      6068      6069      6066      6065      6068      6070
      6066      6065      6068      6071      6067      6065      6068      6069
      6067      6065      6068      6070      6067      6065      6068      6071
      6068      6071      6074      6075      6068      6071      6074      6076
      6068      6071      6074      6077      6069      6068      6071      6072
      6069      6068      6071      6073      6069      6068      6071      6074
      6070      6068      6071      6072      6070      6068      6071      6073
      6070      6068      6071      6074      6071      6074      6077      6078
      6071      6074      6077      6079      6071      6074      6077      6080
      6072      6071      6074      6075      6072      6071      6074      6076
      6072      6071      6074      6077      6073      6071      6074      6075
      6073      6071      6074      6076      6073      6071      6074      6077
      6074      6077      6080      6081      6074      6077      6080      6082
      6074      6077      6080      6083      6075      6074      6077      6078
      6075      6074      6077      6079      6075      6074      6077      6080
      6076      6074      6077      6078      6076      6074      6077      6079
      6076      6074      6077      6080      6077      6080      6083      6084
      6077      6080      6083      6085      6077      6080      6083      6086
      6078      6077      6080      6081      6078      6077      6080      6082
      6078      6077      6080      6083      6079      6077      6080      6081
      6079      6077      6080      6082      6079      6077      6080      6083
      6080      6083      6086      6087      6080      6083      6086      6088
      6080      6083      6086      6089      6081      6080      6083      6084
      6081      6080      6083      6085      6081      6080      6083      6086
      6082      6080      6083      6084      6082      6080      6083      6085
      6082      6080      6083      6086      6083      6086      6089      6090
      6083      6086      6089      6091      6083      6086      6089      6092
      6084      6083      6086      6087      6084      6083      6086      6088
      6084      6083      6086      6089      6085      6083      6086      6087
      6085      6083      6086      6088      6085      6083      6086      6089
      6086      6089      6092      6093      6086      6089      6092      6094
      6086      6089      6092      6095      6087      6086      6089      6090
      6087      6086      6089      6091      6087      6086      6089      6092
      6088      6086      6089      6090      6088      6086      6089      6091
      6088      6086      6089      6092      6090      6089      6092      6093
      6090      6089      6092      6094      6090      6089      6092      6095
      6091      6089      6092      6093      6091      6089      6092      6094
      6091      6089      6092      6095     18643     18644     18659     18660
     18643     18644     18659     18661     18643     18644     18659     18665
     18644     18643     18647     18648     18644     18643     18647     18649
     18644     18643     18647     18650     18644     18643     18651     18652
     18644     18643     18651     18653     18644     18643     18651     18654
     18644     18643     18655     18656     18644     18643     18655     18657
     18644     18643     18655     18658     18644     18659     18665     18662
     18645     18644     18643     18647     18645     18644     18643     18651
     18645     18644     18643     18655     18645     18644     18659     18660
     18645     18644     18659     18661     18645     18644     18659     18665
     18646     18644     18643     18647     18646     18644     18643     18651
     18646     18644     18643     18655     18646     18644     18659     18660
     18646     18644     18659     18661     18646     18644     18659     18665
     18647     18643     18644     18659     18647     18643     18651     18652
     18647     18643     18651     18653     18647     18643     18651     18654
     18647     18643     18655     18656     18647     18643     18655     18657
     18647     18643     18655     18658     18648     18647     18643     18651
     18648     18647     18643     18655     18649     18647     18643     18651
     18649     18647     18643     18655     18650     18647     18643     18651
     18650     18647     18643     18655     18651     18643     18644     18659
     18651     18643     18655     18656     18651     18643     18655     18657
     18651     18643     18655     18658     18652     18651     18643     18655
     18653     18651     18643     18655     18654     18651     18643     18655
     18655     18643     18644     18659     18659     18665     18662     18663
     18659     18665     18662     18664     18659     18665     18662     18666
     18660     18659     18665     18662     18661     18659     18665     18662
     18662     18666     18667     18668     18662     18666     18667     18669
     18662     18666     18667     18670     18663     18662     18666     18667
     18664     18662     18666     18667     18665     18662     18666     18667
     18666     18667     18670     18671     18666     18667     18670     18672
     18666     18667     18670     18678     18667     18670     18672     18673
     18667     18670     18678     18679     18667     18670     18678     18680
     18667     18670     18678     18681     18668     18667     18670     18671
     18668     18667     18670     18672     18668     18667     18670     18678
     18669     18667     18670     18671     18669     18667     18670     18672
     18669     18667     18670     18678     18670     18672     18673     18674
     18670     18672     18673     18675     18670     18678     18681     18682
     18671     18670     18672     18673     18671     18670     18678     18679
     18671     18670     18678     18680     18671     18670     18678     18681
     18672     18670     18678     18679     18672     18670     18678     18680
     18672     18670     18678     18681     18672     18673     18675     18676
     18672     18673     18675     18677     18672     18673     18675     18687
     18673     18672     18670     18678     18673     18675     18687     18688
     18673     18675     18687     18689     18673     18675     18687     18690
     18674     18673     18675     18676     18674     18673     18675     18677
     18674     18673     18675     18687     18675     18687     18690     18691
     18675     18687     18690     18692     18675     18687     18690     18693
     18676     18675     18687     18688     18676     18675     18687     18689
     18676     18675     18687     18690     18677     18675     18687     18688
     18677     18675     18687     18689     18677     18675     18687     18690
     18678     18681     18682     18683     18678     18681     18682     18684
     18679     18678     18681     18682     18680     18678     18681     18682
     18681     18682     18684     18685     18681     18682     18684     18686
     18681     18682     18684     18734     18682     18684     18734     18735
     18682     18684     18734     18736     18682     18684     18734     18737
     18683     18682     18684     18685     18683     18682     18684     18686
     18683     18682     18684     18734     18684     18734     18737     18738
     18684     18734     18737     18739     18684     18734     18737     18740
     18685     18684     18734     18735     18685     18684     18734     18736
     18685     18684     18734     18737     18686     18684     18734     18735
     18686     18684     18734     18736     18686     18684     18734     18737
     18687     18690     18693     18694     18687     18690     18693     18695
     18687     18690     18693     18696     18688     18687     18690     18691
     18688     18687     18690     18692     18688     18687     18690     18693
     18689     18687     18690     18691     18689     18687     18690     18692
     18689     18687     18690     18693     18690     18693     18696     18697
     18690     18693     18696     18698     18690     18693     18696     18699
     18691     18690     18693     18694     18691     18690     18693     18695
     18691     18690     18693     18696     18692     18690     18693     18694
     18692     18690     18693     18695     18692     18690     18693     18696
     18693     18696     18699     18700     18693     18696     18699     18701
     18693     18696     18699     18702     18694     18693     18696     18697
     18694     18693     18696     18698     18694     18693     18696     18699
     18695     18693     18696     18697     18695     18693     18696     18698
     18695     18693     18696     18699     18696     18699     18702     18703
     18696     18699     18702     18704     18696     18699     18702     18705
     18697     18696     18699     18700     18697     18696     18699     18701
     18697     18696     18699     18702     18698     18696     18699     18700
     18698     18696     18699     18701     18698     18696     18699     18702
     18699     18702     18705     18706     18699     18702     18705     18707
     18700     18699     18702     18703     18700     18699     18702     18704
     18700     18699     18702     18705     18701     18699     18702     18703
     18701     18699     18702     18704     18701     18699     18702     18705
     18702     18705     18707     18708     18702     18705     18707     18709
     18703     18702     18705     18706     18703     18702     18705     18707
     18704     18702     18705     18706     18704     18702     18705     18707
     18705     18707     18709     18710     18705     18707     18709     18711
     18705     18707     18709     18712     18706     18705     18707     18708
     18706     18705     18707     18709     18707     18709     18712     18713
     18707     18709     18712     18714     18707     18709     18712     18715
     18708     18707     18709     18710     18708     18707     18709     18711
     18708     18707     18709     18712     18709     18712     18715     18716
     18709     18712     18715     18717     18709     18712     18715     18718
     18710     18709     18712     18713     18710     18709     18712     18714
     18710     18709     18712     18715     18711     18709     18712     18713
     18711     18709     18712     18714     18711     18709     18712     18715
     18712     18715     18718     18719     18712     18715     18718     18720
     18712     18715     18718     18721     18713     18712     18715     18716
     18713     18712     18715     18717     18713     18712     18715     18718
     18714     18712     18715     18716     18714     18712     18715     18717
     18714     18712     18715     18718     18715     18718     18721     18722
     18715     18718     18721     18723     18715     18718     18721     18724
     18716     18715     18718     18719     18716     18715     18718     18720
     18716     18715     18718     18721     18717     18715     18718     18719
     18717     18715     18718     18720     18717     18715     18718     18721
     18718     18721     18724     18725     18718     18721     18724     18726
     18718     18721     18724     18727     18719     18718     18721     18722
     18719     18718     18721     18723     18719     18718     18721     18724
     18720     18718     18721     18722     18720     18718     18721     18723
     18720     18718     18721     18724     18721     18724     18727     18728
     18721     18724     18727     18729     18721     18724     18727     18730
     18722     18721     18724     18725     18722     18721     18724     18726
     18722     18721     18724     18727     18723     18721     18724     18725
     18723     18721     18724     18726     18723     18721     18724     18727
     18724     18727     18730     18731     18724     18727     18730     18732
     18724     18727     18730     18733     18725     18724     18727     18728
     18725     18724     18727     18729     18725     18724     18727     18730
     18726     18724     18727     18728     18726     18724     18727     18729
     18726     18724     18727     18730     18728     18727     18730     18731
     18728     18727     18730     18732     18728     18727     18730     18733
     18729     18727     18730     18731     18729     18727     18730     18732
     18729     18727     18730     18733     18734     18737     18740     18741
     18734     18737     18740     18742     18734     18737     18740     18743
     18735     18734     18737     18738     18735     18734     18737     18739
     18735     18734     18737     18740     18736     18734     18737     18738
     18736     18734     18737     18739     18736     18734     18737     18740
     18737     18740     18743     18744     18737     18740     18743     18745
     18737     18740     18743     18746     18738     18737     18740     18741
     18738     18737     18740     18742     18738     18737     18740     18743
     18739     18737     18740     18741     18739     18737     18740     18742
     18739     18737     18740     18743     18740     18743     18746     18747
     18740     18743     18746     18748     18740     18743     18746     18749
     18741     18740     18743     18744     18741     18740     18743     18745
     18741     18740     18743     18746     18742     18740     18743     18744
     18742     18740     18743     18745     18742     18740     18743     18746
     18743     18746     18749     18750     18743     18746     18749     18751
     18743     18746     18749     18752     18744     18743     18746     18747
     18744     18743     18746     18748     18744     18743     18746     18749
     18745     18743     18746     18747     18745     18743     18746     18748
     18745     18743     18746     18749     18746     18749     18752     18753
     18746     18749     18752     18754     18746     18749     18752     18755
     18747     18746     18749     18750     18747     18746     18749     18751
     18747     18746     18749     18752     18748     18746     18749     18750
     18748     18746     18749     18751     18748     18746     18749     18752
     18749     18752     18755     18756     18749     18752     18755     18757
     18749     18752     18755     18758     18750     18749     18752     18753
     18750     18749     18752     18754     18750     18749     18752     18755
     18751     18749     18752     18753     18751     18749     18752     18754
     18751     18749     18752     18755     18752     18755     18758     18759
     18752     18755     18758     18760     18752     18755     18758     18761
     18753     18752     18755     18756     18753     18752     18755     18757
     18753     18752     18755     18758     18754     18752     18755     18756
     18754     18752     18755     18757     18754     18752     18755     18758
     18755     18758     18761     18762     18755     18758     18761     18763
     18755     18758     18761     18764     18756     18755     18758     18759
     18756     18755     18758     18760     18756     18755     18758     18761
     18757     18755     18758     18759     18757     18755     18758     18760
     18757     18755     18758     18761     18758     18761     18764     18765
     18758     18761     18764     18766     18758     18761     18764     18767
     18759     18758     18761     18762     18759     18758     18761     18763
     18759     18758     18761     18764     18760     18758     18761     18762
     18760     18758     18761     18763     18760     18758     18761     18764
     18761     18764     18767     18768     18761     18764     18767     18769
     18761     18764     18767     18770     18762     18761     18764     18765
     18762     18761     18764     18766     18762     18761     18764     18767
     18763     18761     18764     18765     18763     18761     18764     18766
     18763     18761     18764     18767     18764     18767     18770     18771
     18764     18767     18770     18772     18764     18767     18770     18773
     18765     18764     18767     18768     18765     18764     18767     18769
     18765     18764     18767     18770     18766     18764     18767     18768
     18766     18764     18767     18769     18766     18764     18767     18770
     18767     18770     18773     18774     18767     18770     18773     18775
     18767     18770     18773     18776     18768     18767     18770     18771
     18768     18767     18770     18772     18768     18767     18770     18773
     18769     18767     18770     18771     18769     18767     18770     18772
     18769     18767     18770     18773     18771     18770     18773     18774
     18771     18770     18773     18775     18771     18770     18773     18776
     18772     18770     18773     18774     18772     18770     18773     18775
     18772     18770     18773     18776     18777     18778     18793     18794
     18777     18778     18793     18795     18777     18778     18793     18799
     18778     18777     18781     18782     18778     18777     18781     18783
     18778     18777     18781     18784     18778     18777     18785     18786
     18778     18777     18785     18787     18778     18777     18785     18788
     18778     18777     18789     18790     18778     18777     18789     18791
     18778     18777     18789     18792     18778     18793     18799     18796
     18779     18778     18777     18781     18779     18778     18777     18785
     18779     18778     18777     18789     18779     18778     18793     18794
     18779     18778     18793     18795     18779     18778     18793     18799
     18780     18778     18777     18781     18780     18778     18777     18785
     18780     18778     18777     18789     18780     18778     18793     18794
     18780     18778     18793     18795     18780     18778     18793     18799
     18781     18777     18778     18793     18781     18777     18785     18786
     18781     18777     18785     18787     18781     18777     18785     18788
     18781     18777     18789     18790     18781     18777     18789     18791
     18781     18777     18789     18792     18782     18781     18777     18785
     18782     18781     18777     18789     18783     18781     18777     18785
     18783     18781     18777     18789     18784     18781     18777     18785
     18784     18781     18777     18789     18785     18777     18778     18793
     18785     18777     18789     18790     18785     18777     18789     18791
     18785     18777     18789     18792     18786     18785     18777     18789
     18787     18785     18777     18789     18788     18785     18777     18789
     18789     18777     18778     18793     18793     18799     18796     18797
     18793     18799     18796     18798     18793     18799     18796     18800
     18794     18793     18799     18796     18795     18793     18799     18796
     18796     18800     18801     18802     18796     18800     18801     18803
     18796     18800     18801     18804     18797     18796     18800     18801
     18798     18796     18800     18801     18799     18796     18800     18801
     18800     18801     18804     18805     18800     18801     18804     18806
     18800     18801     18804     18812     18801     18804     18806     18807
     18801     18804     18812     18813     18801     18804     18812     18814
     18801     18804     18812     18815     18802     18801     18804     18805
     18802     18801     18804     18806     18802     18801     18804     18812
     18803     18801     18804     18805     18803     18801     18804     18806
     18803     18801     18804     18812     18804     18806     18807     18808
     18804     18806     18807     18809     18804     18812     18815     18816
     18805     18804     18806     18807     18805     18804     18812     18813
     18805     18804     18812     18814     18805     18804     18812     18815
     18806     18804     18812     18813     18806     18804     18812     18814
     18806     18804     18812     18815     18806     18807     18809     18810
     18806     18807     18809     18811     18806     18807     18809     18821
     18807     18806     18804     18812     18807     18809     18821     18822
     18807     18809     18821     18823     18807     18809     18821     18824
     18808     18807     18809     18810     18808     18807     18809     18811
     18808     18807     18809     18821     18809     18821     18824     18825
     18809     18821     18824     18826     18809     18821     18824     18827
     18810     18809     18821     18822     18810     18809     18821     18823
     18810     18809     18821     18824     18811     18809     18821     18822
     18811     18809     18821     18823     18811     18809     18821     18824
     18812     18815     18816     18817     18812     18815     18816     18818
     18813     18812     18815     18816     18814     18812     18815     18816
     18815     18816     18818     18819     18815     18816     18818     18820
     18815     18816     18818     18868     18816     18818     18868     18869
     18816     18818     18868     18870     18816     18818     18868     18871
     18817     18816     18818     18819     18817     18816     18818     18820
     18817     18816     18818     18868     18818     18868     18871     18872
     18818     18868     18871     18873     18818     18868     18871     18874
     18819     18818     18868     18869     18819     18818     18868     18870
     18819     18818     18868     18871     18820     18818     18868     18869
     18820     18818     18868     18870     18820     18818     18868     18871
     18821     18824     18827     18828     18821     18824     18827     18829
     18821     18824     18827     18830     18822     18821     18824     18825
     18822     18821     18824     18826     18822     18821     18824     18827
     18823     18821     18824     18825     18823     18821     18824     18826
     18823     18821     18824     18827     18824     18827     18830     18831
     18824     18827     18830     18832     18824     18827     18830     18833
     18825     18824     18827     18828     18825     18824     18827     18829
     18825     18824     18827     18830     18826     18824     18827     18828
     18826     18824     18827     18829     18826     18824     18827     18830
     18827     18830     18833     18834     18827     18830     18833     18835
     18827     18830     18833     18836     18828     18827     18830     18831
     18828     18827     18830     18832     18828     18827     18830     18833
     18829     18827     18830     18831     18829     18827     18830     18832
     18829     18827     18830     18833     18830     18833     18836     18837
     18830     18833     18836     18838     18830     18833     18836     18839
     18831     18830     18833     18834     18831     18830     18833     18835
     18831     18830     18833     18836     18832     18830     18833     18834
     18832     18830     18833     18835     18832     18830     18833     18836
     18833     18836     18839     18840     18833     18836     18839     18841
     18834     18833     18836     18837     18834     18833     18836     18838
     18834     18833     18836     18839     18835     18833     18836     18837
     18835     18833     18836     18838     18835     18833     18836     18839
     18836     18839     18841     18842     18836     18839     18841     18843
     18837     18836     18839     18840     18837     18836     18839     18841
     18838     18836     18839     18840     18838     18836     18839     18841
     18839     18841     18843     18844     18839     18841     18843     18845
     18839     18841     18843     18846     18840     18839     18841     18842
     18840     18839     18841     18843     18841     18843     18846     18847
     18841     18843     18846     18848     18841     18843     18846     18849
     18842     18841     18843     18844     18842     18841     18843     18845
     18842     18841     18843     18846     18843     18846     18849     18850
     18843     18846     18849     18851     18843     18846     18849     18852
     18844     18843     18846     18847     18844     18843     18846     18848
     18844     18843     18846     18849     18845     18843     18846     18847
     18845     18843     18846     18848     18845     18843     18846     18849
     18846     18849     18852     18853     18846     18849     18852     18854
     18846     18849     18852     18855     18847     18846     18849     18850
     18847     18846     18849     18851     18847     18846     18849     18852
     18848     18846     18849     18850     18848     18846     18849     18851
     18848     18846     18849     18852     18849     18852     18855     18856
     18849     18852     18855     18857     18849     18852     18855     18858
     18850     18849     18852     18853     18850     18849     18852     18854
     18850     18849     18852     18855     18851     18849     18852     18853
     18851     18849     18852     18854     18851     18849     18852     18855
     18852     18855     18858     18859     18852     18855     18858     18860
     18852     18855     18858     18861     18853     18852     18855     18856
     18853     18852     18855     18857     18853     18852     18855     18858
     18854     18852     18855     18856     18854     18852     18855     18857
     18854     18852     18855     18858     18855     18858     18861     18862
     18855     18858     18861     18863     18855     18858     18861     18864
     18856     18855     18858     18859     18856     18855     18858     18860
     18856     18855     18858     18861     18857     18855     18858     18859
     18857     18855     18858     18860     18857     18855     18858     18861
     18858     18861     18864     18865     18858     18861     18864     18866
     18858     18861     18864     18867     18859     18858     18861     18862
     18859     18858     18861     18863     18859     18858     18861     18864
     18860     18858     18861     18862     18860     18858     18861     18863
     18860     18858     18861     18864     18862     18861     18864     18865
     18862     18861     18864     18866     18862     18861     18864     18867
     18863     18861     18864     18865     18863     18861     18864     18866
     18863     18861     18864     18867     18868     18871     18874     18875
     18868     18871     18874     18876     18868     18871     18874     18877
     18869     18868     18871     18872     18869     18868     18871     18873
     18869     18868     18871     18874     18870     18868     18871     18872
     18870     18868     18871     18873     18870     18868     18871     18874
     18871     18874     18877     18878     18871     18874     18877     18879
     18871     18874     18877     18880     18872     18871     18874     18875
     18872     18871     18874     18876     18872     18871     18874     18877
     18873     18871     18874     18875     18873     18871     18874     18876
     18873     18871     18874     18877     18874     18877     18880     18881
     18874     18877     18880     18882     18874     18877     18880     18883
     18875     18874     18877     18878     18875     18874     18877     18879
     18875     18874     18877     18880     18876     18874     18877     18878
     18876     18874     18877     18879     18876     18874     18877     18880
     18877     18880     18883     18884     18877     18880     18883     18885
     18877     18880     18883     18886     18878     18877     18880     18881
     18878     18877     18880     18882     18878     18877     18880     18883
     18879     18877     18880     18881     18879     18877     18880     18882
     18879     18877     18880     18883     18880     18883     18886     18887
     18880     18883     18886     18888     18880     18883     18886     18889
     18881     18880     18883     18884     18881     18880     18883     18885
     18881     18880     18883     18886     18882     18880     18883     18884
     18882     18880     18883     18885     18882     18880     18883     18886
     18883     18886     18889     18890     18883     18886     18889     18891
     18883     18886     18889     18892     18884     18883     18886     18887
     18884     18883     18886     18888     18884     18883     18886     18889
     18885     18883     18886     18887     18885     18883     18886     18888
     18885     18883     18886     18889     18886     18889     18892     18893
     18886     18889     18892     18894     18886     18889     18892     18895
     18887     18886     18889     18890     18887     18886     18889     18891
     18887     18886     18889     18892     18888     18886     18889     18890
     18888     18886     18889     18891     18888     18886     18889     18892
     18889     18892     18895     18896     18889     18892     18895     18897
     18889     18892     18895     18898     18890     18889     18892     18893
     18890     18889     18892     18894     18890     18889     18892     18895
     18891     18889     18892     18893     18891     18889     18892     18894
     18891     18889     18892     18895     18892     18895     18898     18899
     18892     18895     18898     18900     18892     18895     18898     18901
     18893     18892     18895     18896     18893     18892     18895     18897
     18893     18892     18895     18898     18894     18892     18895     18896
     18894     18892     18895     18897     18894     18892     18895     18898
     18895     18898     18901     18902     18895     18898     18901     18903
     18895     18898     18901     18904     18896     18895     18898     18899
     18896     18895     18898     18900     18896     18895     18898     18901
     18897     18895     18898     18899     18897     18895     18898     18900
     18897     18895     18898     18901     18898     18901     18904     18905
     18898     18901     18904     18906     18898     18901     18904     18907
     18899     18898     18901     18902     18899     18898     18901     18903
     18899     18898     18901     18904     18900     18898     18901     18902
     18900     18898     18901     18903     18900     18898     18901     18904
     18901     18904     18907     18908     18901     18904     18907     18909
     18901     18904     18907     18910     18902     18901     18904     18905
     18902     18901     18904     18906     18902     18901     18904     18907
     18903     18901     18904     18905     18903     18901     18904     18906
     18903     18901     18904     18907     18905     18904     18907     18908
     18905     18904     18907     18909     18905     18904     18907     18910
     18906     18904     18907     18908     18906     18904     18907     18909
     18906     18904     18907     18910      6096      6100      6103      6104
      6096      6100      6103      6105      6096      6100      6103      6110
      6097      6096      6100      6101      6097      6096      6100      6102
      6097      6096      6100      6103      6098      6096      6100      6101
      6098      6096      6100      6102      6098      6096      6100      6103
      6099      6096      6100      6101      6099      6096      6100      6102
      6099      6096      6100      6103      6100      6103      6110      6106
      6101      6100      6103      6104      6101      6100      6103      6105
      6101      6100      6103      6110      6102      6100      6103      6104
      6102      6100      6103      6105      6102      6100      6103      6110
      6103      6110      6106      6107      6103      6110      6106      6108
      6103      6110      6106      6109      6104      6103      6110      6106
      6105      6103      6110      6106      6106      6109      6111      6112
      6106      6109      6111      6113      6106      6109      6111      6114
      6107      6106      6109      6111      6108      6106      6109      6111
      6109      6111      6114      6115      6109      6111      6114      6116
      6109      6111      6114      6122      6110      6106      6109      6111
      6111      6114      6116      6117      6111      6114      6122      6123
      6111      6114      6122      6124      6111      6114      6122      6125
      6112      6111      6114      6115      6112      6111      6114      6116
      6112      6111      6114      6122      6113      6111      6114      6115
      6113      6111      6114      6116      6113      6111      6114      6122
      6114      6116      6117      6118      6114      6116      6117      6119
      6114      6122      6125      6126      6115      6114      6116      6117
      6115      6114      6122      6123      6115      6114      6122      6124
      6115      6114      6122      6125      6116      6114      6122      6123
      6116      6114      6122      6124      6116      6114      6122      6125
      6116      6117      6119      6120      6116      6117      6119      6121
      6116      6117      6119      6131      6117      6116      6114      6122
      6117      6119      6131      6132      6117      6119      6131      6133
      6117      6119      6131      6134      6118      6117      6119      6120
      6118      6117      6119      6121      6118      6117      6119      6131
      6119      6131      6134      6135      6119      6131      6134      6136
      6119      6131      6134      6137      6120      6119      6131      6132
      6120      6119      6131      6133      6120      6119      6131      6134
      6121      6119      6131      6132      6121      6119      6131      6133
      6121      6119      6131      6134      6122      6125      6126      6127
      6122      6125      6126      6128      6123      6122      6125      6126
      6124      6122      6125      6126      6125      6126      6128      6129
      6125      6126      6128      6130      6125      6126      6128      6178
      6126      6128      6178      6179      6126      6128      6178      6180
      6126      6128      6178      6181      6127      6126      6128      6129
      6127      6126      6128      6130      6127      6126      6128      6178
      6128      6178      6181      6182      6128      6178      6181      6183
      6128      6178      6181      6184      6129      6128      6178      6179
      6129      6128      6178      6180      6129      6128      6178      6181
      6130      6128      6178      6179      6130      6128      6178      6180
      6130      6128      6178      6181      6131      6134      6137      6138
      6131      6134      6137      6139      6131      6134      6137      6140
      6132      6131      6134      6135      6132      6131      6134      6136
      6132      6131      6134      6137      6133      6131      6134      6135
      6133      6131      6134      6136      6133      6131      6134      6137
      6134      6137      6140      6141      6134      6137      6140      6142
      6134      6137      6140      6143      6135      6134      6137      6138
      6135      6134      6137      6139      6135      6134      6137      6140
      6136      6134      6137      6138      6136      6134      6137      6139
      6136      6134      6137      6140      6137      6140      6143      6144
      6137      6140      6143      6145      6137      6140      6143      6146
      6138      6137      6140      6141      6138      6137      6140      6142
      6138      6137      6140      6143      6139      6137      6140      6141
      6139      6137      6140      6142      6139      6137      6140      6143
      6140      6143      6146      6147      6140      6143      6146      6148
      6140      6143      6146      6149      6141      6140      6143      6144
      6141      6140      6143      6145      6141      6140      6143      6146
      6142      6140      6143      6144      6142      6140      6143      6145
      6142      6140      6143      6146      6143      6146      6149      6150
      6143      6146      6149      6151      6144      6143      6146      6147
      6144      6143      6146      6148      6144      6143      6146      6149
      6145      6143      6146      6147      6145      6143      6146      6148
      6145      6143      6146      6149      6146      6149      6151      6152
      6146      6149      6151      6153      6147      6146      6149      6150
      6147      6146      6149      6151      6148      6146      6149      6150
      6148      6146      6149      6151      6149      6151      6153      6154
      6149      6151      6153      6155      6149      6151      6153      6156
      6150      6149      6151      6152      6150      6149      6151      6153
      6151      6153      6156      6157      6151      6153      6156      6158
      6151      6153      6156      6159      6152      6151      6153      6154
      6152      6151      6153      6155      6152      6151      6153      6156
      6153      6156      6159      6160      6153      6156      6159      6161
      6153      6156      6159      6162      6154      6153      6156      6157
      6154      6153      6156      6158      6154      6153      6156      6159
      6155      6153      6156      6157      6155      6153      6156      6158
      6155      6153      6156      6159      6156      6159      6162      6163
      6156      6159      6162      6164      6156      6159      6162      6165
      6157      6156      6159      6160      6157      6156      6159      6161
      6157      6156      6159      6162      6158      6156      6159      6160
      6158      6156      6159      6161      6158      6156      6159      6162
      6159      6162      6165      6166      6159      6162      6165      6167
      6159      6162      6165      6168      6160      6159      6162      6163
      6160      6159      6162      6164      6160      6159      6162      6165
      6161      6159      6162      6163      6161      6159      6162      6164
      6161      6159      6162      6165      6162      6165      6168      6169
      6162      6165      6168      6170      6162      6165      6168      6171
      6163      6162      6165      6166      6163      6162      6165      6167
      6163      6162      6165      6168      6164      6162      6165      6166
      6164      6162      6165      6167      6164      6162      6165      6168
      6165      6168      6171      6172      6165      6168      6171      6173
      6165      6168      6171      6174      6166      6165      6168      6169
      6166      6165      6168      6170      6166      6165      6168      6171
      6167      6165      6168      6169      6167      6165      6168      6170
      6167      6165      6168      6171      6168      6171      6174      6175
      6168      6171      6174      6176      6168      6171      6174      6177
      6169      6168      6171      6172      6169      6168      6171      6173
      6169      6168      6171      6174      6170      6168      6171      6172
      6170      6168      6171      6173      6170      6168      6171      6174
      6172      6171      6174      6175      6172      6171      6174      6176
      6172      6171      6174      6177      6173      6171      6174      6175
      6173      6171      6174      6176      6173      6171      6174      6177
      6178      6181      6184      6185      6178      6181      6184      6186
      6178      6181      6184      6187      6179      6178      6181      6182
      6179      6178      6181      6183      6179      6178      6181      6184
      6180      6178      6181      6182      6180      6178      6181      6183
      6180      6178      6181      6184      6181      6184      6187      6188
      6181      6184      6187      6189      6181      6184      6187      6190
      6182      6181      6184      6185      6182      6181      6184      6186
      6182      6181      6184      6187      6183      6181      6184      6185
      6183      6181      6184      6186      6183      6181      6184      6187
      6184      6187      6190      6191      6184      6187      6190      6192
      6184      6187      6190      6193      6185      6184      6187      6188
      6185      6184      6187      6189      6185      6184      6187      6190
      6186      6184      6187      6188      6186      6184      6187      6189
      6186      6184      6187      6190      6187      6190      6193      6194
      6187      6190      6193      6195      6187      6190      6193      6196
      6188      6187      6190      6191      6188      6187      6190      6192
      6188      6187      6190      6193      6189      6187      6190      6191
      6189      6187      6190      6192      6189      6187      6190      6193
      6190      6193      6196      6197      6190      6193      6196      6198
      6190      6193      6196      6199      6191      6190      6193      6194
      6191      6190      6193      6195      6191      6190      6193      6196
      6192      6190      6193      6194      6192      6190      6193      6195
      6192      6190      6193      6196      6193      6196      6199      6200
      6193      6196      6199      6201      6193      6196      6199      6202
      6194      6193      6196      6197      6194      6193      6196      6198
      6194      6193      6196      6199      6195      6193      6196      6197
      6195      6193      6196      6198      6195      6193      6196      6199
      6196      6199      6202      6203      6196      6199      6202      6204
      6196      6199      6202      6205      6197      6196      6199      6200
      6197      6196      6199      6201      6197      6196      6199      6202
      6198      6196      6199      6200      6198      6196      6199      6201
      6198      6196      6199      6202      6199      6202      6205      6206
      6199      6202      6205      6207      6199      6202      6205      6208
      6200      6199      6202      6203      6200      6199      6202      6204
      6200      6199      6202      6205      6201      6199      6202      6203
      6201      6199      6202      6204      6201      6199      6202      6205
      6202      6205      6208      6209      6202      6205      6208      6210
      6202      6205      6208      6211      6203      6202      6205      6206
      6203      6202      6205      6207      6203      6202      6205      6208
      6204      6202      6205      6206      6204      6202      6205      6207
      6204      6202      6205      6208      6205      6208      6211      6212
      6205      6208      6211      6213      6205      6208      6211      6214
      6206      6205      6208      6209      6206      6205      6208      6210
      6206      6205      6208      6211      6207      6205      6208      6209
      6207      6205      6208      6210      6207      6205      6208      6211
      6208      6211      6214      6215      6208      6211      6214      6216
      6208      6211      6214      6217      6209      6208      6211      6212
      6209      6208      6211      6213      6209      6208      6211      6214
      6210      6208      6211      6212      6210      6208      6211      6213
      6210      6208      6211      6214      6211      6214      6217      6218
      6211      6214      6217      6219      6211      6214      6217      6220
      6212      6211      6214      6215      6212      6211      6214      6216
      6212      6211      6214      6217      6213      6211      6214      6215
      6213      6211      6214      6216      6213      6211      6214      6217
      6215      6214      6217      6218      6215      6214      6217      6219
      6215      6214      6217      6220      6216      6214      6217      6218
      6216      6214      6217      6219      6216      6214      6217      6220
      1481      1485      1488      1489      1481      1485      1488      1519
      1481      1527      1524      1519      1481      1527      1524      1525
      1481      1527      1524      1526      1482      1481      1483      1484
      1482      1481      1485      1486      1482      1481      1485      1487
      1482      1481      1485      1488      1482      1481      1527      1524
      1482      1481      1527      1528      1482      1481      1527      1529
      1483      1481      1485      1486      1483      1481      1485      1487
      1483      1481      1485      1488      1483      1481      1527      1524
      1483      1481      1527      1528      1483      1481      1527      1529
      1484      1483      1481      1485      1484      1483      1481      1527
      1485      1481      1527      1524      1485      1481      1527      1528
      1485      1481      1527      1529      1485      1488      1489      1490
      1485      1488      1489      1491      1485      1488      1519      1517
      1485      1488      1519      1520      1485      1488      1519      1524
      1486      1485      1481      1527      1486      1485      1488      1489
      1486      1485      1488      1519      1487      1485      1481      1527
      1487      1485      1488      1489      1487      1485      1488      1519
      1488      1485      1481      1527      1488      1489      1491      1492
      1488      1489      1491      1493      1488      1489      1491      1494
      1488      1519      1517      1494      1488      1519      1517      1514
      1488      1519      1517      1518      1488      1519      1520      1521
      1488      1519      1520      1522      1488      1519      1520      1523
      1488      1519      1524      1525      1488      1519      1524      1526
      1488      1519      1524      1527      1489      1488      1519      1517
      1489      1488      1519      1520      1489      1488      1519      1524
      1489      1491      1494      1495      1489      1491      1494      1496
      1489      1491      1494      1517      1490      1489      1488      1519
      1490      1489      1491      1492      1490      1489      1491      1493
      1490      1489      1491      1494      1491      1489      1488      1519
      1491      1494      1496      1497      1491      1494      1496      1498
      1491      1494      1496      1506      1491      1494      1517      1514
      1491      1494      1517      1518      1491      1494      1517      1519
      1492      1491      1494      1495      1492      1491      1494      1496
      1492      1491      1494      1517      1493      1491      1494      1495
      1493      1491      1494      1496      1493      1491      1494      1517
      1494      1496      1498      1499      1494      1496      1498      1500
      1494      1496      1498      1501      1494      1496      1506      1504
      1494      1496      1506      1507      1494      1496      1506      1511
      1494      1517      1514      1511      1494      1517      1514      1515
      1494      1517      1514      1516      1494      1517      1519      1520
      1494      1517      1519      1524      1495      1494      1496      1497
      1495      1494      1496      1498      1495      1494      1496      1506
      1495      1494      1517      1514      1495      1494      1517      1518
      1495      1494      1517      1519      1496      1494      1517      1514
      1496      1494      1517      1518      1496      1494      1517      1519
      1496      1498      1501      1502      1496      1498      1501      1503
      1496      1498      1501      1504      1496      1506      1504      1501
      1496      1506      1504      1505      1496      1506      1504      1530
      1496      1506      1507      1508      1496      1506      1507      1509
      1496      1506      1507      1510      1496      1506      1511      1512
      1496      1506      1511      1513      1496      1506      1511      1514
      1497      1496      1494      1517      1497      1496      1498      1499
      1497      1496      1498      1500      1497      1496      1498      1501
      1497      1496      1506      1504      1497      1496      1506      1507
      1497      1496      1506      1511      1498      1496      1494      1517
      1498      1496      1506      1504      1498      1496      1506      1507
      1498      1496      1506      1511      1498      1501      1504      1505
      1498      1501      1504      1506      1498      1501      1504      1530
      1499      1498      1496      1506      1499      1498      1501      1502
      1499      1498      1501      1503      1499      1498      1501      1504
      1500      1498      1496      1506      1500      1498      1501      1502
      1500      1498      1501      1503      1500      1498      1501      1504
      1501      1498      1496      1506      1501      1504      1506      1507
      1501      1504      1506      1511      1501      1504      1530      1531
      1501      1504      1530      1532      1501      1504      1530      1536
      1502      1501      1504      1505      1502      1501      1504      1506
      1502      1501      1504      1530      1503      1501      1504      1505
      1503      1501      1504      1506      1503      1501      1504      1530
      1504      1506      1507      1508      1504      1506      1507      1509
      1504      1506      1507      1510      1504      1506      1511      1512
      1504      1506      1511      1513      1504      1506      1511      1514
      1504      1530      1532      1533      1504      1530      1532      1534
      1504      1530      1532      1535      1504      1530      1536      1537
      1504      1530      1536      1538      1504      1530      1536      1539
      1505      1504      1506      1507      1505      1504      1506      1511
      1505      1504      1530      1531      1505      1504      1530      1532
      1505      1504      1530      1536      1506      1496      1494      1517
      1506      1504      1530      1531      1506      1504      1530      1532
      1506      1504      1530      1536      1506      1511      1514      1515
      1506      1511      1514      1516      1506      1511      1514      1517
      1507      1506      1504      1530      1507      1506      1511      1512
      1507      1506      1511      1513      1507      1506      1511      1514
      1508      1507      1506      1511      1509      1507      1506      1511
      1510      1507      1506      1511      1511      1506      1504      1530
      1511      1514      1517      1518      1511      1514      1517      1519
      1512      1511      1514      1515      1512      1511      1514      1516
      1512      1511      1514      1517      1513      1511      1514      1515
      1513      1511      1514      1516      1513      1511      1514      1517
      1514      1517      1519      1520      1514      1517      1519      1524
      1515      1514      1517      1518      1515      1514      1517      1519
      1516      1514      1517      1518      1516      1514      1517      1519
      1517      1519      1520      1521      1517      1519      1520      1522
      1517      1519      1520      1523      1517      1519      1524      1525
      1517      1519      1524      1526      1517      1519      1524      1527
      1518      1517      1519      1520      1518      1517      1519      1524
      1519      1524      1527      1528      1519      1524      1527      1529
      1520      1519      1524      1525      1520      1519      1524      1526
      1520      1519      1524      1527      1521      1520      1519      1524
      1522      1520      1519      1524      1523      1520      1519      1524
      1525      1524      1527      1528      1525      1524      1527      1529
      1526      1524      1527      1528      1526      1524      1527      1529
      1530      1536      1539      1540      1530      1536      1539      1541
      1530      1536      1539      1542      1531      1530      1532      1533
      1531      1530      1532      1534      1531      1530      1532      1535
      1531      1530      1536      1537      1531      1530      1536      1538
      1531      1530      1536      1539      1532      1530      1536      1537
      1532      1530      1536      1538      1532      1530      1536      1539
      1533      1532      1530      1536      1534      1532      1530      1536
      1535      1532      1530      1536      1536      1539      1542      1543
      1536      1539      1542      1544      1536      1539      1542      1545
      1537      1536      1539      1540      1537      1536      1539      1541
      1537      1536      1539      1542      1538      1536      1539      1540
      1538      1536      1539      1541      1538      1536      1539      1542
      1539      1542      1545      1546      1539      1542      1545      1547
      1539      1542      1545      1551      1540      1539      1542      1543
      1540      1539      1542      1544      1540      1539      1542      1545
      1541      1539      1542      1543      1541      1539      1542      1544
      1541      1539      1542      1545      1542      1545      1547      1548
      1542      1545      1547      1549      1542      1545      1547      1550
      1542      1545      1551      1552      1542      1545      1551      1553
      1542      1545      1551      1554      1543      1542      1545      1546
      1543      1542      1545      1547      1543      1542      1545      1551
      1544      1542      1545      1546      1544      1542      1545      1547
      1544      1542      1545      1551      1546      1545      1547      1548
      1546      1545      1547      1549      1546      1545      1547      1550
      1546      1545      1551      1552      1546      1545      1551      1553
      1546      1545      1551      1554      1547      1545      1551      1552
      1547      1545      1551      1553      1547      1545      1551      1554
      1548      1547      1545      1551      1549      1547      1545      1551
      1550      1547      1545      1551     18911     18912     18927     18928
     18911     18912     18927     18929     18911     18912     18927     18933
     18912     18911     18915     18916     18912     18911     18915     18917
     18912     18911     18915     18918     18912     18911     18919     18920
     18912     18911     18919     18921     18912     18911     18919     18922
     18912     18911     18923     18924     18912     18911     18923     18925
     18912     18911     18923     18926     18912     18927     18933     18930
     18913     18912     18911     18915     18913     18912     18911     18919
     18913     18912     18911     18923     18913     18912     18927     18928
     18913     18912     18927     18929     18913     18912     18927     18933
     18914     18912     18911     18915     18914     18912     18911     18919
     18914     18912     18911     18923     18914     18912     18927     18928
     18914     18912     18927     18929     18914     18912     18927     18933
     18915     18911     18912     18927     18915     18911     18919     18920
     18915     18911     18919     18921     18915     18911     18919     18922
     18915     18911     18923     18924     18915     18911     18923     18925
     18915     18911     18923     18926     18916     18915     18911     18919
     18916     18915     18911     18923     18917     18915     18911     18919
     18917     18915     18911     18923     18918     18915     18911     18919
     18918     18915     18911     18923     18919     18911     18912     18927
     18919     18911     18923     18924     18919     18911     18923     18925
     18919     18911     18923     18926     18920     18919     18911     18923
     18921     18919     18911     18923     18922     18919     18911     18923
     18923     18911     18912     18927     18927     18933     18930     18931
     18927     18933     18930     18932     18927     18933     18930     18934
     18928     18927     18933     18930     18929     18927     18933     18930
     18930     18934     18935     18936     18930     18934     18935     18937
     18930     18934     18935     18938     18931     18930     18934     18935
     18932     18930     18934     18935     18933     18930     18934     18935
     18934     18935     18938     18939     18934     18935     18938     18940
     18934     18935     18938     18946     18935     18938     18940     18941
     18935     18938     18946     18947     18935     18938     18946     18948
     18935     18938     18946     18949     18936     18935     18938     18939
     18936     18935     18938     18940     18936     18935     18938     18946
     18937     18935     18938     18939     18937     18935     18938     18940
     18937     18935     18938     18946     18938     18940     18941     18942
     18938     18940     18941     18943     18938     18946     18949     18950
     18939     18938     18940     18941     18939     18938     18946     18947
     18939     18938     18946     18948     18939     18938     18946     18949
     18940     18938     18946     18947     18940     18938     18946     18948
     18940     18938     18946     18949     18940     18941     18943     18944
     18940     18941     18943     18945     18940     18941     18943     18955
     18941     18940     18938     18946     18941     18943     18955     18956
     18941     18943     18955     18957     18941     18943     18955     18958
     18942     18941     18943     18944     18942     18941     18943     18945
     18942     18941     18943     18955     18943     18955     18958     18959
     18943     18955     18958     18960     18943     18955     18958     18961
     18944     18943     18955     18956     18944     18943     18955     18957
     18944     18943     18955     18958     18945     18943     18955     18956
     18945     18943     18955     18957     18945     18943     18955     18958
     18946     18949     18950     18951     18946     18949     18950     18952
     18947     18946     18949     18950     18948     18946     18949     18950
     18949     18950     18952     18953     18949     18950     18952     18954
     18949     18950     18952     19002     18950     18952     19002     19003
     18950     18952     19002     19004     18950     18952     19002     19005
     18951     18950     18952     18953     18951     18950     18952     18954
     18951     18950     18952     19002     18952     19002     19005     19006
     18952     19002     19005     19007     18952     19002     19005     19008
     18953     18952     19002     19003     18953     18952     19002     19004
     18953     18952     19002     19005     18954     18952     19002     19003
     18954     18952     19002     19004     18954     18952     19002     19005
     18955     18958     18961     18962     18955     18958     18961     18963
     18955     18958     18961     18964     18956     18955     18958     18959
     18956     18955     18958     18960     18956     18955     18958     18961
     18957     18955     18958     18959     18957     18955     18958     18960
     18957     18955     18958     18961     18958     18961     18964     18965
     18958     18961     18964     18966     18958     18961     18964     18967
     18959     18958     18961     18962     18959     18958     18961     18963
     18959     18958     18961     18964     18960     18958     18961     18962
     18960     18958     18961     18963     18960     18958     18961     18964
     18961     18964     18967     18968     18961     18964     18967     18969
     18961     18964     18967     18970     18962     18961     18964     18965
     18962     18961     18964     18966     18962     18961     18964     18967
     18963     18961     18964     18965     18963     18961     18964     18966
     18963     18961     18964     18967     18964     18967     18970     18971
     18964     18967     18970     18972     18964     18967     18970     18973
     18965     18964     18967     18968     18965     18964     18967     18969
     18965     18964     18967     18970     18966     18964     18967     18968
     18966     18964     18967     18969     18966     18964     18967     18970
     18967     18970     18973     18974     18967     18970     18973     18975
     18968     18967     18970     18971     18968     18967     18970     18972
     18968     18967     18970     18973     18969     18967     18970     18971
     18969     18967     18970     18972     18969     18967     18970     18973
     18970     18973     18975     18976     18970     18973     18975     18977
     18971     18970     18973     18974     18971     18970     18973     18975
     18972     18970     18973     18974     18972     18970     18973     18975
     18973     18975     18977     18978     18973     18975     18977     18979
     18973     18975     18977     18980     18974     18973     18975     18976
     18974     18973     18975     18977     18975     18977     18980     18981
     18975     18977     18980     18982     18975     18977     18980     18983
     18976     18975     18977     18978     18976     18975     18977     18979
     18976     18975     18977     18980     18977     18980     18983     18984
     18977     18980     18983     18985     18977     18980     18983     18986
     18978     18977     18980     18981     18978     18977     18980     18982
     18978     18977     18980     18983     18979     18977     18980     18981
     18979     18977     18980     18982     18979     18977     18980     18983
     18980     18983     18986     18987     18980     18983     18986     18988
     18980     18983     18986     18989     18981     18980     18983     18984
     18981     18980     18983     18985     18981     18980     18983     18986
     18982     18980     18983     18984     18982     18980     18983     18985
     18982     18980     18983     18986     18983     18986     18989     18990
     18983     18986     18989     18991     18983     18986     18989     18992
     18984     18983     18986     18987     18984     18983     18986     18988
     18984     18983     18986     18989     18985     18983     18986     18987
     18985     18983     18986     18988     18985     18983     18986     18989
     18986     18989     18992     18993     18986     18989     18992     18994
     18986     18989     18992     18995     18987     18986     18989     18990
     18987     18986     18989     18991     18987     18986     18989     18992
     18988     18986     18989     18990     18988     18986     18989     18991
     18988     18986     18989     18992     18989     18992     18995     18996
     18989     18992     18995     18997     18989     18992     18995     18998
     18990     18989     18992     18993     18990     18989     18992     18994
     18990     18989     18992     18995     18991     18989     18992     18993
     18991     18989     18992     18994     18991     18989     18992     18995
     18992     18995     18998     18999     18992     18995     18998     19000
     18992     18995     18998     19001     18993     18992     18995     18996
     18993     18992     18995     18997     18993     18992     18995     18998
     18994     18992     18995     18996     18994     18992     18995     18997
     18994     18992     18995     18998     18996     18995     18998     18999
     18996     18995     18998     19000     18996     18995     18998     19001
     18997     18995     18998     18999     18997     18995     18998     19000
     18997     18995     18998     19001     19002     19005     19008     19009
     19002     19005     19008     19010     19002     19005     19008     19011
     19003     19002     19005     19006     19003     19002     19005     19007
     19003     19002     19005     19008     19004     19002     19005     19006
     19004     19002     19005     19007     19004     19002     19005     19008
     19005     19008     19011     19012     19005     19008     19011     19013
     19005     19008     19011     19014     19006     19005     19008     19009
     19006     19005     19008     19010     19006     19005     19008     19011
     19007     19005     19008     19009     19007     19005     19008     19010
     19007     19005     19008     19011     19008     19011     19014     19015
     19008     19011     19014     19016     19008     19011     19014     19017
     19009     19008     19011     19012     19009     19008     19011     19013
     19009     19008     19011     19014     19010     19008     19011     19012
     19010     19008     19011     19013     19010     19008     19011     19014
     19011     19014     19017     19018     19011     19014     19017     19019
     19011     19014     19017     19020     19012     19011     19014     19015
     19012     19011     19014     19016     19012     19011     19014     19017
     19013     19011     19014     19015     19013     19011     19014     19016
     19013     19011     19014     19017     19014     19017     19020     19021
     19014     19017     19020     19022     19014     19017     19020     19023
     19015     19014     19017     19018     19015     19014     19017     19019
     19015     19014     19017     19020     19016     19014     19017     19018
     19016     19014     19017     19019     19016     19014     19017     19020
     19017     19020     19023     19024     19017     19020     19023     19025
     19017     19020     19023     19026     19018     19017     19020     19021
     19018     19017     19020     19022     19018     19017     19020     19023
     19019     19017     19020     19021     19019     19017     19020     19022
     19019     19017     19020     19023     19020     19023     19026     19027
     19020     19023     19026     19028     19020     19023     19026     19029
     19021     19020     19023     19024     19021     19020     19023     19025
     19021     19020     19023     19026     19022     19020     19023     19024
     19022     19020     19023     19025     19022     19020     19023     19026
     19023     19026     19029     19030     19023     19026     19029     19031
     19023     19026     19029     19032     19024     19023     19026     19027
     19024     19023     19026     19028     19024     19023     19026     19029
     19025     19023     19026     19027     19025     19023     19026     19028
     19025     19023     19026     19029     19026     19029     19032     19033
     19026     19029     19032     19034     19026     19029     19032     19035
     19027     19026     19029     19030     19027     19026     19029     19031
     19027     19026     19029     19032     19028     19026     19029     19030
     19028     19026     19029     19031     19028     19026     19029     19032
     19029     19032     19035     19036     19029     19032     19035     19037
     19029     19032     19035     19038     19030     19029     19032     19033
     19030     19029     19032     19034     19030     19029     19032     19035
     19031     19029     19032     19033     19031     19029     19032     19034
     19031     19029     19032     19035     19032     19035     19038     19039
     19032     19035     19038     19040     19032     19035     19038     19041
     19033     19032     19035     19036     19033     19032     19035     19037
     19033     19032     19035     19038     19034     19032     19035     19036
     19034     19032     19035     19037     19034     19032     19035     19038
     19035     19038     19041     19042     19035     19038     19041     19043
     19035     19038     19041     19044     19036     19035     19038     19039
     19036     19035     19038     19040     19036     19035     19038     19041
     19037     19035     19038     19039     19037     19035     19038     19040
     19037     19035     19038     19041     19039     19038     19041     19042
     19039     19038     19041     19043     19039     19038     19041     19044
     19040     19038     19041     19042     19040     19038     19041     19043
     19040     19038     19041     19044     22413     22417     22419     22420
     22413     22417     22421     22422     22413     22417     22421     22423
     22413     22417     22421     22425     22413     22433     22429     22425
     22413     22433     22429     22430     22413     22433     22429     22431
     22413     22433     22438     22435     22414     22413     22415     22416
     22414     22413     22417     22418     22414     22413     22417     22419
     22414     22413     22417     22421     22414     22413     22433     22429
     22414     22413     22433     22434     22414     22413     22433     22438
     22415     22413     22417     22418     22415     22413     22417     22419
     22415     22413     22417     22421     22415     22413     22433     22429
     22415     22413     22433     22434     22415     22413     22433     22438
     22416     22415     22413     22417     22416     22415     22413     22433
     22417     22413     22433     22429     22417     22413     22433     22434
     22417     22413     22433     22438     22417     22421     22423     22424
     22417     22421     22425     22426     22417     22421     22425     22427
     22417     22421     22425     22429     22418     22417     22413     22433
     22418     22417     22419     22420     22418     22417     22421     22422
     22418     22417     22421     22423     22418     22417     22421     22425
     22419     22417     22413     22433     22419     22417     22421     22422
     22419     22417     22421     22423     22419     22417     22421     22425
     22420     22419     22417     22421     22421     22417     22413     22433
     22421     22425     22427     22428     22421     22425     22429     22430
     22421     22425     22429     22431     22421     22425     22429     22433
     22422     22421     22423     22424     22422     22421     22425     22426
     22422     22421     22425     22427     22422     22421     22425     22429
     22423     22421     22425     22426     22423     22421     22425     22427
     22423     22421     22425     22429     22424     22423     22421     22425
     22425     22429     22431     22432     22425     22429     22433     22434
     22425     22429     22433     22438     22426     22425     22427     22428
     22426     22425     22429     22430     22426     22425     22429     22431
     22426     22425     22429     22433     22427     22425     22429     22430
     22427     22425     22429     22431     22427     22425     22429     22433
     22428     22427     22425     22429     22429     22433     22438     22435
     22430     22429     22431     22432     22430     22429     22433     22434
     22430     22429     22433     22438     22431     22429     22433     22434
     22431     22429     22433     22438     22432     22431     22429     22433
     22433     22438     22435     22436     22433     22438     22435     22437
     22433     22438     22435     22439     22434     22433     22438     22435
     22435     22439     22440     22441     22435     22439     22440     22442
     22435     22439     22440     22443     22436     22435     22439     22440
     22437     22435     22439     22440     22438     22435     22439     22440
     22439     22440     22443     22444     22439     22440     22443     22445
     22439     22440     22443     22451     22440     22443     22445     22446
     22440     22443     22451     22452     22440     22443     22451     22453
     22440     22443     22451     22454     22441     22440     22443     22444
     22441     22440     22443     22445     22441     22440     22443     22451
     22442     22440     22443     22444     22442     22440     22443     22445
     22442     22440     22443     22451     22443     22445     22446     22447
     22443     22445     22446     22448     22443     22451     22454     22455
     22444     22443     22445     22446     22444     22443     22451     22452
     22444     22443     22451     22453     22444     22443     22451     22454
     22445     22443     22451     22452     22445     22443     22451     22453
     22445     22443     22451     22454     22445     22446     22448     22449
     22445     22446     22448     22450     22445     22446     22448     22460
     22446     22445     22443     22451     22446     22448     22460     22461
     22446     22448     22460     22462     22446     22448     22460     22463
     22447     22446     22448     22449     22447     22446     22448     22450
     22447     22446     22448     22460     22448     22460     22463     22464
     22448     22460     22463     22465     22448     22460     22463     22466
     22449     22448     22460     22461     22449     22448     22460     22462
     22449     22448     22460     22463     22450     22448     22460     22461
     22450     22448     22460     22462     22450     22448     22460     22463
     22451     22454     22455     22456     22451     22454     22455     22457
     22452     22451     22454     22455     22453     22451     22454     22455
     22454     22455     22457     22458     22454     22455     22457     22459
     22454     22455     22457     22507     22455     22457     22507     22508
     22455     22457     22507     22509     22455     22457     22507     22510
     22456     22455     22457     22458     22456     22455     22457     22459
     22456     22455     22457     22507     22457     22507     22510     22511
     22457     22507     22510     22512     22457     22507     22510     22513
     22458     22457     22507     22508     22458     22457     22507     22509
     22458     22457     22507     22510     22459     22457     22507     22508
     22459     22457     22507     22509     22459     22457     22507     22510
     22460     22463     22466     22467     22460     22463     22466     22468
     22460     22463     22466     22469     22461     22460     22463     22464
     22461     22460     22463     22465     22461     22460     22463     22466
     22462     22460     22463     22464     22462     22460     22463     22465
     22462     22460     22463     22466     22463     22466     22469     22470
     22463     22466     22469     22471     22463     22466     22469     22472
     22464     22463     22466     22467     22464     22463     22466     22468
     22464     22463     22466     22469     22465     22463     22466     22467
     22465     22463     22466     22468     22465     22463     22466     22469
     22466     22469     22472     22473     22466     22469     22472     22474
     22466     22469     22472     22475     22467     22466     22469     22470
     22467     22466     22469     22471     22467     22466     22469     22472
     22468     22466     22469     22470     22468     22466     22469     22471
     22468     22466     22469     22472     22469     22472     22475     22476
     22469     22472     22475     22477     22469     22472     22475     22478
     22470     22469     22472     22473     22470     22469     22472     22474
     22470     22469     22472     22475     22471     22469     22472     22473
     22471     22469     22472     22474     22471     22469     22472     22475
     22472     22475     22478     22479     22472     22475     22478     22480
     22473     22472     22475     22476     22473     22472     22475     22477
     22473     22472     22475     22478     22474     22472     22475     22476
     22474     22472     22475     22477     22474     22472     22475     22478
     22475     22478     22480     22481     22475     22478     22480     22482
     22476     22475     22478     22479     22476     22475     22478     22480
     22477     22475     22478     22479     22477     22475     22478     22480
     22478     22480     22482     22483     22478     22480     22482     22484
     22478     22480     22482     22485     22479     22478     22480     22481
     22479     22478     22480     22482     22480     22482     22485     22486
     22480     22482     22485     22487     22480     22482     22485     22488
     22481     22480     22482     22483     22481     22480     22482     22484
     22481     22480     22482     22485     22482     22485     22488     22489
     22482     22485     22488     22490     22482     22485     22488     22491
     22483     22482     22485     22486     22483     22482     22485     22487
     22483     22482     22485     22488     22484     22482     22485     22486
     22484     22482     22485     22487     22484     22482     22485     22488
     22485     22488     22491     22492     22485     22488     22491     22493
     22485     22488     22491     22494     22486     22485     22488     22489
     22486     22485     22488     22490     22486     22485     22488     22491
     22487     22485     22488     22489     22487     22485     22488     22490
     22487     22485     22488     22491     22488     22491     22494     22495
     22488     22491     22494     22496     22488     22491     22494     22497
     22489     22488     22491     22492     22489     22488     22491     22493
     22489     22488     22491     22494     22490     22488     22491     22492
     22490     22488     22491     22493     22490     22488     22491     22494
     22491     22494     22497     22498     22491     22494     22497     22499
     22491     22494     22497     22500     22492     22491     22494     22495
     22492     22491     22494     22496     22492     22491     22494     22497
     22493     22491     22494     22495     22493     22491     22494     22496
     22493     22491     22494     22497     22494     22497     22500     22501
     22494     22497     22500     22502     22494     22497     22500     22503
     22495     22494     22497     22498     22495     22494     22497     22499
     22495     22494     22497     22500     22496     22494     22497     22498
     22496     22494     22497     22499     22496     22494     22497     22500
     22497     22500     22503     22504     22497     22500     22503     22505
     22497     22500     22503     22506     22498     22497     22500     22501
     22498     22497     22500     22502     22498     22497     22500     22503
     22499     22497     22500     22501     22499     22497     22500     22502
     22499     22497     22500     22503     22501     22500     22503     22504
     22501     22500     22503     22505     22501     22500     22503     22506
     22502     22500     22503     22504     22502     22500     22503     22505
     22502     22500     22503     22506     22507     22510     22513     22514
     22507     22510     22513     22515     22507     22510     22513     22516
     22508     22507     22510     22511     22508     22507     22510     22512
     22508     22507     22510     22513     22509     22507     22510     22511
     22509     22507     22510     22512     22509     22507     22510     22513
     22510     22513     22516     22517     22510     22513     22516     22518
     22510     22513     22516     22519     22511     22510     22513     22514
     22511     22510     22513     22515     22511     22510     22513     22516
     22512     22510     22513     22514     22512     22510     22513     22515
     22512     22510     22513     22516     22513     22516     22519     22520
     22513     22516     22519     22521     22513     22516     22519     22522
     22514     22513     22516     22517     22514     22513     22516     22518
     22514     22513     22516     22519     22515     22513     22516     22517
     22515     22513     22516     22518     22515     22513     22516     22519
     22516     22519     22522     22523     22516     22519     22522     22524
     22516     22519     22522     22525     22517     22516     22519     22520
     22517     22516     22519     22521     22517     22516     22519     22522
     22518     22516     22519     22520     22518     22516     22519     22521
     22518     22516     22519     22522     22519     22522     22525     22526
     22519     22522     22525     22527     22519     22522     22525     22528
     22520     22519     22522     22523     22520     22519     22522     22524
     22520     22519     22522     22525     22521     22519     22522     22523
     22521     22519     22522     22524     22521     22519     22522     22525
     22522     22525     22528     22529     22522     22525     22528     22530
     22522     22525     22528     22531     22523     22522     22525     22526
     22523     22522     22525     22527     22523     22522     22525     22528
     22524     22522     22525     22526     22524     22522     22525     22527
     22524     22522     22525     22528     22525     22528     22531     22532
     22525     22528     22531     22533     22525     22528     22531     22534
     22526     22525     22528     22529     22526     22525     22528     22530
     22526     22525     22528     22531     22527     22525     22528     22529
     22527     22525     22528     22530     22527     22525     22528     22531
     22528     22531     22534     22535     22528     22531     22534     22536
     22528     22531     22534     22537     22529     22528     22531     22532
     22529     22528     22531     22533     22529     22528     22531     22534
     22530     22528     22531     22532     22530     22528     22531     22533
     22530     22528     22531     22534     22531     22534     22537     22538
     22531     22534     22537     22539     22531     22534     22537     22540
     22532     22531     22534     22535     22532     22531     22534     22536
     22532     22531     22534     22537     22533     22531     22534     22535
     22533     22531     22534     22536     22533     22531     22534     22537
     22534     22537     22540     22541     22534     22537     22540     22542
     22534     22537     22540     22543     22535     22534     22537     22538
     22535     22534     22537     22539     22535     22534     22537     22540
     22536     22534     22537     22538     22536     22534     22537     22539
     22536     22534     22537     22540     22537     22540     22543     22544
     22537     22540     22543     22545     22537     22540     22543     22546
     22538     22537     22540     22541     22538     22537     22540     22542
     22538     22537     22540     22543     22539     22537     22540     22541
     22539     22537     22540     22542     22539     22537     22540     22543
     22540     22543     22546     22547     22540     22543     22546     22548
     22540     22543     22546     22549     22541     22540     22543     22544
     22541     22540     22543     22545     22541     22540     22543     22546
     22542     22540     22543     22544     22542     22540     22543     22545
     22542     22540     22543     22546     22544     22543     22546     22547
     22544     22543     22546     22548     22544     22543     22546     22549
     22545     22543     22546     22547     22545     22543     22546     22548
     22545     22543     22546     22549     22550     22554     22556     22557
     22550     22554     22558     22559     22550     22554     22558     22560
     22550     22554     22558     22562     22550     22570     22566     22562
     22550     22570     22566     22567     22550     22570     22566     22568
     22550     22570     22575     22572     22551     22550     22552     22553
     22551     22550     22554     22555     22551     22550     22554     22556
     22551     22550     22554     22558     22551     22550     22570     22566
     22551     22550     22570     22571     22551     22550     22570     22575
     22552     22550     22554     22555     22552     22550     22554     22556
     22552     22550     22554     22558     22552     22550     22570     22566
     22552     22550     22570     22571     22552     22550     22570     22575
     22553     22552     22550     22554     22553     22552     22550     22570
     22554     22550     22570     22566     22554     22550     22570     22571
     22554     22550     22570     22575     22554     22558     22560     22561
     22554     22558     22562     22563     22554     22558     22562     22564
     22554     22558     22562     22566     22555     22554     22550     22570
     22555     22554     22556     22557     22555     22554     22558     22559
     22555     22554     22558     22560     22555     22554     22558     22562
     22556     22554     22550     22570     22556     22554     22558     22559
     22556     22554     22558     22560     22556     22554     22558     22562
     22557     22556     22554     22558     22558     22554     22550     22570
     22558     22562     22564     22565     22558     22562     22566     22567
     22558     22562     22566     22568     22558     22562     22566     22570
     22559     22558     22560     22561     22559     22558     22562     22563
     22559     22558     22562     22564     22559     22558     22562     22566
     22560     22558     22562     22563     22560     22558     22562     22564
     22560     22558     22562     22566     22561     22560     22558     22562
     22562     22566     22568     22569     22562     22566     22570     22571
     22562     22566     22570     22575     22563     22562     22564     22565
     22563     22562     22566     22567     22563     22562     22566     22568
     22563     22562     22566     22570     22564     22562     22566     22567
     22564     22562     22566     22568     22564     22562     22566     22570
     22565     22564     22562     22566     22566     22570     22575     22572
     22567     22566     22568     22569     22567     22566     22570     22571
     22567     22566     22570     22575     22568     22566     22570     22571
     22568     22566     22570     22575     22569     22568     22566     22570
     22570     22575     22572     22573     22570     22575     22572     22574
     22570     22575     22572     22576     22571     22570     22575     22572
     22572     22576     22577     22578     22572     22576     22577     22579
     22572     22576     22577     22580     22573     22572     22576     22577
     22574     22572     22576     22577     22575     22572     22576     22577
     22576     22577     22580     22581     22576     22577     22580     22582
     22576     22577     22580     22588     22577     22580     22582     22583
     22577     22580     22588     22589     22577     22580     22588     22590
     22577     22580     22588     22591     22578     22577     22580     22581
     22578     22577     22580     22582     22578     22577     22580     22588
     22579     22577     22580     22581     22579     22577     22580     22582
     22579     22577     22580     22588     22580     22582     22583     22584
     22580     22582     22583     22585     22580     22588     22591     22592
     22581     22580     22582     22583     22581     22580     22588     22589
     22581     22580     22588     22590     22581     22580     22588     22591
     22582     22580     22588     22589     22582     22580     22588     22590
     22582     22580     22588     22591     22582     22583     22585     22586
     22582     22583     22585     22587     22582     22583     22585     22597
     22583     22582     22580     22588     22583     22585     22597     22598
     22583     22585     22597     22599     22583     22585     22597     22600
     22584     22583     22585     22586     22584     22583     22585     22587
     22584     22583     22585     22597     22585     22597     22600     22601
     22585     22597     22600     22602     22585     22597     22600     22603
     22586     22585     22597     22598     22586     22585     22597     22599
     22586     22585     22597     22600     22587     22585     22597     22598
     22587     22585     22597     22599     22587     22585     22597     22600
     22588     22591     22592     22593     22588     22591     22592     22594
     22589     22588     22591     22592     22590     22588     22591     22592
     22591     22592     22594     22595     22591     22592     22594     22596
     22591     22592     22594     22644     22592     22594     22644     22645
     22592     22594     22644     22646     22592     22594     22644     22647
     22593     22592     22594     22595     22593     22592     22594     22596
     22593     22592     22594     22644     22594     22644     22647     22648
     22594     22644     22647     22649     22594     22644     22647     22650
     22595     22594     22644     22645     22595     22594     22644     22646
     22595     22594     22644     22647     22596     22594     22644     22645
     22596     22594     22644     22646     22596     22594     22644     22647
     22597     22600     22603     22604     22597     22600     22603     22605
     22597     22600     22603     22606     22598     22597     22600     22601
     22598     22597     22600     22602     22598     22597     22600     22603
     22599     22597     22600     22601     22599     22597     22600     22602
     22599     22597     22600     22603     22600     22603     22606     22607
     22600     22603     22606     22608     22600     22603     22606     22609
     22601     22600     22603     22604     22601     22600     22603     22605
     22601     22600     22603     22606     22602     22600     22603     22604
     22602     22600     22603     22605     22602     22600     22603     22606
     22603     22606     22609     22610     22603     22606     22609     22611
     22603     22606     22609     22612     22604     22603     22606     22607
     22604     22603     22606     22608     22604     22603     22606     22609
     22605     22603     22606     22607     22605     22603     22606     22608
     22605     22603     22606     22609     22606     22609     22612     22613
     22606     22609     22612     22614     22606     22609     22612     22615
     22607     22606     22609     22610     22607     22606     22609     22611
     22607     22606     22609     22612     22608     22606     22609     22610
     22608     22606     22609     22611     22608     22606     22609     22612
     22609     22612     22615     22616     22609     22612     22615     22617
     22610     22609     22612     22613     22610     22609     22612     22614
     22610     22609     22612     22615     22611     22609     22612     22613
     22611     22609     22612     22614     22611     22609     22612     22615
     22612     22615     22617     22618     22612     22615     22617     22619
     22613     22612     22615     22616     22613     22612     22615     22617
     22614     22612     22615     22616     22614     22612     22615     22617
     22615     22617     22619     22620     22615     22617     22619     22621
     22615     22617     22619     22622     22616     22615     22617     22618
     22616     22615     22617     22619     22617     22619     22622     22623
     22617     22619     22622     22624     22617     22619     22622     22625
     22618     22617     22619     22620     22618     22617     22619     22621
     22618     22617     22619     22622     22619     22622     22625     22626
     22619     22622     22625     22627     22619     22622     22625     22628
     22620     22619     22622     22623     22620     22619     22622     22624
     22620     22619     22622     22625     22621     22619     22622     22623
     22621     22619     22622     22624     22621     22619     22622     22625
     22622     22625     22628     22629     22622     22625     22628     22630
     22622     22625     22628     22631     22623     22622     22625     22626
     22623     22622     22625     22627     22623     22622     22625     22628
     22624     22622     22625     22626     22624     22622     22625     22627
     22624     22622     22625     22628     22625     22628     22631     22632
     22625     22628     22631     22633     22625     22628     22631     22634
     22626     22625     22628     22629     22626     22625     22628     22630
     22626     22625     22628     22631     22627     22625     22628     22629
     22627     22625     22628     22630     22627     22625     22628     22631
     22628     22631     22634     22635     22628     22631     22634     22636
     22628     22631     22634     22637     22629     22628     22631     22632
     22629     22628     22631     22633     22629     22628     22631     22634
     22630     22628     22631     22632     22630     22628     22631     22633
     22630     22628     22631     22634     22631     22634     22637     22638
     22631     22634     22637     22639     22631     22634     22637     22640
     22632     22631     22634     22635     22632     22631     22634     22636
     22632     22631     22634     22637     22633     22631     22634     22635
     22633     22631     22634     22636     22633     22631     22634     22637
     22634     22637     22640     22641     22634     22637     22640     22642
     22634     22637     22640     22643     22635     22634     22637     22638
     22635     22634     22637     22639     22635     22634     22637     22640
     22636     22634     22637     22638     22636     22634     22637     22639
     22636     22634     22637     22640     22638     22637     22640     22641
     22638     22637     22640     22642     22638     22637     22640     22643
     22639     22637     22640     22641     22639     22637     22640     22642
     22639     22637     22640     22643     22644     22647     22650     22651
     22644     22647     22650     22652     22644     22647     22650     22653
     22645     22644     22647     22648     22645     22644     22647     22649
     22645     22644     22647     22650     22646     22644     22647     22648
     22646     22644     22647     22649     22646     22644     22647     22650
     22647     22650     22653     22654     22647     22650     22653     22655
     22647     22650     22653     22656     22648     22647     22650     22651
     22648     22647     22650     22652     22648     22647     22650     22653
     22649     22647     22650     22651     22649     22647     22650     22652
     22649     22647     22650     22653     22650     22653     22656     22657
     22650     22653     22656     22658     22650     22653     22656     22659
     22651     22650     22653     22654     22651     22650     22653     22655
     22651     22650     22653     22656     22652     22650     22653     22654
     22652     22650     22653     22655     22652     22650     22653     22656
     22653     22656     22659     22660     22653     22656     22659     22661
     22653     22656     22659     22662     22654     22653     22656     22657
     22654     22653     22656     22658     22654     22653     22656     22659
     22655     22653     22656     22657     22655     22653     22656     22658
     22655     22653     22656     22659     22656     22659     22662     22663
     22656     22659     22662     22664     22656     22659     22662     22665
     22657     22656     22659     22660     22657     22656     22659     22661
     22657     22656     22659     22662     22658     22656     22659     22660
     22658     22656     22659     22661     22658     22656     22659     22662
     22659     22662     22665     22666     22659     22662     22665     22667
     22659     22662     22665     22668     22660     22659     22662     22663
     22660     22659     22662     22664     22660     22659     22662     22665
     22661     22659     22662     22663     22661     22659     22662     22664
     22661     22659     22662     22665     22662     22665     22668     22669
     22662     22665     22668     22670     22662     22665     22668     22671
     22663     22662     22665     22666     22663     22662     22665     22667
     22663     22662     22665     22668     22664     22662     22665     22666
     22664     22662     22665     22667     22664     22662     22665     22668
     22665     22668     22671     22672     22665     22668     22671     22673
     22665     22668     22671     22674     22666     22665     22668     22669
     22666     22665     22668     22670     22666     22665     22668     22671
     22667     22665     22668     22669     22667     22665     22668     22670
     22667     22665     22668     22671     22668     22671     22674     22675
     22668     22671     22674     22676     22668     22671     22674     22677
     22669     22668     22671     22672     22669     22668     22671     22673
     22669     22668     22671     22674     22670     22668     22671     22672
     22670     22668     22671     22673     22670     22668     22671     22674
     22671     22674     22677     22678     22671     22674     22677     22679
     22671     22674     22677     22680     22672     22671     22674     22675
     22672     22671     22674     22676     22672     22671     22674     22677
     22673     22671     22674     22675     22673     22671     22674     22676
     22673     22671     22674     22677     22674     22677     22680     22681
     22674     22677     22680     22682     22674     22677     22680     22683
     22675     22674     22677     22678     22675     22674     22677     22679
     22675     22674     22677     22680     22676     22674     22677     22678
     22676     22674     22677     22679     22676     22674     22677     22680
     22677     22680     22683     22684     22677     22680     22683     22685
     22677     22680     22683     22686     22678     22677     22680     22681
     22678     22677     22680     22682     22678     22677     22680     22683
     22679     22677     22680     22681     22679     22677     22680     22682
     22679     22677     22680     22683     22681     22680     22683     22684
     22681     22680     22683     22685     22681     22680     22683     22686
     22682     22680     22683     22684     22682     22680     22683     22685
     22682     22680     22683     22686      1555      1559      1562      1563
      1555      1559      1562      1593      1555      1601      1598      1593
      1555      1601      1598      1599      1555      1601      1598      1600
      1556      1555      1557      1558      1556      1555      1559      1560
      1556      1555      1559      1561      1556      1555      1559      1562
      1556      1555      1601      1598      1556      1555      1601      1602
      1556      1555      1601      1603      1557      1555      1559      1560
      1557      1555      1559      1561      1557      1555      1559      1562
      1557      1555      1601      1598      1557      1555      1601      1602
      1557      1555      1601      1603      1558      1557      1555      1559
      1558      1557      1555      1601      1559      1555      1601      1598
      1559      1555      1601      1602      1559      1555      1601      1603
      1559      1562      1563      1564      1559      1562      1563      1565
      1559      1562      1593      1591      1559      1562      1593      1594
      1559      1562      1593      1598      1560      1559      1555      1601
      1560      1559      1562      1563      1560      1559      1562      1593
      1561      1559      1555      1601      1561      1559      1562      1563
      1561      1559      1562      1593      1562      1559      1555      1601
      1562      1563      1565      1566      1562      1563      1565      1567
      1562      1563      1565      1568      1562      1593      1591      1568
      1562      1593      1591      1588      1562      1593      1591      1592
      1562      1593      1594      1595      1562      1593      1594      1596
      1562      1593      1594      1597      1562      1593      1598      1599
      1562      1593      1598      1600      1562      1593      1598      1601
      1563      1562      1593      1591      1563      1562      1593      1594
      1563      1562      1593      1598      1563      1565      1568      1569
      1563      1565      1568      1570      1563      1565      1568      1591
      1564      1563      1562      1593      1564      1563      1565      1566
      1564      1563      1565      1567      1564      1563      1565      1568
      1565      1563      1562      1593      1565      1568      1570      1571
      1565      1568      1570      1572      1565      1568      1570      1580
      1565      1568      1591      1588      1565      1568      1591      1592
      1565      1568      1591      1593      1566      1565      1568      1569
      1566      1565      1568      1570      1566      1565      1568      1591
      1567      1565      1568      1569      1567      1565      1568      1570
      1567      1565      1568      1591      1568      1570      1572      1573
      1568      1570      1572      1574      1568      1570      1572      1575
      1568      1570      1580      1578      1568      1570      1580      1581
      1568      1570      1580      1585      1568      1591      1588      1585
      1568      1591      1588      1589      1568      1591      1588      1590
      1568      1591      1593      1594      1568      1591      1593      1598
      1569      1568      1570      1571      1569      1568      1570      1572
      1569      1568      1570      1580      1569      1568      1591      1588
      1569      1568      1591      1592      1569      1568      1591      1593
      1570      1568      1591      1588      1570      1568      1591      1592
      1570      1568      1591      1593      1570      1572      1575      1576
      1570      1572      1575      1577      1570      1572      1575      1578
      1570      1580      1578      1575      1570      1580      1578      1579
      1570      1580      1578      1604      1570      1580      1581      1582
      1570      1580      1581      1583      1570      1580      1581      1584
      1570      1580      1585      1586      1570      1580      1585      1587
      1570      1580      1585      1588      1571      1570      1568      1591
      1571      1570      1572      1573      1571      1570      1572      1574
      1571      1570      1572      1575      1571      1570      1580      1578
      1571      1570      1580      1581      1571      1570      1580      1585
      1572      1570      1568      1591      1572      1570      1580      1578
      1572      1570      1580      1581      1572      1570      1580      1585
      1572      1575      1578      1579      1572      1575      1578      1580
      1572      1575      1578      1604      1573      1572      1570      1580
      1573      1572      1575      1576      1573      1572      1575      1577
      1573      1572      1575      1578      1574      1572      1570      1580
      1574      1572      1575      1576      1574      1572      1575      1577
      1574      1572      1575      1578      1575      1572      1570      1580
      1575      1578      1580      1581      1575      1578      1580      1585
      1575      1578      1604      1605      1575      1578      1604      1606
      1575      1578      1604      1610      1576      1575      1578      1579
      1576      1575      1578      1580      1576      1575      1578      1604
      1577      1575      1578      1579      1577      1575      1578      1580
      1577      1575      1578      1604      1578      1580      1581      1582
      1578      1580      1581      1583      1578      1580      1581      1584
      1578      1580      1585      1586      1578      1580      1585      1587
      1578      1580      1585      1588      1578      1604      1606      1607
      1578      1604      1606      1608      1578      1604      1606      1609
      1578      1604      1610      1611      1578      1604      1610      1612
      1578      1604      1610      1613      1579      1578      1580      1581
      1579      1578      1580      1585      1579      1578      1604      1605
      1579      1578      1604      1606      1579      1578      1604      1610
      1580      1570      1568      1591      1580      1578      1604      1605
      1580      1578      1604      1606      1580      1578      1604      1610
      1580      1585      1588      1589      1580      1585      1588      1590
      1580      1585      1588      1591      1581      1580      1578      1604
      1581      1580      1585      1586      1581      1580      1585      1587
      1581      1580      1585      1588      1582      1581      1580      1585
      1583      1581      1580      1585      1584      1581      1580      1585
      1585      1580      1578      1604      1585      1588      1591      1592
      1585      1588      1591      1593      1586      1585      1588      1589
      1586      1585      1588      1590      1586      1585      1588      1591
      1587      1585      1588      1589      1587      1585      1588      1590
      1587      1585      1588      1591      1588      1591      1593      1594
      1588      1591      1593      1598      1589      1588      1591      1592
      1589      1588      1591      1593      1590      1588      1591      1592
      1590      1588      1591      1593      1591      1593      1594      1595
      1591      1593      1594      1596      1591      1593      1594      1597
      1591      1593      1598      1599      1591      1593      1598      1600
      1591      1593      1598      1601      1592      1591      1593      1594
      1592      1591      1593      1598      1593      1598      1601      1602
      1593      1598      1601      1603      1594      1593      1598      1599
      1594      1593      1598      1600      1594      1593      1598      1601
      1595      1594      1593      1598      1596      1594      1593      1598
      1597      1594      1593      1598      1599      1598      1601      1602
      1599      1598      1601      1603      1600      1598      1601      1602
      1600      1598      1601      1603      1604      1610      1613      1614
      1604      1610      1613      1615      1604      1610      1613      1616
      1605      1604      1606      1607      1605      1604      1606      1608
      1605      1604      1606      1609      1605      1604      1610      1611
      1605      1604      1610      1612      1605      1604      1610      1613
      1606      1604      1610      1611      1606      1604      1610      1612
      1606      1604      1610      1613      1607      1606      1604      1610
      1608      1606      1604      1610      1609      1606      1604      1610
      1610      1613      1616      1617      1610      1613      1616      1618
      1610      1613      1616      1619      1611      1610      1613      1614
      1611      1610      1613      1615      1611      1610      1613      1616
      1612      1610      1613      1614      1612      1610      1613      1615
      1612      1610      1613      1616      1613      1616      1619      1620
      1613      1616      1619      1621      1613      1616      1619      1625
      1614      1613      1616      1617      1614      1613      1616      1618
      1614      1613      1616      1619      1615      1613      1616      1617
      1615      1613      1616      1618      1615      1613      1616      1619
      1616      1619      1621      1622      1616      1619      1621      1623
      1616      1619      1621      1624      1616      1619      1625      1626
      1616      1619      1625      1627      1616      1619      1625      1628
      1617      1616      1619      1620      1617      1616      1619      1621
      1617      1616      1619      1625      1618      1616      1619      1620
      1618      1616      1619      1621      1618      1616      1619      1625
      1620      1619      1621      1622      1620      1619      1621      1623
      1620      1619      1621      1624      1620      1619      1625      1626
      1620      1619      1625      1627      1620      1619      1625      1628
      1621      1619      1625      1626      1621      1619      1625      1627
      1621      1619      1625      1628      1622      1621      1619      1625
      1623      1621      1619      1625      1624      1621      1619      1625
     19045     19046     19061     19062     19045     19046     19061     19063
     19045     19046     19061     19067     19046     19045     19049     19050
     19046     19045     19049     19051     19046     19045     19049     19052
     19046     19045     19053     19054     19046     19045     19053     19055
     19046     19045     19053     19056     19046     19045     19057     19058
     19046     19045     19057     19059     19046     19045     19057     19060
     19046     19061     19067     19064     19047     19046     19045     19049
     19047     19046     19045     19053     19047     19046     19045     19057
     19047     19046     19061     19062     19047     19046     19061     19063
     19047     19046     19061     19067     19048     19046     19045     19049
     19048     19046     19045     19053     19048     19046     19045     19057
     19048     19046     19061     19062     19048     19046     19061     19063
     19048     19046     19061     19067     19049     19045     19046     19061
     19049     19045     19053     19054     19049     19045     19053     19055
     19049     19045     19053     19056     19049     19045     19057     19058
     19049     19045     19057     19059     19049     19045     19057     19060
     19050     19049     19045     19053     19050     19049     19045     19057
     19051     19049     19045     19053     19051     19049     19045     19057
     19052     19049     19045     19053     19052     19049     19045     19057
     19053     19045     19046     19061     19053     19045     19057     19058
     19053     19045     19057     19059     19053     19045     19057     19060
     19054     19053     19045     19057     19055     19053     19045     19057
     19056     19053     19045     19057     19057     19045     19046     19061
     19061     19067     19064     19065     19061     19067     19064     19066
     19061     19067     19064     19068     19062     19061     19067     19064
     19063     19061     19067     19064     19064     19068     19069     19070
     19064     19068     19069     19071     19064     19068     19069     19072
     19065     19064     19068     19069     19066     19064     19068     19069
     19067     19064     19068     19069     19068     19069     19072     19073
     19068     19069     19072     19074     19068     19069     19072     19080
     19069     19072     19074     19075     19069     19072     19080     19081
     19069     19072     19080     19082     19069     19072     19080     19083
     19070     19069     19072     19073     19070     19069     19072     19074
     19070     19069     19072     19080     19071     19069     19072     19073
     19071     19069     19072     19074     19071     19069     19072     19080
     19072     19074     19075     19076     19072     19074     19075     19077
     19072     19080     19083     19084     19073     19072     19074     19075
     19073     19072     19080     19081     19073     19072     19080     19082
     19073     19072     19080     19083     19074     19072     19080     19081
     19074     19072     19080     19082     19074     19072     19080     19083
     19074     19075     19077     19078     19074     19075     19077     19079
     19074     19075     19077     19089     19075     19074     19072     19080
     19075     19077     19089     19090     19075     19077     19089     19091
     19075     19077     19089     19092     19076     19075     19077     19078
     19076     19075     19077     19079     19076     19075     19077     19089
     19077     19089     19092     19093     19077     19089     19092     19094
     19077     19089     19092     19095     19078     19077     19089     19090
     19078     19077     19089     19091     19078     19077     19089     19092
     19079     19077     19089     19090     19079     19077     19089     19091
     19079     19077     19089     19092     19080     19083     19084     19085
     19080     19083     19084     19086     19081     19080     19083     19084
     19082     19080     19083     19084     19083     19084     19086     19087
     19083     19084     19086     19088     19083     19084     19086     19136
     19084     19086     19136     19137     19084     19086     19136     19138
     19084     19086     19136     19139     19085     19084     19086     19087
     19085     19084     19086     19088     19085     19084     19086     19136
     19086     19136     19139     19140     19086     19136     19139     19141
     19086     19136     19139     19142     19087     19086     19136     19137
     19087     19086     19136     19138     19087     19086     19136     19139
     19088     19086     19136     19137     19088     19086     19136     19138
     19088     19086     19136     19139     19089     19092     19095     19096
     19089     19092     19095     19097     19089     19092     19095     19098
     19090     19089     19092     19093     19090     19089     19092     19094
     19090     19089     19092     19095     19091     19089     19092     19093
     19091     19089     19092     19094     19091     19089     19092     19095
     19092     19095     19098     19099     19092     19095     19098     19100
     19092     19095     19098     19101     19093     19092     19095     19096
     19093     19092     19095     19097     19093     19092     19095     19098
     19094     19092     19095     19096     19094     19092     19095     19097
     19094     19092     19095     19098     19095     19098     19101     19102
     19095     19098     19101     19103     19095     19098     19101     19104
     19096     19095     19098     19099     19096     19095     19098     19100
     19096     19095     19098     19101     19097     19095     19098     19099
     19097     19095     19098     19100     19097     19095     19098     19101
     19098     19101     19104     19105     19098     19101     19104     19106
     19098     19101     19104     19107     19099     19098     19101     19102
     19099     19098     19101     19103     19099     19098     19101     19104
     19100     19098     19101     19102     19100     19098     19101     19103
     19100     19098     19101     19104     19101     19104     19107     19108
     19101     19104     19107     19109     19102     19101     19104     19105
     19102     19101     19104     19106     19102     19101     19104     19107
     19103     19101     19104     19105     19103     19101     19104     19106
     19103     19101     19104     19107     19104     19107     19109     19110
     19104     19107     19109     19111     19105     19104     19107     19108
     19105     19104     19107     19109     19106     19104     19107     19108
     19106     19104     19107     19109     19107     19109     19111     19112
     19107     19109     19111     19113     19107     19109     19111     19114
     19108     19107     19109     19110     19108     19107     19109     19111
     19109     19111     19114     19115     19109     19111     19114     19116
     19109     19111     19114     19117     19110     19109     19111     19112
     19110     19109     19111     19113     19110     19109     19111     19114
     19111     19114     19117     19118     19111     19114     19117     19119
     19111     19114     19117     19120     19112     19111     19114     19115
     19112     19111     19114     19116     19112     19111     19114     19117
     19113     19111     19114     19115     19113     19111     19114     19116
     19113     19111     19114     19117     19114     19117     19120     19121
     19114     19117     19120     19122     19114     19117     19120     19123
     19115     19114     19117     19118     19115     19114     19117     19119
     19115     19114     19117     19120     19116     19114     19117     19118
     19116     19114     19117     19119     19116     19114     19117     19120
     19117     19120     19123     19124     19117     19120     19123     19125
     19117     19120     19123     19126     19118     19117     19120     19121
     19118     19117     19120     19122     19118     19117     19120     19123
     19119     19117     19120     19121     19119     19117     19120     19122
     19119     19117     19120     19123     19120     19123     19126     19127
     19120     19123     19126     19128     19120     19123     19126     19129
     19121     19120     19123     19124     19121     19120     19123     19125
     19121     19120     19123     19126     19122     19120     19123     19124
     19122     19120     19123     19125     19122     19120     19123     19126
     19123     19126     19129     19130     19123     19126     19129     19131
     19123     19126     19129     19132     19124     19123     19126     19127
     19124     19123     19126     19128     19124     19123     19126     19129
     19125     19123     19126     19127     19125     19123     19126     19128
     19125     19123     19126     19129     19126     19129     19132     19133
     19126     19129     19132     19134     19126     19129     19132     19135
     19127     19126     19129     19130     19127     19126     19129     19131
     19127     19126     19129     19132     19128     19126     19129     19130
     19128     19126     19129     19131     19128     19126     19129     19132
     19130     19129     19132     19133     19130     19129     19132     19134
     19130     19129     19132     19135     19131     19129     19132     19133
     19131     19129     19132     19134     19131     19129     19132     19135
     19136     19139     19142     19143     19136     19139     19142     19144
     19136     19139     19142     19145     19137     19136     19139     19140
     19137     19136     19139     19141     19137     19136     19139     19142
     19138     19136     19139     19140     19138     19136     19139     19141
     19138     19136     19139     19142     19139     19142     19145     19146
     19139     19142     19145     19147     19139     19142     19145     19148
     19140     19139     19142     19143     19140     19139     19142     19144
     19140     19139     19142     19145     19141     19139     19142     19143
     19141     19139     19142     19144     19141     19139     19142     19145
     19142     19145     19148     19149     19142     19145     19148     19150
     19142     19145     19148     19151     19143     19142     19145     19146
     19143     19142     19145     19147     19143     19142     19145     19148
     19144     19142     19145     19146     19144     19142     19145     19147
     19144     19142     19145     19148     19145     19148     19151     19152
     19145     19148     19151     19153     19145     19148     19151     19154
     19146     19145     19148     19149     19146     19145     19148     19150
     19146     19145     19148     19151     19147     19145     19148     19149
     19147     19145     19148     19150     19147     19145     19148     19151
     19148     19151     19154     19155     19148     19151     19154     19156
     19148     19151     19154     19157     19149     19148     19151     19152
     19149     19148     19151     19153     19149     19148     19151     19154
     19150     19148     19151     19152     19150     19148     19151     19153
     19150     19148     19151     19154     19151     19154     19157     19158
     19151     19154     19157     19159     19151     19154     19157     19160
     19152     19151     19154     19155     19152     19151     19154     19156
     19152     19151     19154     19157     19153     19151     19154     19155
     19153     19151     19154     19156     19153     19151     19154     19157
     19154     19157     19160     19161     19154     19157     19160     19162
     19154     19157     19160     19163     19155     19154     19157     19158
     19155     19154     19157     19159     19155     19154     19157     19160
     19156     19154     19157     19158     19156     19154     19157     19159
     19156     19154     19157     19160     19157     19160     19163     19164
     19157     19160     19163     19165     19157     19160     19163     19166
     19158     19157     19160     19161     19158     19157     19160     19162
     19158     19157     19160     19163     19159     19157     19160     19161
     19159     19157     19160     19162     19159     19157     19160     19163
     19160     19163     19166     19167     19160     19163     19166     19168
     19160     19163     19166     19169     19161     19160     19163     19164
     19161     19160     19163     19165     19161     19160     19163     19166
     19162     19160     19163     19164     19162     19160     19163     19165
     19162     19160     19163     19166     19163     19166     19169     19170
     19163     19166     19169     19171     19163     19166     19169     19172
     19164     19163     19166     19167     19164     19163     19166     19168
     19164     19163     19166     19169     19165     19163     19166     19167
     19165     19163     19166     19168     19165     19163     19166     19169
     19166     19169     19172     19173     19166     19169     19172     19174
     19166     19169     19172     19175     19167     19166     19169     19170
     19167     19166     19169     19171     19167     19166     19169     19172
     19168     19166     19169     19170     19168     19166     19169     19171
     19168     19166     19169     19172     19169     19172     19175     19176
     19169     19172     19175     19177     19169     19172     19175     19178
     19170     19169     19172     19173     19170     19169     19172     19174
     19170     19169     19172     19175     19171     19169     19172     19173
     19171     19169     19172     19174     19171     19169     19172     19175
     19173     19172     19175     19176     19173     19172     19175     19177
     19173     19172     19175     19178     19174     19172     19175     19176
     19174     19172     19175     19177     19174     19172     19175     19178
      6221      6225      6228      6229      6221      6225      6228      6230
      6221      6225      6228      6235      6222      6221      6225      6226
      6222      6221      6225      6227      6222      6221      6225      6228
      6223      6221      6225      6226      6223      6221      6225      6227
      6223      6221      6225      6228      6224      6221      6225      6226
      6224      6221      6225      6227      6224      6221      6225      6228
      6225      6228      6235      6231      6226      6225      6228      6229
      6226      6225      6228      6230      6226      6225      6228      6235
      6227      6225      6228      6229      6227      6225      6228      6230
      6227      6225      6228      6235      6228      6235      6231      6232
      6228      6235      6231      6233      6228      6235      6231      6234
      6229      6228      6235      6231      6230      6228      6235      6231
      6231      6234      6236      6237      6231      6234      6236      6238
      6231      6234      6236      6239      6232      6231      6234      6236
      6233      6231      6234      6236      6234      6236      6239      6240
      6234      6236      6239      6241      6234      6236      6239      6247
      6235      6231      6234      6236      6236      6239      6241      6242
      6236      6239      6247      6248      6236      6239      6247      6249
      6236      6239      6247      6250      6237      6236      6239      6240
      6237      6236      6239      6241      6237      6236      6239      6247
      6238      6236      6239      6240      6238      6236      6239      6241
      6238      6236      6239      6247      6239      6241      6242      6243
      6239      6241      6242      6244      6239      6247      6250      6251
      6240      6239      6241      6242      6240      6239      6247      6248
      6240      6239      6247      6249      6240      6239      6247      6250
      6241      6239      6247      6248      6241      6239      6247      6249
      6241      6239      6247      6250      6241      6242      6244      6245
      6241      6242      6244      6246      6241      6242      6244      6256
      6242      6241      6239      6247      6242      6244      6256      6257
      6242      6244      6256      6258      6242      6244      6256      6259
      6243      6242      6244      6245      6243      6242      6244      6246
      6243      6242      6244      6256      6244      6256      6259      6260
      6244      6256      6259      6261      6244      6256      6259      6262
      6245      6244      6256      6257      6245      6244      6256      6258
      6245      6244      6256      6259      6246      6244      6256      6257
      6246      6244      6256      6258      6246      6244      6256      6259
      6247      6250      6251      6252      6247      6250      6251      6253
      6248      6247      6250      6251      6249      6247      6250      6251
      6250      6251      6253      6254      6250      6251      6253      6255
      6250      6251      6253      6303      6251      6253      6303      6304
      6251      6253      6303      6305      6251      6253      6303      6306
      6252      6251      6253      6254      6252      6251      6253      6255
      6252      6251      6253      6303      6253      6303      6306      6307
      6253      6303      6306      6308      6253      6303      6306      6309
      6254      6253      6303      6304      6254      6253      6303      6305
      6254      6253      6303      6306      6255      6253      6303      6304
      6255      6253      6303      6305      6255      6253      6303      6306
      6256      6259      6262      6263      6256      6259      6262      6264
      6256      6259      6262      6265      6257      6256      6259      6260
      6257      6256      6259      6261      6257      6256      6259      6262
      6258      6256      6259      6260      6258      6256      6259      6261
      6258      6256      6259      6262      6259      6262      6265      6266
      6259      6262      6265      6267      6259      6262      6265      6268
      6260      6259      6262      6263      6260      6259      6262      6264
      6260      6259      6262      6265      6261      6259      6262      6263
      6261      6259      6262      6264      6261      6259      6262      6265
      6262      6265      6268      6269      6262      6265      6268      6270
      6262      6265      6268      6271      6263      6262      6265      6266
      6263      6262      6265      6267      6263      6262      6265      6268
      6264      6262      6265      6266      6264      6262      6265      6267
      6264      6262      6265      6268      6265      6268      6271      6272
      6265      6268      6271      6273      6265      6268      6271      6274
      6266      6265      6268      6269      6266      6265      6268      6270
      6266      6265      6268      6271      6267      6265      6268      6269
      6267      6265      6268      6270      6267      6265      6268      6271
      6268      6271      6274      6275      6268      6271      6274      6276
      6269      6268      6271      6272      6269      6268      6271      6273
      6269      6268      6271      6274      6270      6268      6271      6272
      6270      6268      6271      6273      6270      6268      6271      6274
      6271      6274      6276      6277      6271      6274      6276      6278
      6272      6271      6274      6275      6272      6271      6274      6276
      6273      6271      6274      6275      6273      6271      6274      6276
      6274      6276      6278      6279      6274      6276      6278      6280
      6274      6276      6278      6281      6275      6274      6276      6277
      6275      6274      6276      6278      6276      6278      6281      6282
      6276      6278      6281      6283      6276      6278      6281      6284
      6277      6276      6278      6279      6277      6276      6278      6280
      6277      6276      6278      6281      6278      6281      6284      6285
      6278      6281      6284      6286      6278      6281      6284      6287
      6279      6278      6281      6282      6279      6278      6281      6283
      6279      6278      6281      6284      6280      6278      6281      6282
      6280      6278      6281      6283      6280      6278      6281      6284
      6281      6284      6287      6288      6281      6284      6287      6289
      6281      6284      6287      6290      6282      6281      6284      6285
      6282      6281      6284      6286      6282      6281      6284      6287
      6283      6281      6284      6285      6283      6281      6284      6286
      6283      6281      6284      6287      6284      6287      6290      6291
      6284      6287      6290      6292      6284      6287      6290      6293
      6285      6284      6287      6288      6285      6284      6287      6289
      6285      6284      6287      6290      6286      6284      6287      6288
      6286      6284      6287      6289      6286      6284      6287      6290
      6287      6290      6293      6294      6287      6290      6293      6295
      6287      6290      6293      6296      6288      6287      6290      6291
      6288      6287      6290      6292      6288      6287      6290      6293
      6289      6287      6290      6291      6289      6287      6290      6292
      6289      6287      6290      6293      6290      6293      6296      6297
      6290      6293      6296      6298      6290      6293      6296      6299
      6291      6290      6293      6294      6291      6290      6293      6295
      6291      6290      6293      6296      6292      6290      6293      6294
      6292      6290      6293      6295      6292      6290      6293      6296
      6293      6296      6299      6300      6293      6296      6299      6301
      6293      6296      6299      6302      6294      6293      6296      6297
      6294      6293      6296      6298      6294      6293      6296      6299
      6295      6293      6296      6297      6295      6293      6296      6298
      6295      6293      6296      6299      6297      6296      6299      6300
      6297      6296      6299      6301      6297      6296      6299      6302
      6298      6296      6299      6300      6298      6296      6299      6301
      6298      6296      6299      6302      6303      6306      6309      6310
      6303      6306      6309      6311      6303      6306      6309      6312
      6304      6303      6306      6307      6304      6303      6306      6308
      6304      6303      6306      6309      6305      6303      6306      6307
      6305      6303      6306      6308      6305      6303      6306      6309
      6306      6309      6312      6313      6306      6309      6312      6314
      6306      6309      6312      6315      6307      6306      6309      6310
      6307      6306      6309      6311      6307      6306      6309      6312
      6308      6306      6309      6310      6308      6306      6309      6311
      6308      6306      6309      6312      6309      6312      6315      6316
      6309      6312      6315      6317      6309      6312      6315      6318
      6310      6309      6312      6313      6310      6309      6312      6314
      6310      6309      6312      6315      6311      6309      6312      6313
      6311      6309      6312      6314      6311      6309      6312      6315
      6312      6315      6318      6319      6312      6315      6318      6320
      6312      6315      6318      6321      6313      6312      6315      6316
      6313      6312      6315      6317      6313      6312      6315      6318
      6314      6312      6315      6316      6314      6312      6315      6317
      6314      6312      6315      6318      6315      6318      6321      6322
      6315      6318      6321      6323      6315      6318      6321      6324
      6316      6315      6318      6319      6316      6315      6318      6320
      6316      6315      6318      6321      6317      6315      6318      6319
      6317      6315      6318      6320      6317      6315      6318      6321
      6318      6321      6324      6325      6318      6321      6324      6326
      6318      6321      6324      6327      6319      6318      6321      6322
      6319      6318      6321      6323      6319      6318      6321      6324
      6320      6318      6321      6322      6320      6318      6321      6323
      6320      6318      6321      6324      6321      6324      6327      6328
      6321      6324      6327      6329      6321      6324      6327      6330
      6322      6321      6324      6325      6322      6321      6324      6326
      6322      6321      6324      6327      6323      6321      6324      6325
      6323      6321      6324      6326      6323      6321      6324      6327
      6324      6327      6330      6331      6324      6327      6330      6332
      6324      6327      6330      6333      6325      6324      6327      6328
      6325      6324      6327      6329      6325      6324      6327      6330
      6326      6324      6327      6328      6326      6324      6327      6329
      6326      6324      6327      6330      6327      6330      6333      6334
      6327      6330      6333      6335      6327      6330      6333      6336
      6328      6327      6330      6331      6328      6327      6330      6332
      6328      6327      6330      6333      6329      6327      6330      6331
      6329      6327      6330      6332      6329      6327      6330      6333
      6330      6333      6336      6337      6330      6333      6336      6338
      6330      6333      6336      6339      6331      6330      6333      6334
      6331      6330      6333      6335      6331      6330      6333      6336
      6332      6330      6333      6334      6332      6330      6333      6335
      6332      6330      6333      6336      6333      6336      6339      6340
      6333      6336      6339      6341      6333      6336      6339      6342
      6334      6333      6336      6337      6334      6333      6336      6338
      6334      6333      6336      6339      6335      6333      6336      6337
      6335      6333      6336      6338      6335      6333      6336      6339
      6336      6339      6342      6343      6336      6339      6342      6344
      6336      6339      6342      6345      6337      6336      6339      6340
      6337      6336      6339      6341      6337      6336      6339      6342
      6338      6336      6339      6340      6338      6336      6339      6341
      6338      6336      6339      6342      6340      6339      6342      6343
      6340      6339      6342      6344      6340      6339      6342      6345
      6341      6339      6342      6343      6341      6339      6342      6344
      6341      6339      6342      6345      1629      1633      1636      1637
      1629      1633      1636      1667      1629      1675      1672      1667
      1629      1675      1672      1673      1629      1675      1672      1674
      1630      1629      1631      1632      1630      1629      1633      1634
      1630      1629      1633      1635      1630      1629      1633      1636
      1630      1629      1675      1672      1630      1629      1675      1676
      1630      1629      1675      1677      1631      1629      1633      1634
      1631      1629      1633      1635      1631      1629      1633      1636
      1631      1629      1675      1672      1631      1629      1675      1676
      1631      1629      1675      1677      1632      1631      1629      1633
      1632      1631      1629      1675      1633      1629      1675      1672
      1633      1629      1675      1676      1633      1629      1675      1677
      1633      1636      1637      1638      1633      1636      1637      1639
      1633      1636      1667      1665      1633      1636      1667      1668
      1633      1636      1667      1672      1634      1633      1629      1675
      1634      1633      1636      1637      1634      1633      1636      1667
      1635      1633      1629      1675      1635      1633      1636      1637
      1635      1633      1636      1667      1636      1633      1629      1675
      1636      1637      1639      1640      1636      1637      1639      1641
      1636      1637      1639      1642      1636      1667      1665      1642
      1636      1667      1665      1662      1636      1667      1665      1666
      1636      1667      1668      1669      1636      1667      1668      1670
      1636      1667      1668      1671      1636      1667      1672      1673
      1636      1667      1672      1674      1636      1667      1672      1675
      1637      1636      1667      1665      1637      1636      1667      1668
      1637      1636      1667      1672      1637      1639      1642      1643
      1637      1639      1642      1644      1637      1639      1642      1665
      1638      1637      1636      1667      1638      1637      1639      1640
      1638      1637      1639      1641      1638      1637      1639      1642
      1639      1637      1636      1667      1639      1642      1644      1645
      1639      1642      1644      1646      1639      1642      1644      1654
      1639      1642      1665      1662      1639      1642      1665      1666
      1639      1642      1665      1667      1640      1639      1642      1643
      1640      1639      1642      1644      1640      1639      1642      1665
      1641      1639      1642      1643      1641      1639      1642      1644
      1641      1639      1642      1665      1642      1644      1646      1647
      1642      1644      1646      1648      1642      1644      1646      1649
      1642      1644      1654      1652      1642      1644      1654      1655
      1642      1644      1654      1659      1642      1665      1662      1659
      1642      1665      1662      1663      1642      1665      1662      1664
      1642      1665      1667      1668      1642      1665      1667      1672
      1643      1642      1644      1645      1643      1642      1644      1646
      1643      1642      1644      1654      1643      1642      1665      1662
      1643      1642      1665      1666      1643      1642      1665      1667
      1644      1642      1665      1662      1644      1642      1665      1666
      1644      1642      1665      1667      1644      1646      1649      1650
      1644      1646      1649      1651      1644      1646      1649      1652
      1644      1654      1652      1649      1644      1654      1652      1653
      1644      1654      1652      1678      1644      1654      1655      1656
      1644      1654      1655      1657      1644      1654      1655      1658
      1644      1654      1659      1660      1644      1654      1659      1661
      1644      1654      1659      1662      1645      1644      1642      1665
      1645      1644      1646      1647      1645      1644      1646      1648
      1645      1644      1646      1649      1645      1644      1654      1652
      1645      1644      1654      1655      1645      1644      1654      1659
      1646      1644      1642      1665      1646      1644      1654      1652
      1646      1644      1654      1655      1646      1644      1654      1659
      1646      1649      1652      1653      1646      1649      1652      1654
      1646      1649      1652      1678      1647      1646      1644      1654
      1647      1646      1649      1650      1647      1646      1649      1651
      1647      1646      1649      1652      1648      1646      1644      1654
      1648      1646      1649      1650      1648      1646      1649      1651
      1648      1646      1649      1652      1649      1646      1644      1654
      1649      1652      1654      1655      1649      1652      1654      1659
      1649      1652      1678      1679      1649      1652      1678      1680
      1649      1652      1678      1684      1650      1649      1652      1653
      1650      1649      1652      1654      1650      1649      1652      1678
      1651      1649      1652      1653      1651      1649      1652      1654
      1651      1649      1652      1678      1652      1654      1655      1656
      1652      1654      1655      1657      1652      1654      1655      1658
      1652      1654      1659      1660      1652      1654      1659      1661
      1652      1654      1659      1662      1652      1678      1680      1681
      1652      1678      1680      1682      1652      1678      1680      1683
      1652      1678      1684      1685      1652      1678      1684      1686
      1652      1678      1684      1687      1653      1652      1654      1655
      1653      1652      1654      1659      1653      1652      1678      1679
      1653      1652      1678      1680      1653      1652      1678      1684
      1654      1644      1642      1665      1654      1652      1678      1679
      1654      1652      1678      1680      1654      1652      1678      1684
      1654      1659      1662      1663      1654      1659      1662      1664
      1654      1659      1662      1665      1655      1654      1652      1678
      1655      1654      1659      1660      1655      1654      1659      1661
      1655      1654      1659      1662      1656      1655      1654      1659
      1657      1655      1654      1659      1658      1655      1654      1659
      1659      1654      1652      1678      1659      1662      1665      1666
      1659      1662      1665      1667      1660      1659      1662      1663
      1660      1659      1662      1664      1660      1659      1662      1665
      1661      1659      1662      1663      1661      1659      1662      1664
      1661      1659      1662      1665      1662      1665      1667      1668
      1662      1665      1667      1672      1663      1662      1665      1666
      1663      1662      1665      1667      1664      1662      1665      1666
      1664      1662      1665      1667      1665      1667      1668      1669
      1665      1667      1668      1670      1665      1667      1668      1671
      1665      1667      1672      1673      1665      1667      1672      1674
      1665      1667      1672      1675      1666      1665      1667      1668
      1666      1665      1667      1672      1667      1672      1675      1676
      1667      1672      1675      1677      1668      1667      1672      1673
      1668      1667      1672      1674      1668      1667      1672      1675
      1669      1668      1667      1672      1670      1668      1667      1672
      1671      1668      1667      1672      1673      1672      1675      1676
      1673      1672      1675      1677      1674      1672      1675      1676
      1674      1672      1675      1677      1678      1684      1687      1688
      1678      1684      1687      1689      1678      1684      1687      1690
      1679      1678      1680      1681      1679      1678      1680      1682
      1679      1678      1680      1683      1679      1678      1684      1685
      1679      1678      1684      1686      1679      1678      1684      1687
      1680      1678      1684      1685      1680      1678      1684      1686
      1680      1678      1684      1687      1681      1680      1678      1684
      1682      1680      1678      1684      1683      1680      1678      1684
      1684      1687      1690      1691      1684      1687      1690      1692
      1684      1687      1690      1693      1685      1684      1687      1688
      1685      1684      1687      1689      1685      1684      1687      1690
      1686      1684      1687      1688      1686      1684      1687      1689
      1686      1684      1687      1690      1687      1690      1693      1694
      1687      1690      1693      1695      1687      1690      1693      1699
      1688      1687      1690      1691      1688      1687      1690      1692
      1688      1687      1690      1693      1689      1687      1690      1691
      1689      1687      1690      1692      1689      1687      1690      1693
      1690      1693      1695      1696      1690      1693      1695      1697
      1690      1693      1695      1698      1690      1693      1699      1700
      1690      1693      1699      1701      1690      1693      1699      1702
      1691      1690      1693      1694      1691      1690      1693      1695
      1691      1690      1693      1699      1692      1690      1693      1694
      1692      1690      1693      1695      1692      1690      1693      1699
      1694      1693      1695      1696      1694      1693      1695      1697
      1694      1693      1695      1698      1694      1693      1699      1700
      1694      1693      1699      1701      1694      1693      1699      1702
      1695      1693      1699      1700      1695      1693      1699      1701
      1695      1693      1699      1702      1696      1695      1693      1699
      1697      1695      1693      1699      1698      1695      1693      1699
      6346      6350      6353      6354      6346      6350      6353      6355
      6346      6350      6353      6360      6347      6346      6350      6351
      6347      6346      6350      6352      6347      6346      6350      6353
      6348      6346      6350      6351      6348      6346      6350      6352
      6348      6346      6350      6353      6349      6346      6350      6351
      6349      6346      6350      6352      6349      6346      6350      6353
      6350      6353      6360      6356      6351      6350      6353      6354
      6351      6350      6353      6355      6351      6350      6353      6360
      6352      6350      6353      6354      6352      6350      6353      6355
      6352      6350      6353      6360      6353      6360      6356      6357
      6353      6360      6356      6358      6353      6360      6356      6359
      6354      6353      6360      6356      6355      6353      6360      6356
      6356      6359      6361      6362      6356      6359      6361      6363
      6356      6359      6361      6364      6357      6356      6359      6361
      6358      6356      6359      6361      6359      6361      6364      6365
      6359      6361      6364      6366      6359      6361      6364      6372
      6360      6356      6359      6361      6361      6364      6366      6367
      6361      6364      6372      6373      6361      6364      6372      6374
      6361      6364      6372      6375      6362      6361      6364      6365
      6362      6361      6364      6366      6362      6361      6364      6372
      6363      6361      6364      6365      6363      6361      6364      6366
      6363      6361      6364      6372      6364      6366      6367      6368
      6364      6366      6367      6369      6364      6372      6375      6376
      6365      6364      6366      6367      6365      6364      6372      6373
      6365      6364      6372      6374      6365      6364      6372      6375
      6366      6364      6372      6373      6366      6364      6372      6374
      6366      6364      6372      6375      6366      6367      6369      6370
      6366      6367      6369      6371      6366      6367      6369      6381
      6367      6366      6364      6372      6367      6369      6381      6382
      6367      6369      6381      6383      6367      6369      6381      6384
      6368      6367      6369      6370      6368      6367      6369      6371
      6368      6367      6369      6381      6369      6381      6384      6385
      6369      6381      6384      6386      6369      6381      6384      6387
      6370      6369      6381      6382      6370      6369      6381      6383
      6370      6369      6381      6384      6371      6369      6381      6382
      6371      6369      6381      6383      6371      6369      6381      6384
      6372      6375      6376      6377      6372      6375      6376      6378
      6373      6372      6375      6376      6374      6372      6375      6376
      6375      6376      6378      6379      6375      6376      6378      6380
      6375      6376      6378      6428      6376      6378      6428      6429
      6376      6378      6428      6430      6376      6378      6428      6431
      6377      6376      6378      6379      6377      6376      6378      6380
      6377      6376      6378      6428      6378      6428      6431      6432
      6378      6428      6431      6433      6378      6428      6431      6434
      6379      6378      6428      6429      6379      6378      6428      6430
      6379      6378      6428      6431      6380      6378      6428      6429
      6380      6378      6428      6430      6380      6378      6428      6431
      6381      6384      6387      6388      6381      6384      6387      6389
      6381      6384      6387      6390      6382      6381      6384      6385
      6382      6381      6384      6386      6382      6381      6384      6387
      6383      6381      6384      6385      6383      6381      6384      6386
      6383      6381      6384      6387      6384      6387      6390      6391
      6384      6387      6390      6392      6384      6387      6390      6393
      6385      6384      6387      6388      6385      6384      6387      6389
      6385      6384      6387      6390      6386      6384      6387      6388
      6386      6384      6387      6389      6386      6384      6387      6390
      6387      6390      6393      6394      6387      6390      6393      6395
      6387      6390      6393      6396      6388      6387      6390      6391
      6388      6387      6390      6392      6388      6387      6390      6393
      6389      6387      6390      6391      6389      6387      6390      6392
      6389      6387      6390      6393      6390      6393      6396      6397
      6390      6393      6396      6398      6390      6393      6396      6399
      6391      6390      6393      6394      6391      6390      6393      6395
      6391      6390      6393      6396      6392      6390      6393      6394
      6392      6390      6393      6395      6392      6390      6393      6396
      6393      6396      6399      6400      6393      6396      6399      6401
      6394      6393      6396      6397      6394      6393      6396      6398
      6394      6393      6396      6399      6395      6393      6396      6397
      6395      6393      6396      6398      6395      6393      6396      6399
      6396      6399      6401      6402      6396      6399      6401      6403
      6397      6396      6399      6400      6397      6396      6399      6401
      6398      6396      6399      6400      6398      6396      6399      6401
      6399      6401      6403      6404      6399      6401      6403      6405
      6399      6401      6403      6406      6400      6399      6401      6402
      6400      6399      6401      6403      6401      6403      6406      6407
      6401      6403      6406      6408      6401      6403      6406      6409
      6402      6401      6403      6404      6402      6401      6403      6405
      6402      6401      6403      6406      6403      6406      6409      6410
      6403      6406      6409      6411      6403      6406      6409      6412
      6404      6403      6406      6407      6404      6403      6406      6408
      6404      6403      6406      6409      6405      6403      6406      6407
      6405      6403      6406      6408      6405      6403      6406      6409
      6406      6409      6412      6413      6406      6409      6412      6414
      6406      6409      6412      6415      6407      6406      6409      6410
      6407      6406      6409      6411      6407      6406      6409      6412
      6408      6406      6409      6410      6408      6406      6409      6411
      6408      6406      6409      6412      6409      6412      6415      6416
      6409      6412      6415      6417      6409      6412      6415      6418
      6410      6409      6412      6413      6410      6409      6412      6414
      6410      6409      6412      6415      6411      6409      6412      6413
      6411      6409      6412      6414      6411      6409      6412      6415
      6412      6415      6418      6419      6412      6415      6418      6420
      6412      6415      6418      6421      6413      6412      6415      6416
      6413      6412      6415      6417      6413      6412      6415      6418
      6414      6412      6415      6416      6414      6412      6415      6417
      6414      6412      6415      6418      6415      6418      6421      6422
      6415      6418      6421      6423      6415      6418      6421      6424
      6416      6415      6418      6419      6416      6415      6418      6420
      6416      6415      6418      6421      6417      6415      6418      6419
      6417      6415      6418      6420      6417      6415      6418      6421
      6418      6421      6424      6425      6418      6421      6424      6426
      6418      6421      6424      6427      6419      6418      6421      6422
      6419      6418      6421      6423      6419      6418      6421      6424
      6420      6418      6421      6422      6420      6418      6421      6423
      6420      6418      6421      6424      6422      6421      6424      6425
      6422      6421      6424      6426      6422      6421      6424      6427
      6423      6421      6424      6425      6423      6421      6424      6426
      6423      6421      6424      6427      6428      6431      6434      6435
      6428      6431      6434      6436      6428      6431      6434      6437
      6429      6428      6431      6432      6429      6428      6431      6433
      6429      6428      6431      6434      6430      6428      6431      6432
      6430      6428      6431      6433      6430      6428      6431      6434
      6431      6434      6437      6438      6431      6434      6437      6439
      6431      6434      6437      6440      6432      6431      6434      6435
      6432      6431      6434      6436      6432      6431      6434      6437
      6433      6431      6434      6435      6433      6431      6434      6436
      6433      6431      6434      6437      6434      6437      6440      6441
      6434      6437      6440      6442      6434      6437      6440      6443
      6435      6434      6437      6438      6435      6434      6437      6439
      6435      6434      6437      6440      6436      6434      6437      6438
      6436      6434      6437      6439      6436      6434      6437      6440
      6437      6440      6443      6444      6437      6440      6443      6445
      6437      6440      6443      6446      6438      6437      6440      6441
      6438      6437      6440      6442      6438      6437      6440      6443
      6439      6437      6440      6441      6439      6437      6440      6442
      6439      6437      6440      6443      6440      6443      6446      6447
      6440      6443      6446      6448      6440      6443      6446      6449
      6441      6440      6443      6444      6441      6440      6443      6445
      6441      6440      6443      6446      6442      6440      6443      6444
      6442      6440      6443      6445      6442      6440      6443      6446
      6443      6446      6449      6450      6443      6446      6449      6451
      6443      6446      6449      6452      6444      6443      6446      6447
      6444      6443      6446      6448      6444      6443      6446      6449
      6445      6443      6446      6447      6445      6443      6446      6448
      6445      6443      6446      6449      6446      6449      6452      6453
      6446      6449      6452      6454      6446      6449      6452      6455
      6447      6446      6449      6450      6447      6446      6449      6451
      6447      6446      6449      6452      6448      6446      6449      6450
      6448      6446      6449      6451      6448      6446      6449      6452
      6449      6452      6455      6456      6449      6452      6455      6457
      6449      6452      6455      6458      6450      6449      6452      6453
      6450      6449      6452      6454      6450      6449      6452      6455
      6451      6449      6452      6453      6451      6449      6452      6454
      6451      6449      6452      6455      6452      6455      6458      6459
      6452      6455      6458      6460      6452      6455      6458      6461
      6453      6452      6455      6456      6453      6452      6455      6457
      6453      6452      6455      6458      6454      6452      6455      6456
      6454      6452      6455      6457      6454      6452      6455      6458
      6455      6458      6461      6462      6455      6458      6461      6463
      6455      6458      6461      6464      6456      6455      6458      6459
      6456      6455      6458      6460      6456      6455      6458      6461
      6457      6455      6458      6459      6457      6455      6458      6460
      6457      6455      6458      6461      6458      6461      6464      6465
      6458      6461      6464      6466      6458      6461      6464      6467
      6459      6458      6461      6462      6459      6458      6461      6463
      6459      6458      6461      6464      6460      6458      6461      6462
      6460      6458      6461      6463      6460      6458      6461      6464
      6461      6464      6467      6468      6461      6464      6467      6469
      6461      6464      6467      6470      6462      6461      6464      6465
      6462      6461      6464      6466      6462      6461      6464      6467
      6463      6461      6464      6465      6463      6461      6464      6466
      6463      6461      6464      6467      6465      6464      6467      6468
      6465      6464      6467      6469      6465      6464      6467      6470
      6466      6464      6467      6468      6466      6464      6467      6469
      6466      6464      6467      6470      6471      6475      6478      6479
      6471      6475      6478      6480      6471      6475      6478      6485
      6472      6471      6475      6476      6472      6471      6475      6477
      6472      6471      6475      6478      6473      6471      6475      6476
      6473      6471      6475      6477      6473      6471      6475      6478
      6474      6471      6475      6476      6474      6471      6475      6477
      6474      6471      6475      6478      6475      6478      6485      6481
      6476      6475      6478      6479      6476      6475      6478      6480
      6476      6475      6478      6485      6477      6475      6478      6479
      6477      6475      6478      6480      6477      6475      6478      6485
      6478      6485      6481      6482      6478      6485      6481      6483
      6478      6485      6481      6484      6479      6478      6485      6481
      6480      6478      6485      6481      6481      6484      6486      6487
      6481      6484      6486      6488      6481      6484      6486      6489
      6482      6481      6484      6486      6483      6481      6484      6486
      6484      6486      6489      6490      6484      6486      6489      6491
      6484      6486      6489      6497      6485      6481      6484      6486
      6486      6489      6491      6492      6486      6489      6497      6498
      6486      6489      6497      6499      6486      6489      6497      6500
      6487      6486      6489      6490      6487      6486      6489      6491
      6487      6486      6489      6497      6488      6486      6489      6490
      6488      6486      6489      6491      6488      6486      6489      6497
      6489      6491      6492      6493      6489      6491      6492      6494
      6489      6497      6500      6501      6490      6489      6491      6492
      6490      6489      6497      6498      6490      6489      6497      6499
      6490      6489      6497      6500      6491      6489      6497      6498
      6491      6489      6497      6499      6491      6489      6497      6500
      6491      6492      6494      6495      6491      6492      6494      6496
      6491      6492      6494      6506      6492      6491      6489      6497
      6492      6494      6506      6507      6492      6494      6506      6508
      6492      6494      6506      6509      6493      6492      6494      6495
      6493      6492      6494      6496      6493      6492      6494      6506
      6494      6506      6509      6510      6494      6506      6509      6511
      6494      6506      6509      6512      6495      6494      6506      6507
      6495      6494      6506      6508      6495      6494      6506      6509
      6496      6494      6506      6507      6496      6494      6506      6508
      6496      6494      6506      6509      6497      6500      6501      6502
      6497      6500      6501      6503      6498      6497      6500      6501
      6499      6497      6500      6501      6500      6501      6503      6504
      6500      6501      6503      6505      6500      6501      6503      6553
      6501      6503      6553      6554      6501      6503      6553      6555
      6501      6503      6553      6556      6502      6501      6503      6504
      6502      6501      6503      6505      6502      6501      6503      6553
      6503      6553      6556      6557      6503      6553      6556      6558
      6503      6553      6556      6559      6504      6503      6553      6554
      6504      6503      6553      6555      6504      6503      6553      6556
      6505      6503      6553      6554      6505      6503      6553      6555
      6505      6503      6553      6556      6506      6509      6512      6513
      6506      6509      6512      6514      6506      6509      6512      6515
      6507      6506      6509      6510      6507      6506      6509      6511
      6507      6506      6509      6512      6508      6506      6509      6510
      6508      6506      6509      6511      6508      6506      6509      6512
      6509      6512      6515      6516      6509      6512      6515      6517
      6509      6512      6515      6518      6510      6509      6512      6513
      6510      6509      6512      6514      6510      6509      6512      6515
      6511      6509      6512      6513      6511      6509      6512      6514
      6511      6509      6512      6515      6512      6515      6518      6519
      6512      6515      6518      6520      6512      6515      6518      6521
      6513      6512      6515      6516      6513      6512      6515      6517
      6513      6512      6515      6518      6514      6512      6515      6516
      6514      6512      6515      6517      6514      6512      6515      6518
      6515      6518      6521      6522      6515      6518      6521      6523
      6515      6518      6521      6524      6516      6515      6518      6519
      6516      6515      6518      6520      6516      6515      6518      6521
      6517      6515      6518      6519      6517      6515      6518      6520
      6517      6515      6518      6521      6518      6521      6524      6525
      6518      6521      6524      6526      6519      6518      6521      6522
      6519      6518      6521      6523      6519      6518      6521      6524
      6520      6518      6521      6522      6520      6518      6521      6523
      6520      6518      6521      6524      6521      6524      6526      6527
      6521      6524      6526      6528      6522      6521      6524      6525
      6522      6521      6524      6526      6523      6521      6524      6525
      6523      6521      6524      6526      6524      6526      6528      6529
      6524      6526      6528      6530      6524      6526      6528      6531
      6525      6524      6526      6527      6525      6524      6526      6528
      6526      6528      6531      6532      6526      6528      6531      6533
      6526      6528      6531      6534      6527      6526      6528      6529
      6527      6526      6528      6530      6527      6526      6528      6531
      6528      6531      6534      6535      6528      6531      6534      6536
      6528      6531      6534      6537      6529      6528      6531      6532
      6529      6528      6531      6533      6529      6528      6531      6534
      6530      6528      6531      6532      6530      6528      6531      6533
      6530      6528      6531      6534      6531      6534      6537      6538
      6531      6534      6537      6539      6531      6534      6537      6540
      6532      6531      6534      6535      6532      6531      6534      6536
      6532      6531      6534      6537      6533      6531      6534      6535
      6533      6531      6534      6536      6533      6531      6534      6537
      6534      6537      6540      6541      6534      6537      6540      6542
      6534      6537      6540      6543      6535      6534      6537      6538
      6535      6534      6537      6539      6535      6534      6537      6540
      6536      6534      6537      6538      6536      6534      6537      6539
      6536      6534      6537      6540      6537      6540      6543      6544
      6537      6540      6543      6545      6537      6540      6543      6546
      6538      6537      6540      6541      6538      6537      6540      6542
      6538      6537      6540      6543      6539      6537      6540      6541
      6539      6537      6540      6542      6539      6537      6540      6543
      6540      6543      6546      6547      6540      6543      6546      6548
      6540      6543      6546      6549      6541      6540      6543      6544
      6541      6540      6543      6545      6541      6540      6543      6546
      6542      6540      6543      6544      6542      6540      6543      6545
      6542      6540      6543      6546      6543      6546      6549      6550
      6543      6546      6549      6551      6543      6546      6549      6552
      6544      6543      6546      6547      6544      6543      6546      6548
      6544      6543      6546      6549      6545      6543      6546      6547
      6545      6543      6546      6548      6545      6543      6546      6549
      6547      6546      6549      6550      6547      6546      6549      6551
      6547      6546      6549      6552      6548      6546      6549      6550
      6548      6546      6549      6551      6548      6546      6549      6552
      6553      6556      6559      6560      6553      6556      6559      6561
      6553      6556      6559      6562      6554      6553      6556      6557
      6554      6553      6556      6558      6554      6553      6556      6559
      6555      6553      6556      6557      6555      6553      6556      6558
      6555      6553      6556      6559      6556      6559      6562      6563
      6556      6559      6562      6564      6556      6559      6562      6565
      6557      6556      6559      6560      6557      6556      6559      6561
      6557      6556      6559      6562      6558      6556      6559      6560
      6558      6556      6559      6561      6558      6556      6559      6562
      6559      6562      6565      6566      6559      6562      6565      6567
      6559      6562      6565      6568      6560      6559      6562      6563
      6560      6559      6562      6564      6560      6559      6562      6565
      6561      6559      6562      6563      6561      6559      6562      6564
      6561      6559      6562      6565      6562      6565      6568      6569
      6562      6565      6568      6570      6562      6565      6568      6571
      6563      6562      6565      6566      6563      6562      6565      6567
      6563      6562      6565      6568      6564      6562      6565      6566
      6564      6562      6565      6567      6564      6562      6565      6568
      6565      6568      6571      6572      6565      6568      6571      6573
      6565      6568      6571      6574      6566      6565      6568      6569
      6566      6565      6568      6570      6566      6565      6568      6571
      6567      6565      6568      6569      6567      6565      6568      6570
      6567      6565      6568      6571      6568      6571      6574      6575
      6568      6571      6574      6576      6568      6571      6574      6577
      6569      6568      6571      6572      6569      6568      6571      6573
      6569      6568      6571      6574      6570      6568      6571      6572
      6570      6568      6571      6573      6570      6568      6571      6574
      6571      6574      6577      6578      6571      6574      6577      6579
      6571      6574      6577      6580      6572      6571      6574      6575
      6572      6571      6574      6576      6572      6571      6574      6577
      6573      6571      6574      6575      6573      6571      6574      6576
      6573      6571      6574      6577      6574      6577      6580      6581
      6574      6577      6580      6582      6574      6577      6580      6583
      6575      6574      6577      6578      6575      6574      6577      6579
      6575      6574      6577      6580      6576      6574      6577      6578
      6576      6574      6577      6579      6576      6574      6577      6580
      6577      6580      6583      6584      6577      6580      6583      6585
      6577      6580      6583      6586      6578      6577      6580      6581
      6578      6577      6580      6582      6578      6577      6580      6583
      6579      6577      6580      6581      6579      6577      6580      6582
      6579      6577      6580      6583      6580      6583      6586      6587
      6580      6583      6586      6588      6580      6583      6586      6589
      6581      6580      6583      6584      6581      6580      6583      6585
      6581      6580      6583      6586      6582      6580      6583      6584
      6582      6580      6583      6585      6582      6580      6583      6586
      6583      6586      6589      6590      6583      6586      6589      6591
      6583      6586      6589      6592      6584      6583      6586      6587
      6584      6583      6586      6588      6584      6583      6586      6589
      6585      6583      6586      6587      6585      6583      6586      6588
      6585      6583      6586      6589      6586      6589      6592      6593
      6586      6589      6592      6594      6586      6589      6592      6595
      6587      6586      6589      6590      6587      6586      6589      6591
      6587      6586      6589      6592      6588      6586      6589      6590
      6588      6586      6589      6591      6588      6586      6589      6592
      6590      6589      6592      6593      6590      6589      6592      6594
      6590      6589      6592      6595      6591      6589      6592      6593
      6591      6589      6592      6594      6591      6589      6592      6595
     11773     11777     11779     11780     11773     11777     11779     11781
     11773     11777     11782     11783     11773     11777     11782     11784
     11773     11777     11782     11788     11774     11773     11777     11778
     11774     11773     11777     11779     11774     11773     11777     11782
     11775     11773     11777     11778     11775     11773     11777     11779
     11775     11773     11777     11782     11776     11773     11777     11778
     11776     11773     11777     11779     11776     11773     11777     11782
     11777     11782     11788     11785     11778     11777     11779     11780
     11778     11777     11779     11781     11778     11777     11782     11783
     11778     11777     11782     11784     11778     11777     11782     11788
     11779     11777     11782     11783     11779     11777     11782     11784
     11779     11777     11782     11788     11780     11779     11777     11782
     11781     11779     11777     11782     11782     11788     11785     11786
     11782     11788     11785     11787     11782     11788     11785     11789
     11783     11782     11788     11785     11784     11782     11788     11785
     11785     11789     11790     11791     11785     11789     11790     11792
     11785     11789     11790     11793     11786     11785     11789     11790
     11787     11785     11789     11790     11788     11785     11789     11790
     11789     11790     11793     11794     11789     11790     11793     11795
     11789     11790     11793     11801     11790     11793     11795     11796
     11790     11793     11801     11802     11790     11793     11801     11803
     11790     11793     11801     11804     11791     11790     11793     11794
     11791     11790     11793     11795     11791     11790     11793     11801
     11792     11790     11793     11794     11792     11790     11793     11795
     11792     11790     11793     11801     11793     11795     11796     11797
     11793     11795     11796     11798     11793     11801     11804     11805
     11794     11793     11795     11796     11794     11793     11801     11802
     11794     11793     11801     11803     11794     11793     11801     11804
     11795     11793     11801     11802     11795     11793     11801     11803
     11795     11793     11801     11804     11795     11796     11798     11799
     11795     11796     11798     11800     11795     11796     11798     11810
     11796     11795     11793     11801     11796     11798     11810     11811
     11796     11798     11810     11812     11796     11798     11810     11813
     11797     11796     11798     11799     11797     11796     11798     11800
     11797     11796     11798     11810     11798     11810     11813     11814
     11798     11810     11813     11815     11798     11810     11813     11816
     11799     11798     11810     11811     11799     11798     11810     11812
     11799     11798     11810     11813     11800     11798     11810     11811
     11800     11798     11810     11812     11800     11798     11810     11813
     11801     11804     11805     11806     11801     11804     11805     11807
     11802     11801     11804     11805     11803     11801     11804     11805
     11804     11805     11807     11808     11804     11805     11807     11809
     11804     11805     11807     11857     11805     11807     11857     11858
     11805     11807     11857     11859     11805     11807     11857     11860
     11806     11805     11807     11808     11806     11805     11807     11809
     11806     11805     11807     11857     11807     11857     11860     11861
     11807     11857     11860     11862     11807     11857     11860     11863
     11808     11807     11857     11858     11808     11807     11857     11859
     11808     11807     11857     11860     11809     11807     11857     11858
     11809     11807     11857     11859     11809     11807     11857     11860
     11810     11813     11816     11817     11810     11813     11816     11818
     11810     11813     11816     11819     11811     11810     11813     11814
     11811     11810     11813     11815     11811     11810     11813     11816
     11812     11810     11813     11814     11812     11810     11813     11815
     11812     11810     11813     11816     11813     11816     11819     11820
     11813     11816     11819     11821     11813     11816     11819     11822
     11814     11813     11816     11817     11814     11813     11816     11818
     11814     11813     11816     11819     11815     11813     11816     11817
     11815     11813     11816     11818     11815     11813     11816     11819
     11816     11819     11822     11823     11816     11819     11822     11824
     11816     11819     11822     11825     11817     11816     11819     11820
     11817     11816     11819     11821     11817     11816     11819     11822
     11818     11816     11819     11820     11818     11816     11819     11821
     11818     11816     11819     11822     11819     11822     11825     11826
     11819     11822     11825     11827     11819     11822     11825     11828
     11820     11819     11822     11823     11820     11819     11822     11824
     11820     11819     11822     11825     11821     11819     11822     11823
     11821     11819     11822     11824     11821     11819     11822     11825
     11822     11825     11828     11829     11822     11825     11828     11830
     11823     11822     11825     11826     11823     11822     11825     11827
     11823     11822     11825     11828     11824     11822     11825     11826
     11824     11822     11825     11827     11824     11822     11825     11828
     11825     11828     11830     11831     11825     11828     11830     11832
     11826     11825     11828     11829     11826     11825     11828     11830
     11827     11825     11828     11829     11827     11825     11828     11830
     11828     11830     11832     11833     11828     11830     11832     11834
     11828     11830     11832     11835     11829     11828     11830     11831
     11829     11828     11830     11832     11830     11832     11835     11836
     11830     11832     11835     11837     11830     11832     11835     11838
     11831     11830     11832     11833     11831     11830     11832     11834
     11831     11830     11832     11835     11832     11835     11838     11839
     11832     11835     11838     11840     11832     11835     11838     11841
     11833     11832     11835     11836     11833     11832     11835     11837
     11833     11832     11835     11838     11834     11832     11835     11836
     11834     11832     11835     11837     11834     11832     11835     11838
     11835     11838     11841     11842     11835     11838     11841     11843
     11835     11838     11841     11844     11836     11835     11838     11839
     11836     11835     11838     11840     11836     11835     11838     11841
     11837     11835     11838     11839     11837     11835     11838     11840
     11837     11835     11838     11841     11838     11841     11844     11845
     11838     11841     11844     11846     11838     11841     11844     11847
     11839     11838     11841     11842     11839     11838     11841     11843
     11839     11838     11841     11844     11840     11838     11841     11842
     11840     11838     11841     11843     11840     11838     11841     11844
     11841     11844     11847     11848     11841     11844     11847     11849
     11841     11844     11847     11850     11842     11841     11844     11845
     11842     11841     11844     11846     11842     11841     11844     11847
     11843     11841     11844     11845     11843     11841     11844     11846
     11843     11841     11844     11847     11844     11847     11850     11851
     11844     11847     11850     11852     11844     11847     11850     11853
     11845     11844     11847     11848     11845     11844     11847     11849
     11845     11844     11847     11850     11846     11844     11847     11848
     11846     11844     11847     11849     11846     11844     11847     11850
     11847     11850     11853     11854     11847     11850     11853     11855
     11847     11850     11853     11856     11848     11847     11850     11851
     11848     11847     11850     11852     11848     11847     11850     11853
     11849     11847     11850     11851     11849     11847     11850     11852
     11849     11847     11850     11853     11851     11850     11853     11854
     11851     11850     11853     11855     11851     11850     11853     11856
     11852     11850     11853     11854     11852     11850     11853     11855
     11852     11850     11853     11856     11857     11860     11863     11864
     11857     11860     11863     11865     11857     11860     11863     11866
     11858     11857     11860     11861     11858     11857     11860     11862
     11858     11857     11860     11863     11859     11857     11860     11861
     11859     11857     11860     11862     11859     11857     11860     11863
     11860     11863     11866     11867     11860     11863     11866     11868
     11860     11863     11866     11869     11861     11860     11863     11864
     11861     11860     11863     11865     11861     11860     11863     11866
     11862     11860     11863     11864     11862     11860     11863     11865
     11862     11860     11863     11866     11863     11866     11869     11870
     11863     11866     11869     11871     11863     11866     11869     11872
     11864     11863     11866     11867     11864     11863     11866     11868
     11864     11863     11866     11869     11865     11863     11866     11867
     11865     11863     11866     11868     11865     11863     11866     11869
     11866     11869     11872     11873     11866     11869     11872     11874
     11866     11869     11872     11875     11867     11866     11869     11870
     11867     11866     11869     11871     11867     11866     11869     11872
     11868     11866     11869     11870     11868     11866     11869     11871
     11868     11866     11869     11872     11869     11872     11875     11876
     11869     11872     11875     11877     11869     11872     11875     11878
     11870     11869     11872     11873     11870     11869     11872     11874
     11870     11869     11872     11875     11871     11869     11872     11873
     11871     11869     11872     11874     11871     11869     11872     11875
     11872     11875     11878     11879     11872     11875     11878     11880
     11872     11875     11878     11881     11873     11872     11875     11876
     11873     11872     11875     11877     11873     11872     11875     11878
     11874     11872     11875     11876     11874     11872     11875     11877
     11874     11872     11875     11878     11875     11878     11881     11882
     11875     11878     11881     11883     11875     11878     11881     11884
     11876     11875     11878     11879     11876     11875     11878     11880
     11876     11875     11878     11881     11877     11875     11878     11879
     11877     11875     11878     11880     11877     11875     11878     11881
     11878     11881     11884     11885     11878     11881     11884     11886
     11878     11881     11884     11887     11879     11878     11881     11882
     11879     11878     11881     11883     11879     11878     11881     11884
     11880     11878     11881     11882     11880     11878     11881     11883
     11880     11878     11881     11884     11881     11884     11887     11888
     11881     11884     11887     11889     11881     11884     11887     11890
     11882     11881     11884     11885     11882     11881     11884     11886
     11882     11881     11884     11887     11883     11881     11884     11885
     11883     11881     11884     11886     11883     11881     11884     11887
     11884     11887     11890     11891     11884     11887     11890     11892
     11884     11887     11890     11893     11885     11884     11887     11888
     11885     11884     11887     11889     11885     11884     11887     11890
     11886     11884     11887     11888     11886     11884     11887     11889
     11886     11884     11887     11890     11887     11890     11893     11894
     11887     11890     11893     11895     11887     11890     11893     11896
     11888     11887     11890     11891     11888     11887     11890     11892
     11888     11887     11890     11893     11889     11887     11890     11891
     11889     11887     11890     11892     11889     11887     11890     11893
     11890     11893     11896     11897     11890     11893     11896     11898
     11890     11893     11896     11899     11891     11890     11893     11894
     11891     11890     11893     11895     11891     11890     11893     11896
     11892     11890     11893     11894     11892     11890     11893     11895
     11892     11890     11893     11896     11894     11893     11896     11897
     11894     11893     11896     11898     11894     11893     11896     11899
     11895     11893     11896     11897     11895     11893     11896     11898
     11895     11893     11896     11899     19179     19180     19195     19196
     19179     19180     19195     19197     19179     19180     19195     19201
     19180     19179     19183     19184     19180     19179     19183     19185
     19180     19179     19183     19186     19180     19179     19187     19188
     19180     19179     19187     19189     19180     19179     19187     19190
     19180     19179     19191     19192     19180     19179     19191     19193
     19180     19179     19191     19194     19180     19195     19201     19198
     19181     19180     19179     19183     19181     19180     19179     19187
     19181     19180     19179     19191     19181     19180     19195     19196
     19181     19180     19195     19197     19181     19180     19195     19201
     19182     19180     19179     19183     19182     19180     19179     19187
     19182     19180     19179     19191     19182     19180     19195     19196
     19182     19180     19195     19197     19182     19180     19195     19201
     19183     19179     19180     19195     19183     19179     19187     19188
     19183     19179     19187     19189     19183     19179     19187     19190
     19183     19179     19191     19192     19183     19179     19191     19193
     19183     19179     19191     19194     19184     19183     19179     19187
     19184     19183     19179     19191     19185     19183     19179     19187
     19185     19183     19179     19191     19186     19183     19179     19187
     19186     19183     19179     19191     19187     19179     19180     19195
     19187     19179     19191     19192     19187     19179     19191     19193
     19187     19179     19191     19194     19188     19187     19179     19191
     19189     19187     19179     19191     19190     19187     19179     19191
     19191     19179     19180     19195     19195     19201     19198     19199
     19195     19201     19198     19200     19195     19201     19198     19202
     19196     19195     19201     19198     19197     19195     19201     19198
     19198     19202     19203     19204     19198     19202     19203     19205
     19198     19202     19203     19206     19199     19198     19202     19203
     19200     19198     19202     19203     19201     19198     19202     19203
     19202     19203     19206     19207     19202     19203     19206     19208
     19202     19203     19206     19214     19203     19206     19208     19209
     19203     19206     19214     19215     19203     19206     19214     19216
     19203     19206     19214     19217     19204     19203     19206     19207
     19204     19203     19206     19208     19204     19203     19206     19214
     19205     19203     19206     19207     19205     19203     19206     19208
     19205     19203     19206     19214     19206     19208     19209     19210
     19206     19208     19209     19211     19206     19214     19217     19218
     19207     19206     19208     19209     19207     19206     19214     19215
     19207     19206     19214     19216     19207     19206     19214     19217
     19208     19206     19214     19215     19208     19206     19214     19216
     19208     19206     19214     19217     19208     19209     19211     19212
     19208     19209     19211     19213     19208     19209     19211     19223
     19209     19208     19206     19214     19209     19211     19223     19224
     19209     19211     19223     19225     19209     19211     19223     19226
     19210     19209     19211     19212     19210     19209     19211     19213
     19210     19209     19211     19223     19211     19223     19226     19227
     19211     19223     19226     19228     19211     19223     19226     19229
     19212     19211     19223     19224     19212     19211     19223     19225
     19212     19211     19223     19226     19213     19211     19223     19224
     19213     19211     19223     19225     19213     19211     19223     19226
     19214     19217     19218     19219     19214     19217     19218     19220
     19215     19214     19217     19218     19216     19214     19217     19218
     19217     19218     19220     19221     19217     19218     19220     19222
     19217     19218     19220     19270     19218     19220     19270     19271
     19218     19220     19270     19272     19218     19220     19270     19273
     19219     19218     19220     19221     19219     19218     19220     19222
     19219     19218     19220     19270     19220     19270     19273     19274
     19220     19270     19273     19275     19220     19270     19273     19276
     19221     19220     19270     19271     19221     19220     19270     19272
     19221     19220     19270     19273     19222     19220     19270     19271
     19222     19220     19270     19272     19222     19220     19270     19273
     19223     19226     19229     19230     19223     19226     19229     19231
     19223     19226     19229     19232     19224     19223     19226     19227
     19224     19223     19226     19228     19224     19223     19226     19229
     19225     19223     19226     19227     19225     19223     19226     19228
     19225     19223     19226     19229     19226     19229     19232     19233
     19226     19229     19232     19234     19226     19229     19232     19235
     19227     19226     19229     19230     19227     19226     19229     19231
     19227     19226     19229     19232     19228     19226     19229     19230
     19228     19226     19229     19231     19228     19226     19229     19232
     19229     19232     19235     19236     19229     19232     19235     19237
     19229     19232     19235     19238     19230     19229     19232     19233
     19230     19229     19232     19234     19230     19229     19232     19235
     19231     19229     19232     19233     19231     19229     19232     19234
     19231     19229     19232     19235     19232     19235     19238     19239
     19232     19235     19238     19240     19232     19235     19238     19241
     19233     19232     19235     19236     19233     19232     19235     19237
     19233     19232     19235     19238     19234     19232     19235     19236
     19234     19232     19235     19237     19234     19232     19235     19238
     19235     19238     19241     19242     19235     19238     19241     19243
     19236     19235     19238     19239     19236     19235     19238     19240
     19236     19235     19238     19241     19237     19235     19238     19239
     19237     19235     19238     19240     19237     19235     19238     19241
     19238     19241     19243     19244     19238     19241     19243     19245
     19239     19238     19241     19242     19239     19238     19241     19243
     19240     19238     19241     19242     19240     19238     19241     19243
     19241     19243     19245     19246     19241     19243     19245     19247
     19241     19243     19245     19248     19242     19241     19243     19244
     19242     19241     19243     19245     19243     19245     19248     19249
     19243     19245     19248     19250     19243     19245     19248     19251
     19244     19243     19245     19246     19244     19243     19245     19247
     19244     19243     19245     19248     19245     19248     19251     19252
     19245     19248     19251     19253     19245     19248     19251     19254
     19246     19245     19248     19249     19246     19245     19248     19250
     19246     19245     19248     19251     19247     19245     19248     19249
     19247     19245     19248     19250     19247     19245     19248     19251
     19248     19251     19254     19255     19248     19251     19254     19256
     19248     19251     19254     19257     19249     19248     19251     19252
     19249     19248     19251     19253     19249     19248     19251     19254
     19250     19248     19251     19252     19250     19248     19251     19253
     19250     19248     19251     19254     19251     19254     19257     19258
     19251     19254     19257     19259     19251     19254     19257     19260
     19252     19251     19254     19255     19252     19251     19254     19256
     19252     19251     19254     19257     19253     19251     19254     19255
     19253     19251     19254     19256     19253     19251     19254     19257
     19254     19257     19260     19261     19254     19257     19260     19262
     19254     19257     19260     19263     19255     19254     19257     19258
     19255     19254     19257     19259     19255     19254     19257     19260
     19256     19254     19257     19258     19256     19254     19257     19259
     19256     19254     19257     19260     19257     19260     19263     19264
     19257     19260     19263     19265     19257     19260     19263     19266
     19258     19257     19260     19261     19258     19257     19260     19262
     19258     19257     19260     19263     19259     19257     19260     19261
     19259     19257     19260     19262     19259     19257     19260     19263
     19260     19263     19266     19267     19260     19263     19266     19268
     19260     19263     19266     19269     19261     19260     19263     19264
     19261     19260     19263     19265     19261     19260     19263     19266
     19262     19260     19263     19264     19262     19260     19263     19265
     19262     19260     19263     19266     19264     19263     19266     19267
     19264     19263     19266     19268     19264     19263     19266     19269
     19265     19263     19266     19267     19265     19263     19266     19268
     19265     19263     19266     19269     19270     19273     19276     19277
     19270     19273     19276     19278     19270     19273     19276     19279
     19271     19270     19273     19274     19271     19270     19273     19275
     19271     19270     19273     19276     19272     19270     19273     19274
     19272     19270     19273     19275     19272     19270     19273     19276
     19273     19276     19279     19280     19273     19276     19279     19281
     19273     19276     19279     19282     19274     19273     19276     19277
     19274     19273     19276     19278     19274     19273     19276     19279
     19275     19273     19276     19277     19275     19273     19276     19278
     19275     19273     19276     19279     19276     19279     19282     19283
     19276     19279     19282     19284     19276     19279     19282     19285
     19277     19276     19279     19280     19277     19276     19279     19281
     19277     19276     19279     19282     19278     19276     19279     19280
     19278     19276     19279     19281     19278     19276     19279     19282
     19279     19282     19285     19286     19279     19282     19285     19287
     19279     19282     19285     19288     19280     19279     19282     19283
     19280     19279     19282     19284     19280     19279     19282     19285
     19281     19279     19282     19283     19281     19279     19282     19284
     19281     19279     19282     19285     19282     19285     19288     19289
     19282     19285     19288     19290     19282     19285     19288     19291
     19283     19282     19285     19286     19283     19282     19285     19287
     19283     19282     19285     19288     19284     19282     19285     19286
     19284     19282     19285     19287     19284     19282     19285     19288
     19285     19288     19291     19292     19285     19288     19291     19293
     19285     19288     19291     19294     19286     19285     19288     19289
     19286     19285     19288     19290     19286     19285     19288     19291
     19287     19285     19288     19289     19287     19285     19288     19290
     19287     19285     19288     19291     19288     19291     19294     19295
     19288     19291     19294     19296     19288     19291     19294     19297
     19289     19288     19291     19292     19289     19288     19291     19293
     19289     19288     19291     19294     19290     19288     19291     19292
     19290     19288     19291     19293     19290     19288     19291     19294
     19291     19294     19297     19298     19291     19294     19297     19299
     19291     19294     19297     19300     19292     19291     19294     19295
     19292     19291     19294     19296     19292     19291     19294     19297
     19293     19291     19294     19295     19293     19291     19294     19296
     19293     19291     19294     19297     19294     19297     19300     19301
     19294     19297     19300     19302     19294     19297     19300     19303
     19295     19294     19297     19298     19295     19294     19297     19299
     19295     19294     19297     19300     19296     19294     19297     19298
     19296     19294     19297     19299     19296     19294     19297     19300
     19297     19300     19303     19304     19297     19300     19303     19305
     19297     19300     19303     19306     19298     19297     19300     19301
     19298     19297     19300     19302     19298     19297     19300     19303
     19299     19297     19300     19301     19299     19297     19300     19302
     19299     19297     19300     19303     19300     19303     19306     19307
     19300     19303     19306     19308     19300     19303     19306     19309
     19301     19300     19303     19304     19301     19300     19303     19305
     19301     19300     19303     19306     19302     19300     19303     19304
     19302     19300     19303     19305     19302     19300     19303     19306
     19303     19306     19309     19310     19303     19306     19309     19311
     19303     19306     19309     19312     19304     19303     19306     19307
     19304     19303     19306     19308     19304     19303     19306     19309
     19305     19303     19306     19307     19305     19303     19306     19308
     19305     19303     19306     19309     19307     19306     19309     19310
     19307     19306     19309     19311     19307     19306     19309     19312
     19308     19306     19309     19310     19308     19306     19309     19311
     19308     19306     19309     19312     11900     11904     11906     11907
     11900     11904     11906     11908     11900     11904     11909     11910
     11900     11904     11909     11911     11900     11904     11909     11915
     11901     11900     11904     11905     11901     11900     11904     11906
     11901     11900     11904     11909     11902     11900     11904     11905
     11902     11900     11904     11906     11902     11900     11904     11909
     11903     11900     11904     11905     11903     11900     11904     11906
     11903     11900     11904     11909     11904     11909     11915     11912
     11905     11904     11906     11907     11905     11904     11906     11908
     11905     11904     11909     11910     11905     11904     11909     11911
     11905     11904     11909     11915     11906     11904     11909     11910
     11906     11904     11909     11911     11906     11904     11909     11915
     11907     11906     11904     11909     11908     11906     11904     11909
     11909     11915     11912     11913     11909     11915     11912     11914
     11909     11915     11912     11916     11910     11909     11915     11912
     11911     11909     11915     11912     11912     11916     11917     11918
     11912     11916     11917     11919     11912     11916     11917     11920
     11913     11912     11916     11917     11914     11912     11916     11917
     11915     11912     11916     11917     11916     11917     11920     11921
     11916     11917     11920     11922     11916     11917     11920     11928
     11917     11920     11922     11923     11917     11920     11928     11929
     11917     11920     11928     11930     11917     11920     11928     11931
     11918     11917     11920     11921     11918     11917     11920     11922
     11918     11917     11920     11928     11919     11917     11920     11921
     11919     11917     11920     11922     11919     11917     11920     11928
     11920     11922     11923     11924     11920     11922     11923     11925
     11920     11928     11931     11932     11921     11920     11922     11923
     11921     11920     11928     11929     11921     11920     11928     11930
     11921     11920     11928     11931     11922     11920     11928     11929
     11922     11920     11928     11930     11922     11920     11928     11931
     11922     11923     11925     11926     11922     11923     11925     11927
     11922     11923     11925     11937     11923     11922     11920     11928
     11923     11925     11937     11938     11923     11925     11937     11939
     11923     11925     11937     11940     11924     11923     11925     11926
     11924     11923     11925     11927     11924     11923     11925     11937
     11925     11937     11940     11941     11925     11937     11940     11942
     11925     11937     11940     11943     11926     11925     11937     11938
     11926     11925     11937     11939     11926     11925     11937     11940
     11927     11925     11937     11938     11927     11925     11937     11939
     11927     11925     11937     11940     11928     11931     11932     11933
     11928     11931     11932     11934     11929     11928     11931     11932
     11930     11928     11931     11932     11931     11932     11934     11935
     11931     11932     11934     11936     11931     11932     11934     11984
     11932     11934     11984     11985     11932     11934     11984     11986
     11932     11934     11984     11987     11933     11932     11934     11935
     11933     11932     11934     11936     11933     11932     11934     11984
     11934     11984     11987     11988     11934     11984     11987     11989
     11934     11984     11987     11990     11935     11934     11984     11985
     11935     11934     11984     11986     11935     11934     11984     11987
     11936     11934     11984     11985     11936     11934     11984     11986
     11936     11934     11984     11987     11937     11940     11943     11944
     11937     11940     11943     11945     11937     11940     11943     11946
     11938     11937     11940     11941     11938     11937     11940     11942
     11938     11937     11940     11943     11939     11937     11940     11941
     11939     11937     11940     11942     11939     11937     11940     11943
     11940     11943     11946     11947     11940     11943     11946     11948
     11940     11943     11946     11949     11941     11940     11943     11944
     11941     11940     11943     11945     11941     11940     11943     11946
     11942     11940     11943     11944     11942     11940     11943     11945
     11942     11940     11943     11946     11943     11946     11949     11950
     11943     11946     11949     11951     11943     11946     11949     11952
     11944     11943     11946     11947     11944     11943     11946     11948
     11944     11943     11946     11949     11945     11943     11946     11947
     11945     11943     11946     11948     11945     11943     11946     11949
     11946     11949     11952     11953     11946     11949     11952     11954
     11946     11949     11952     11955     11947     11946     11949     11950
     11947     11946     11949     11951     11947     11946     11949     11952
     11948     11946     11949     11950     11948     11946     11949     11951
     11948     11946     11949     11952     11949     11952     11955     11956
     11949     11952     11955     11957     11950     11949     11952     11953
     11950     11949     11952     11954     11950     11949     11952     11955
     11951     11949     11952     11953     11951     11949     11952     11954
     11951     11949     11952     11955     11952     11955     11957     11958
     11952     11955     11957     11959     11953     11952     11955     11956
     11953     11952     11955     11957     11954     11952     11955     11956
     11954     11952     11955     11957     11955     11957     11959     11960
     11955     11957     11959     11961     11955     11957     11959     11962
     11956     11955     11957     11958     11956     11955     11957     11959
     11957     11959     11962     11963     11957     11959     11962     11964
     11957     11959     11962     11965     11958     11957     11959     11960
     11958     11957     11959     11961     11958     11957     11959     11962
     11959     11962     11965     11966     11959     11962     11965     11967
     11959     11962     11965     11968     11960     11959     11962     11963
     11960     11959     11962     11964     11960     11959     11962     11965
     11961     11959     11962     11963     11961     11959     11962     11964
     11961     11959     11962     11965     11962     11965     11968     11969
     11962     11965     11968     11970     11962     11965     11968     11971
     11963     11962     11965     11966     11963     11962     11965     11967
     11963     11962     11965     11968     11964     11962     11965     11966
     11964     11962     11965     11967     11964     11962     11965     11968
     11965     11968     11971     11972     11965     11968     11971     11973
     11965     11968     11971     11974     11966     11965     11968     11969
     11966     11965     11968     11970     11966     11965     11968     11971
     11967     11965     11968     11969     11967     11965     11968     11970
     11967     11965     11968     11971     11968     11971     11974     11975
     11968     11971     11974     11976     11968     11971     11974     11977
     11969     11968     11971     11972     11969     11968     11971     11973
     11969     11968     11971     11974     11970     11968     11971     11972
     11970     11968     11971     11973     11970     11968     11971     11974
     11971     11974     11977     11978     11971     11974     11977     11979
     11971     11974     11977     11980     11972     11971     11974     11975
     11972     11971     11974     11976     11972     11971     11974     11977
     11973     11971     11974     11975     11973     11971     11974     11976
     11973     11971     11974     11977     11974     11977     11980     11981
     11974     11977     11980     11982     11974     11977     11980     11983
     11975     11974     11977     11978     11975     11974     11977     11979
     11975     11974     11977     11980     11976     11974     11977     11978
     11976     11974     11977     11979     11976     11974     11977     11980
     11978     11977     11980     11981     11978     11977     11980     11982
     11978     11977     11980     11983     11979     11977     11980     11981
     11979     11977     11980     11982     11979     11977     11980     11983
     11984     11987     11990     11991     11984     11987     11990     11992
     11984     11987     11990     11993     11985     11984     11987     11988
     11985     11984     11987     11989     11985     11984     11987     11990
     11986     11984     11987     11988     11986     11984     11987     11989
     11986     11984     11987     11990     11987     11990     11993     11994
     11987     11990     11993     11995     11987     11990     11993     11996
     11988     11987     11990     11991     11988     11987     11990     11992
     11988     11987     11990     11993     11989     11987     11990     11991
     11989     11987     11990     11992     11989     11987     11990     11993
     11990     11993     11996     11997     11990     11993     11996     11998
     11990     11993     11996     11999     11991     11990     11993     11994
     11991     11990     11993     11995     11991     11990     11993     11996
     11992     11990     11993     11994     11992     11990     11993     11995
     11992     11990     11993     11996     11993     11996     11999     12000
     11993     11996     11999     12001     11993     11996     11999     12002
     11994     11993     11996     11997     11994     11993     11996     11998
     11994     11993     11996     11999     11995     11993     11996     11997
     11995     11993     11996     11998     11995     11993     11996     11999
     11996     11999     12002     12003     11996     11999     12002     12004
     11996     11999     12002     12005     11997     11996     11999     12000
     11997     11996     11999     12001     11997     11996     11999     12002
     11998     11996     11999     12000     11998     11996     11999     12001
     11998     11996     11999     12002     11999     12002     12005     12006
     11999     12002     12005     12007     11999     12002     12005     12008
     12000     11999     12002     12003     12000     11999     12002     12004
     12000     11999     12002     12005     12001     11999     12002     12003
     12001     11999     12002     12004     12001     11999     12002     12005
     12002     12005     12008     12009     12002     12005     12008     12010
     12002     12005     12008     12011     12003     12002     12005     12006
     12003     12002     12005     12007     12003     12002     12005     12008
     12004     12002     12005     12006     12004     12002     12005     12007
     12004     12002     12005     12008     12005     12008     12011     12012
     12005     12008     12011     12013     12005     12008     12011     12014
     12006     12005     12008     12009     12006     12005     12008     12010
     12006     12005     12008     12011     12007     12005     12008     12009
     12007     12005     12008     12010     12007     12005     12008     12011
     12008     12011     12014     12015     12008     12011     12014     12016
     12008     12011     12014     12017     12009     12008     12011     12012
     12009     12008     12011     12013     12009     12008     12011     12014
     12010     12008     12011     12012     12010     12008     12011     12013
     12010     12008     12011     12014     12011     12014     12017     12018
     12011     12014     12017     12019     12011     12014     12017     12020
     12012     12011     12014     12015     12012     12011     12014     12016
     12012     12011     12014     12017     12013     12011     12014     12015
     12013     12011     12014     12016     12013     12011     12014     12017
     12014     12017     12020     12021     12014     12017     12020     12022
     12014     12017     12020     12023     12015     12014     12017     12018
     12015     12014     12017     12019     12015     12014     12017     12020
     12016     12014     12017     12018     12016     12014     12017     12019
     12016     12014     12017     12020     12017     12020     12023     12024
     12017     12020     12023     12025     12017     12020     12023     12026
     12018     12017     12020     12021     12018     12017     12020     12022
     12018     12017     12020     12023     12019     12017     12020     12021
     12019     12017     12020     12022     12019     12017     12020     12023
     12021     12020     12023     12024     12021     12020     12023     12025
     12021     12020     12023     12026     12022     12020     12023     12024
     12022     12020     12023     12025     12022     12020     12023     12026
      1703      1707      1710      1711      1703      1707      1710      1741
      1703      1749      1746      1741      1703      1749      1746      1747
      1703      1749      1746      1748      1704      1703      1705      1706
      1704      1703      1707      1708      1704      1703      1707      1709
      1704      1703      1707      1710      1704      1703      1749      1746
      1704      1703      1749      1750      1704      1703      1749      1751
      1705      1703      1707      1708      1705      1703      1707      1709
      1705      1703      1707      1710      1705      1703      1749      1746
      1705      1703      1749      1750      1705      1703      1749      1751
      1706      1705      1703      1707      1706      1705      1703      1749
      1707      1703      1749      1746      1707      1703      1749      1750
      1707      1703      1749      1751      1707      1710      1711      1712
      1707      1710      1711      1713      1707      1710      1741      1739
      1707      1710      1741      1742      1707      1710      1741      1746
      1708      1707      1703      1749      1708      1707      1710      1711
      1708      1707      1710      1741      1709      1707      1703      1749
      1709      1707      1710      1711      1709      1707      1710      1741
      1710      1707      1703      1749      1710      1711      1713      1714
      1710      1711      1713      1715      1710      1711      1713      1716
      1710      1741      1739      1716      1710      1741      1739      1736
      1710      1741      1739      1740      1710      1741      1742      1743
      1710      1741      1742      1744      1710      1741      1742      1745
      1710      1741      1746      1747      1710      1741      1746      1748
      1710      1741      1746      1749      1711      1710      1741      1739
      1711      1710      1741      1742      1711      1710      1741      1746
      1711      1713      1716      1717      1711      1713      1716      1718
      1711      1713      1716      1739      1712      1711      1710      1741
      1712      1711      1713      1714      1712      1711      1713      1715
      1712      1711      1713      1716      1713      1711      1710      1741
      1713      1716      1718      1719      1713      1716      1718      1720
      1713      1716      1718      1728      1713      1716      1739      1736
      1713      1716      1739      1740      1713      1716      1739      1741
      1714      1713      1716      1717      1714      1713      1716      1718
      1714      1713      1716      1739      1715      1713      1716      1717
      1715      1713      1716      1718      1715      1713      1716      1739
      1716      1718      1720      1721      1716      1718      1720      1722
      1716      1718      1720      1723      1716      1718      1728      1726
      1716      1718      1728      1729      1716      1718      1728      1733
      1716      1739      1736      1733      1716      1739      1736      1737
      1716      1739      1736      1738      1716      1739      1741      1742
      1716      1739      1741      1746      1717      1716      1718      1719
      1717      1716      1718      1720      1717      1716      1718      1728
      1717      1716      1739      1736      1717      1716      1739      1740
      1717      1716      1739      1741      1718      1716      1739      1736
      1718      1716      1739      1740      1718      1716      1739      1741
      1718      1720      1723      1724      1718      1720      1723      1725
      1718      1720      1723      1726      1718      1728      1726      1723
      1718      1728      1726      1727      1718      1728      1726      1752
      1718      1728      1729      1730      1718      1728      1729      1731
      1718      1728      1729      1732      1718      1728      1733      1734
      1718      1728      1733      1735      1718      1728      1733      1736
      1719      1718      1716      1739      1719      1718      1720      1721
      1719      1718      1720      1722      1719      1718      1720      1723
      1719      1718      1728      1726      1719      1718      1728      1729
      1719      1718      1728      1733      1720      1718      1716      1739
      1720      1718      1728      1726      1720      1718      1728      1729
      1720      1718      1728      1733      1720      1723      1726      1727
      1720      1723      1726      1728      1720      1723      1726      1752
      1721      1720      1718      1728      1721      1720      1723      1724
      1721      1720      1723      1725      1721      1720      1723      1726
      1722      1720      1718      1728      1722      1720      1723      1724
      1722      1720      1723      1725      1722      1720      1723      1726
      1723      1720      1718      1728      1723      1726      1728      1729
      1723      1726      1728      1733      1723      1726      1752      1753
      1723      1726      1752      1754      1723      1726      1752      1758
      1724      1723      1726      1727      1724      1723      1726      1728
      1724      1723      1726      1752      1725      1723      1726      1727
      1725      1723      1726      1728      1725      1723      1726      1752
      1726      1728      1729      1730      1726      1728      1729      1731
      1726      1728      1729      1732      1726      1728      1733      1734
      1726      1728      1733      1735      1726      1728      1733      1736
      1726      1752      1754      1755      1726      1752      1754      1756
      1726      1752      1754      1757      1726      1752      1758      1759
      1726      1752      1758      1760      1726      1752      1758      1761
      1727      1726      1728      1729      1727      1726      1728      1733
      1727      1726      1752      1753      1727      1726      1752      1754
      1727      1726      1752      1758      1728      1718      1716      1739
      1728      1726      1752      1753      1728      1726      1752      1754
      1728      1726      1752      1758      1728      1733      1736      1737
      1728      1733      1736      1738      1728      1733      1736      1739
      1729      1728      1726      1752      1729      1728      1733      1734
      1729      1728      1733      1735      1729      1728      1733      1736
      1730      1729      1728      1733      1731      1729      1728      1733
      1732      1729      1728      1733      1733      1728      1726      1752
      1733      1736      1739      1740      1733      1736      1739      1741
      1734      1733      1736      1737      1734      1733      1736      1738
      1734      1733      1736      1739      1735      1733      1736      1737
      1735      1733      1736      1738      1735      1733      1736      1739
      1736      1739      1741      1742      1736      1739      1741      1746
      1737      1736      1739      1740      1737      1736      1739      1741
      1738      1736      1739      1740      1738      1736      1739      1741
      1739      1741      1742      1743      1739      1741      1742      1744
      1739      1741      1742      1745      1739      1741      1746      1747
      1739      1741      1746      1748      1739      1741      1746      1749
      1740      1739      1741      1742      1740      1739      1741      1746
      1741      1746      1749      1750      1741      1746      1749      1751
      1742      1741      1746      1747      1742      1741      1746      1748
      1742      1741      1746      1749      1743      1742      1741      1746
      1744      1742      1741      1746      1745      1742      1741      1746
      1747      1746      1749      1750      1747      1746      1749      1751
      1748      1746      1749      1750      1748      1746      1749      1751
      1752      1758      1761      1762      1752      1758      1761      1763
      1752      1758      1761      1764      1753      1752      1754      1755
      1753      1752      1754      1756      1753      1752      1754      1757
      1753      1752      1758      1759      1753      1752      1758      1760
      1753      1752      1758      1761      1754      1752      1758      1759
      1754      1752      1758      1760      1754      1752      1758      1761
      1755      1754      1752      1758      1756      1754      1752      1758
      1757      1754      1752      1758      1758      1761      1764      1765
      1758      1761      1764      1766      1758      1761      1764      1767
      1759      1758      1761      1762      1759      1758      1761      1763
      1759      1758      1761      1764      1760      1758      1761      1762
      1760      1758      1761      1763      1760      1758      1761      1764
      1761      1764      1767      1768      1761      1764      1767      1769
      1761      1764      1767      1773      1762      1761      1764      1765
      1762      1761      1764      1766      1762      1761      1764      1767
      1763      1761      1764      1765      1763      1761      1764      1766
      1763      1761      1764      1767      1764      1767      1769      1770
      1764      1767      1769      1771      1764      1767      1769      1772
      1764      1767      1773      1774      1764      1767      1773      1775
      1764      1767      1773      1776      1765      1764      1767      1768
      1765      1764      1767      1769      1765      1764      1767      1773
      1766      1764      1767      1768      1766      1764      1767      1769
      1766      1764      1767      1773      1768      1767      1769      1770
      1768      1767      1769      1771      1768      1767      1769      1772
      1768      1767      1773      1774      1768      1767      1773      1775
      1768      1767      1773      1776      1769      1767      1773      1774
      1769      1767      1773      1775      1769      1767      1773      1776
      1770      1769      1767      1773      1771      1769      1767      1773
      1772      1769      1767      1773      6596      6600      6603      6604
      6596      6600      6603      6605      6596      6600      6603      6610
      6597      6596      6600      6601      6597      6596      6600      6602
      6597      6596      6600      6603      6598      6596      6600      6601
      6598      6596      6600      6602      6598      6596      6600      6603
      6599      6596      6600      6601      6599      6596      6600      6602
      6599      6596      6600      6603      6600      6603      6610      6606
      6601      6600      6603      6604      6601      6600      6603      6605
      6601      6600      6603      6610      6602      6600      6603      6604
      6602      6600      6603      6605      6602      6600      6603      6610
      6603      6610      6606      6607      6603      6610      6606      6608
      6603      6610      6606      6609      6604      6603      6610      6606
      6605      6603      6610      6606      6606      6609      6611      6612
      6606      6609      6611      6613      6606      6609      6611      6614
      6607      6606      6609      6611      6608      6606      6609      6611
      6609      6611      6614      6615      6609      6611      6614      6616
      6609      6611      6614      6622      6610      6606      6609      6611
      6611      6614      6616      6617      6611      6614      6622      6623
      6611      6614      6622      6624      6611      6614      6622      6625
      6612      6611      6614      6615      6612      6611      6614      6616
      6612      6611      6614      6622      6613      6611      6614      6615
      6613      6611      6614      6616      6613      6611      6614      6622
      6614      6616      6617      6618      6614      6616      6617      6619
      6614      6622      6625      6626      6615      6614      6616      6617
      6615      6614      6622      6623      6615      6614      6622      6624
      6615      6614      6622      6625      6616      6614      6622      6623
      6616      6614      6622      6624      6616      6614      6622      6625
      6616      6617      6619      6620      6616      6617      6619      6621
      6616      6617      6619      6631      6617      6616      6614      6622
      6617      6619      6631      6632      6617      6619      6631      6633
      6617      6619      6631      6634      6618      6617      6619      6620
      6618      6617      6619      6621      6618      6617      6619      6631
      6619      6631      6634      6635      6619      6631      6634      6636
      6619      6631      6634      6637      6620      6619      6631      6632
      6620      6619      6631      6633      6620      6619      6631      6634
      6621      6619      6631      6632      6621      6619      6631      6633
      6621      6619      6631      6634      6622      6625      6626      6627
      6622      6625      6626      6628      6623      6622      6625      6626
      6624      6622      6625      6626      6625      6626      6628      6629
      6625      6626      6628      6630      6625      6626      6628      6678
      6626      6628      6678      6679      6626      6628      6678      6680
      6626      6628      6678      6681      6627      6626      6628      6629
      6627      6626      6628      6630      6627      6626      6628      6678
      6628      6678      6681      6682      6628      6678      6681      6683
      6628      6678      6681      6684      6629      6628      6678      6679
      6629      6628      6678      6680      6629      6628      6678      6681
      6630      6628      6678      6679      6630      6628      6678      6680
      6630      6628      6678      6681      6631      6634      6637      6638
      6631      6634      6637      6639      6631      6634      6637      6640
      6632      6631      6634      6635      6632      6631      6634      6636
      6632      6631      6634      6637      6633      6631      6634      6635
      6633      6631      6634      6636      6633      6631      6634      6637
      6634      6637      6640      6641      6634      6637      6640      6642
      6634      6637      6640      6643      6635      6634      6637      6638
      6635      6634      6637      6639      6635      6634      6637      6640
      6636      6634      6637      6638      6636      6634      6637      6639
      6636      6634      6637      6640      6637      6640      6643      6644
      6637      6640      6643      6645      6637      6640      6643      6646
      6638      6637      6640      6641      6638      6637      6640      6642
      6638      6637      6640      6643      6639      6637      6640      6641
      6639      6637      6640      6642      6639      6637      6640      6643
      6640      6643      6646      6647      6640      6643      6646      6648
      6640      6643      6646      6649      6641      6640      6643      6644
      6641      6640      6643      6645      6641      6640      6643      6646
      6642      6640      6643      6644      6642      6640      6643      6645
      6642      6640      6643      6646      6643      6646      6649      6650
      6643      6646      6649      6651      6644      6643      6646      6647
      6644      6643      6646      6648      6644      6643      6646      6649
      6645      6643      6646      6647      6645      6643      6646      6648
      6645      6643      6646      6649      6646      6649      6651      6652
      6646      6649      6651      6653      6647      6646      6649      6650
      6647      6646      6649      6651      6648      6646      6649      6650
      6648      6646      6649      6651      6649      6651      6653      6654
      6649      6651      6653      6655      6649      6651      6653      6656
      6650      6649      6651      6652      6650      6649      6651      6653
      6651      6653      6656      6657      6651      6653      6656      6658
      6651      6653      6656      6659      6652      6651      6653      6654
      6652      6651      6653      6655      6652      6651      6653      6656
      6653      6656      6659      6660      6653      6656      6659      6661
      6653      6656      6659      6662      6654      6653      6656      6657
      6654      6653      6656      6658      6654      6653      6656      6659
      6655      6653      6656      6657      6655      6653      6656      6658
      6655      6653      6656      6659      6656      6659      6662      6663
      6656      6659      6662      6664      6656      6659      6662      6665
      6657      6656      6659      6660      6657      6656      6659      6661
      6657      6656      6659      6662      6658      6656      6659      6660
      6658      6656      6659      6661      6658      6656      6659      6662
      6659      6662      6665      6666      6659      6662      6665      6667
      6659      6662      6665      6668      6660      6659      6662      6663
      6660      6659      6662      6664      6660      6659      6662      6665
      6661      6659      6662      6663      6661      6659      6662      6664
      6661      6659      6662      6665      6662      6665      6668      6669
      6662      6665      6668      6670      6662      6665      6668      6671
      6663      6662      6665      6666      6663      6662      6665      6667
      6663      6662      6665      6668      6664      6662      6665      6666
      6664      6662      6665      6667      6664      6662      6665      6668
      6665      6668      6671      6672      6665      6668      6671      6673
      6665      6668      6671      6674      6666      6665      6668      6669
      6666      6665      6668      6670      6666      6665      6668      6671
      6667      6665      6668      6669      6667      6665      6668      6670
      6667      6665      6668      6671      6668      6671      6674      6675
      6668      6671      6674      6676      6668      6671      6674      6677
      6669      6668      6671      6672      6669      6668      6671      6673
      6669      6668      6671      6674      6670      6668      6671      6672
      6670      6668      6671      6673      6670      6668      6671      6674
      6672      6671      6674      6675      6672      6671      6674      6676
      6672      6671      6674      6677      6673      6671      6674      6675
      6673      6671      6674      6676      6673      6671      6674      6677
      6678      6681      6684      6685      6678      6681      6684      6686
      6678      6681      6684      6687      6679      6678      6681      6682
      6679      6678      6681      6683      6679      6678      6681      6684
      6680      6678      6681      6682      6680      6678      6681      6683
      6680      6678      6681      6684      6681      6684      6687      6688
      6681      6684      6687      6689      6681      6684      6687      6690
      6682      6681      6684      6685      6682      6681      6684      6686
      6682      6681      6684      6687      6683      6681      6684      6685
      6683      6681      6684      6686      6683      6681      6684      6687
      6684      6687      6690      6691      6684      6687      6690      6692
      6684      6687      6690      6693      6685      6684      6687      6688
      6685      6684      6687      6689      6685      6684      6687      6690
      6686      6684      6687      6688      6686      6684      6687      6689
      6686      6684      6687      6690      6687      6690      6693      6694
      6687      6690      6693      6695      6687      6690      6693      6696
      6688      6687      6690      6691      6688      6687      6690      6692
      6688      6687      6690      6693      6689      6687      6690      6691
      6689      6687      6690      6692      6689      6687      6690      6693
      6690      6693      6696      6697      6690      6693      6696      6698
      6690      6693      6696      6699      6691      6690      6693      6694
      6691      6690      6693      6695      6691      6690      6693      6696
      6692      6690      6693      6694      6692      6690      6693      6695
      6692      6690      6693      6696      6693      6696      6699      6700
      6693      6696      6699      6701      6693      6696      6699      6702
      6694      6693      6696      6697      6694      6693      6696      6698
      6694      6693      6696      6699      6695      6693      6696      6697
      6695      6693      6696      6698      6695      6693      6696      6699
      6696      6699      6702      6703      6696      6699      6702      6704
      6696      6699      6702      6705      6697      6696      6699      6700
      6697      6696      6699      6701      6697      6696      6699      6702
      6698      6696      6699      6700      6698      6696      6699      6701
      6698      6696      6699      6702      6699      6702      6705      6706
      6699      6702      6705      6707      6699      6702      6705      6708
      6700      6699      6702      6703      6700      6699      6702      6704
      6700      6699      6702      6705      6701      6699      6702      6703
      6701      6699      6702      6704      6701      6699      6702      6705
      6702      6705      6708      6709      6702      6705      6708      6710
      6702      6705      6708      6711      6703      6702      6705      6706
      6703      6702      6705      6707      6703      6702      6705      6708
      6704      6702      6705      6706      6704      6702      6705      6707
      6704      6702      6705      6708      6705      6708      6711      6712
      6705      6708      6711      6713      6705      6708      6711      6714
      6706      6705      6708      6709      6706      6705      6708      6710
      6706      6705      6708      6711      6707      6705      6708      6709
      6707      6705      6708      6710      6707      6705      6708      6711
      6708      6711      6714      6715      6708      6711      6714      6716
      6708      6711      6714      6717      6709      6708      6711      6712
      6709      6708      6711      6713      6709      6708      6711      6714
      6710      6708      6711      6712      6710      6708      6711      6713
      6710      6708      6711      6714      6711      6714      6717      6718
      6711      6714      6717      6719      6711      6714      6717      6720
      6712      6711      6714      6715      6712      6711      6714      6716
      6712      6711      6714      6717      6713      6711      6714      6715
      6713      6711      6714      6716      6713      6711      6714      6717
      6715      6714      6717      6718      6715      6714      6717      6719
      6715      6714      6717      6720      6716      6714      6717      6718
      6716      6714      6717      6719      6716      6714      6717      6720
      1777      1781      1784      1785      1777      1781      1784      1815
      1777      1823      1820      1815      1777      1823      1820      1821
      1777      1823      1820      1822      1778      1777      1779      1780
      1778      1777      1781      1782      1778      1777      1781      1783
      1778      1777      1781      1784      1778      1777      1823      1820
      1778      1777      1823      1824      1778      1777      1823      1825
      1779      1777      1781      1782      1779      1777      1781      1783
      1779      1777      1781      1784      1779      1777      1823      1820
      1779      1777      1823      1824      1779      1777      1823      1825
      1780      1779      1777      1781      1780      1779      1777      1823
      1781      1777      1823      1820      1781      1777      1823      1824
      1781      1777      1823      1825      1781      1784      1785      1786
      1781      1784      1785      1787      1781      1784      1815      1813
      1781      1784      1815      1816      1781      1784      1815      1820
      1782      1781      1777      1823      1782      1781      1784      1785
      1782      1781      1784      1815      1783      1781      1777      1823
      1783      1781      1784      1785      1783      1781      1784      1815
      1784      1781      1777      1823      1784      1785      1787      1788
      1784      1785      1787      1789      1784      1785      1787      1790
      1784      1815      1813      1790      1784      1815      1813      1810
      1784      1815      1813      1814      1784      1815      1816      1817
      1784      1815      1816      1818      1784      1815      1816      1819
      1784      1815      1820      1821      1784      1815      1820      1822
      1784      1815      1820      1823      1785      1784      1815      1813
      1785      1784      1815      1816      1785      1784      1815      1820
      1785      1787      1790      1791      1785      1787      1790      1792
      1785      1787      1790      1813      1786      1785      1784      1815
      1786      1785      1787      1788      1786      1785      1787      1789
      1786      1785      1787      1790      1787      1785      1784      1815
      1787      1790      1792      1793      1787      1790      1792      1794
      1787      1790      1792      1802      1787      1790      1813      1810
      1787      1790      1813      1814      1787      1790      1813      1815
      1788      1787      1790      1791      1788      1787      1790      1792
      1788      1787      1790      1813      1789      1787      1790      1791
      1789      1787      1790      1792      1789      1787      1790      1813
      1790      1792      1794      1795      1790      1792      1794      1796
      1790      1792      1794      1797      1790      1792      1802      1800
      1790      1792      1802      1803      1790      1792      1802      1807
      1790      1813      1810      1807      1790      1813      1810      1811
      1790      1813      1810      1812      1790      1813      1815      1816
      1790      1813      1815      1820      1791      1790      1792      1793
      1791      1790      1792      1794      1791      1790      1792      1802
      1791      1790      1813      1810      1791      1790      1813      1814
      1791      1790      1813      1815      1792      1790      1813      1810
      1792      1790      1813      1814      1792      1790      1813      1815
      1792      1794      1797      1798      1792      1794      1797      1799
      1792      1794      1797      1800      1792      1802      1800      1797
      1792      1802      1800      1801      1792      1802      1800      1826
      1792      1802      1803      1804      1792      1802      1803      1805
      1792      1802      1803      1806      1792      1802      1807      1808
      1792      1802      1807      1809      1792      1802      1807      1810
      1793      1792      1790      1813      1793      1792      1794      1795
      1793      1792      1794      1796      1793      1792      1794      1797
      1793      1792      1802      1800      1793      1792      1802      1803
      1793      1792      1802      1807      1794      1792      1790      1813
      1794      1792      1802      1800      1794      1792      1802      1803
      1794      1792      1802      1807      1794      1797      1800      1801
      1794      1797      1800      1802      1794      1797      1800      1826
      1795      1794      1792      1802      1795      1794      1797      1798
      1795      1794      1797      1799      1795      1794      1797      1800
      1796      1794      1792      1802      1796      1794      1797      1798
      1796      1794      1797      1799      1796      1794      1797      1800
      1797      1794      1792      1802      1797      1800      1802      1803
      1797      1800      1802      1807      1797      1800      1826      1827
      1797      1800      1826      1828      1797      1800      1826      1832
      1798      1797      1800      1801      1798      1797      1800      1802
      1798      1797      1800      1826      1799      1797      1800      1801
      1799      1797      1800      1802      1799      1797      1800      1826
      1800      1802      1803      1804      1800      1802      1803      1805
      1800      1802      1803      1806      1800      1802      1807      1808
      1800      1802      1807      1809      1800      1802      1807      1810
      1800      1826      1828      1829      1800      1826      1828      1830
      1800      1826      1828      1831      1800      1826      1832      1833
      1800      1826      1832      1834      1800      1826      1832      1835
      1801      1800      1802      1803      1801      1800      1802      1807
      1801      1800      1826      1827      1801      1800      1826      1828
      1801      1800      1826      1832      1802      1792      1790      1813
      1802      1800      1826      1827      1802      1800      1826      1828
      1802      1800      1826      1832      1802      1807      1810      1811
      1802      1807      1810      1812      1802      1807      1810      1813
      1803      1802      1800      1826      1803      1802      1807      1808
      1803      1802      1807      1809      1803      1802      1807      1810
      1804      1803      1802      1807      1805      1803      1802      1807
      1806      1803      1802      1807      1807      1802      1800      1826
      1807      1810      1813      1814      1807      1810      1813      1815
      1808      1807      1810      1811      1808      1807      1810      1812
      1808      1807      1810      1813      1809      1807      1810      1811
      1809      1807      1810      1812      1809      1807      1810      1813
      1810      1813      1815      1816      1810      1813      1815      1820
      1811      1810      1813      1814      1811      1810      1813      1815
      1812      1810      1813      1814      1812      1810      1813      1815
      1813      1815      1816      1817      1813      1815      1816      1818
      1813      1815      1816      1819      1813      1815      1820      1821
      1813      1815      1820      1822      1813      1815      1820      1823
      1814      1813      1815      1816      1814      1813      1815      1820
      1815      1820      1823      1824      1815      1820      1823      1825
      1816      1815      1820      1821      1816      1815      1820      1822
      1816      1815      1820      1823      1817      1816      1815      1820
      1818      1816      1815      1820      1819      1816      1815      1820
      1821      1820      1823      1824      1821      1820      1823      1825
      1822      1820      1823      1824      1822      1820      1823      1825
      1826      1832      1835      1836      1826      1832      1835      1837
      1826      1832      1835      1838      1827      1826      1828      1829
      1827      1826      1828      1830      1827      1826      1828      1831
      1827      1826      1832      1833      1827      1826      1832      1834
      1827      1826      1832      1835      1828      1826      1832      1833
      1828      1826      1832      1834      1828      1826      1832      1835
      1829      1828      1826      1832      1830      1828      1826      1832
      1831      1828      1826      1832      1832      1835      1838      1839
      1832      1835      1838      1840      1832      1835      1838      1841
      1833      1832      1835      1836      1833      1832      1835      1837
      1833      1832      1835      1838      1834      1832      1835      1836
      1834      1832      1835      1837      1834      1832      1835      1838
      1835      1838      1841      1842      1835      1838      1841      1843
      1835      1838      1841      1847      1836      1835      1838      1839
      1836      1835      1838      1840      1836      1835      1838      1841
      1837      1835      1838      1839      1837      1835      1838      1840
      1837      1835      1838      1841      1838      1841      1843      1844
      1838      1841      1843      1845      1838      1841      1843      1846
      1838      1841      1847      1848      1838      1841      1847      1849
      1838      1841      1847      1850      1839      1838      1841      1842
      1839      1838      1841      1843      1839      1838      1841      1847
      1840      1838      1841      1842      1840      1838      1841      1843
      1840      1838      1841      1847      1842      1841      1843      1844
      1842      1841      1843      1845      1842      1841      1843      1846
      1842      1841      1847      1848      1842      1841      1847      1849
      1842      1841      1847      1850      1843      1841      1847      1848
      1843      1841      1847      1849      1843      1841      1847      1850
      1844      1843      1841      1847      1845      1843      1841      1847
      1846      1843      1841      1847     19313     19314     19329     19330
     19313     19314     19329     19331     19313     19314     19329     19335
     19314     19313     19317     19318     19314     19313     19317     19319
     19314     19313     19317     19320     19314     19313     19321     19322
     19314     19313     19321     19323     19314     19313     19321     19324
     19314     19313     19325     19326     19314     19313     19325     19327
     19314     19313     19325     19328     19314     19329     19335     19332
     19315     19314     19313     19317     19315     19314     19313     19321
     19315     19314     19313     19325     19315     19314     19329     19330
     19315     19314     19329     19331     19315     19314     19329     19335
     19316     19314     19313     19317     19316     19314     19313     19321
     19316     19314     19313     19325     19316     19314     19329     19330
     19316     19314     19329     19331     19316     19314     19329     19335
     19317     19313     19314     19329     19317     19313     19321     19322
     19317     19313     19321     19323     19317     19313     19321     19324
     19317     19313     19325     19326     19317     19313     19325     19327
     19317     19313     19325     19328     19318     19317     19313     19321
     19318     19317     19313     19325     19319     19317     19313     19321
     19319     19317     19313     19325     19320     19317     19313     19321
     19320     19317     19313     19325     19321     19313     19314     19329
     19321     19313     19325     19326     19321     19313     19325     19327
     19321     19313     19325     19328     19322     19321     19313     19325
     19323     19321     19313     19325     19324     19321     19313     19325
     19325     19313     19314     19329     19329     19335     19332     19333
     19329     19335     19332     19334     19329     19335     19332     19336
     19330     19329     19335     19332     19331     19329     19335     19332
     19332     19336     19337     19338     19332     19336     19337     19339
     19332     19336     19337     19340     19333     19332     19336     19337
     19334     19332     19336     19337     19335     19332     19336     19337
     19336     19337     19340     19341     19336     19337     19340     19342
     19336     19337     19340     19348     19337     19340     19342     19343
     19337     19340     19348     19349     19337     19340     19348     19350
     19337     19340     19348     19351     19338     19337     19340     19341
     19338     19337     19340     19342     19338     19337     19340     19348
     19339     19337     19340     19341     19339     19337     19340     19342
     19339     19337     19340     19348     19340     19342     19343     19344
     19340     19342     19343     19345     19340     19348     19351     19352
     19341     19340     19342     19343     19341     19340     19348     19349
     19341     19340     19348     19350     19341     19340     19348     19351
     19342     19340     19348     19349     19342     19340     19348     19350
     19342     19340     19348     19351     19342     19343     19345     19346
     19342     19343     19345     19347     19342     19343     19345     19357
     19343     19342     19340     19348     19343     19345     19357     19358
     19343     19345     19357     19359     19343     19345     19357     19360
     19344     19343     19345     19346     19344     19343     19345     19347
     19344     19343     19345     19357     19345     19357     19360     19361
     19345     19357     19360     19362     19345     19357     19360     19363
     19346     19345     19357     19358     19346     19345     19357     19359
     19346     19345     19357     19360     19347     19345     19357     19358
     19347     19345     19357     19359     19347     19345     19357     19360
     19348     19351     19352     19353     19348     19351     19352     19354
     19349     19348     19351     19352     19350     19348     19351     19352
     19351     19352     19354     19355     19351     19352     19354     19356
     19351     19352     19354     19404     19352     19354     19404     19405
     19352     19354     19404     19406     19352     19354     19404     19407
     19353     19352     19354     19355     19353     19352     19354     19356
     19353     19352     19354     19404     19354     19404     19407     19408
     19354     19404     19407     19409     19354     19404     19407     19410
     19355     19354     19404     19405     19355     19354     19404     19406
     19355     19354     19404     19407     19356     19354     19404     19405
     19356     19354     19404     19406     19356     19354     19404     19407
     19357     19360     19363     19364     19357     19360     19363     19365
     19357     19360     19363     19366     19358     19357     19360     19361
     19358     19357     19360     19362     19358     19357     19360     19363
     19359     19357     19360     19361     19359     19357     19360     19362
     19359     19357     19360     19363     19360     19363     19366     19367
     19360     19363     19366     19368     19360     19363     19366     19369
     19361     19360     19363     19364     19361     19360     19363     19365
     19361     19360     19363     19366     19362     19360     19363     19364
     19362     19360     19363     19365     19362     19360     19363     19366
     19363     19366     19369     19370     19363     19366     19369     19371
     19363     19366     19369     19372     19364     19363     19366     19367
     19364     19363     19366     19368     19364     19363     19366     19369
     19365     19363     19366     19367     19365     19363     19366     19368
     19365     19363     19366     19369     19366     19369     19372     19373
     19366     19369     19372     19374     19366     19369     19372     19375
     19367     19366     19369     19370     19367     19366     19369     19371
     19367     19366     19369     19372     19368     19366     19369     19370
     19368     19366     19369     19371     19368     19366     19369     19372
     19369     19372     19375     19376     19369     19372     19375     19377
     19370     19369     19372     19373     19370     19369     19372     19374
     19370     19369     19372     19375     19371     19369     19372     19373
     19371     19369     19372     19374     19371     19369     19372     19375
     19372     19375     19377     19378     19372     19375     19377     19379
     19373     19372     19375     19376     19373     19372     19375     19377
     19374     19372     19375     19376     19374     19372     19375     19377
     19375     19377     19379     19380     19375     19377     19379     19381
     19375     19377     19379     19382     19376     19375     19377     19378
     19376     19375     19377     19379     19377     19379     19382     19383
     19377     19379     19382     19384     19377     19379     19382     19385
     19378     19377     19379     19380     19378     19377     19379     19381
     19378     19377     19379     19382     19379     19382     19385     19386
     19379     19382     19385     19387     19379     19382     19385     19388
     19380     19379     19382     19383     19380     19379     19382     19384
     19380     19379     19382     19385     19381     19379     19382     19383
     19381     19379     19382     19384     19381     19379     19382     19385
     19382     19385     19388     19389     19382     19385     19388     19390
     19382     19385     19388     19391     19383     19382     19385     19386
     19383     19382     19385     19387     19383     19382     19385     19388
     19384     19382     19385     19386     19384     19382     19385     19387
     19384     19382     19385     19388     19385     19388     19391     19392
     19385     19388     19391     19393     19385     19388     19391     19394
     19386     19385     19388     19389     19386     19385     19388     19390
     19386     19385     19388     19391     19387     19385     19388     19389
     19387     19385     19388     19390     19387     19385     19388     19391
     19388     19391     19394     19395     19388     19391     19394     19396
     19388     19391     19394     19397     19389     19388     19391     19392
     19389     19388     19391     19393     19389     19388     19391     19394
     19390     19388     19391     19392     19390     19388     19391     19393
     19390     19388     19391     19394     19391     19394     19397     19398
     19391     19394     19397     19399     19391     19394     19397     19400
     19392     19391     19394     19395     19392     19391     19394     19396
     19392     19391     19394     19397     19393     19391     19394     19395
     19393     19391     19394     19396     19393     19391     19394     19397
     19394     19397     19400     19401     19394     19397     19400     19402
     19394     19397     19400     19403     19395     19394     19397     19398
     19395     19394     19397     19399     19395     19394     19397     19400
     19396     19394     19397     19398     19396     19394     19397     19399
     19396     19394     19397     19400     19398     19397     19400     19401
     19398     19397     19400     19402     19398     19397     19400     19403
     19399     19397     19400     19401     19399     19397     19400     19402
     19399     19397     19400     19403     19404     19407     19410     19411
     19404     19407     19410     19412     19404     19407     19410     19413
     19405     19404     19407     19408     19405     19404     19407     19409
     19405     19404     19407     19410     19406     19404     19407     19408
     19406     19404     19407     19409     19406     19404     19407     19410
     19407     19410     19413     19414     19407     19410     19413     19415
     19407     19410     19413     19416     19408     19407     19410     19411
     19408     19407     19410     19412     19408     19407     19410     19413
     19409     19407     19410     19411     19409     19407     19410     19412
     19409     19407     19410     19413     19410     19413     19416     19417
     19410     19413     19416     19418     19410     19413     19416     19419
     19411     19410     19413     19414     19411     19410     19413     19415
     19411     19410     19413     19416     19412     19410     19413     19414
     19412     19410     19413     19415     19412     19410     19413     19416
     19413     19416     19419     19420     19413     19416     19419     19421
     19413     19416     19419     19422     19414     19413     19416     19417
     19414     19413     19416     19418     19414     19413     19416     19419
     19415     19413     19416     19417     19415     19413     19416     19418
     19415     19413     19416     19419     19416     19419     19422     19423
     19416     19419     19422     19424     19416     19419     19422     19425
     19417     19416     19419     19420     19417     19416     19419     19421
     19417     19416     19419     19422     19418     19416     19419     19420
     19418     19416     19419     19421     19418     19416     19419     19422
     19419     19422     19425     19426     19419     19422     19425     19427
     19419     19422     19425     19428     19420     19419     19422     19423
     19420     19419     19422     19424     19420     19419     19422     19425
     19421     19419     19422     19423     19421     19419     19422     19424
     19421     19419     19422     19425     19422     19425     19428     19429
     19422     19425     19428     19430     19422     19425     19428     19431
     19423     19422     19425     19426     19423     19422     19425     19427
     19423     19422     19425     19428     19424     19422     19425     19426
     19424     19422     19425     19427     19424     19422     19425     19428
     19425     19428     19431     19432     19425     19428     19431     19433
     19425     19428     19431     19434     19426     19425     19428     19429
     19426     19425     19428     19430     19426     19425     19428     19431
     19427     19425     19428     19429     19427     19425     19428     19430
     19427     19425     19428     19431     19428     19431     19434     19435
     19428     19431     19434     19436     19428     19431     19434     19437
     19429     19428     19431     19432     19429     19428     19431     19433
     19429     19428     19431     19434     19430     19428     19431     19432
     19430     19428     19431     19433     19430     19428     19431     19434
     19431     19434     19437     19438     19431     19434     19437     19439
     19431     19434     19437     19440     19432     19431     19434     19435
     19432     19431     19434     19436     19432     19431     19434     19437
     19433     19431     19434     19435     19433     19431     19434     19436
     19433     19431     19434     19437     19434     19437     19440     19441
     19434     19437     19440     19442     19434     19437     19440     19443
     19435     19434     19437     19438     19435     19434     19437     19439
     19435     19434     19437     19440     19436     19434     19437     19438
     19436     19434     19437     19439     19436     19434     19437     19440
     19437     19440     19443     19444     19437     19440     19443     19445
     19437     19440     19443     19446     19438     19437     19440     19441
     19438     19437     19440     19442     19438     19437     19440     19443
     19439     19437     19440     19441     19439     19437     19440     19442
     19439     19437     19440     19443     19441     19440     19443     19444
     19441     19440     19443     19445     19441     19440     19443     19446
     19442     19440     19443     19444     19442     19440     19443     19445
     19442     19440     19443     19446      1851      1855      1858      1859
      1851      1855      1858      1889      1851      1897      1894      1889
      1851      1897      1894      1895      1851      1897      1894      1896
      1852      1851      1853      1854      1852      1851      1855      1856
      1852      1851      1855      1857      1852      1851      1855      1858
      1852      1851      1897      1894      1852      1851      1897      1898
      1852      1851      1897      1899      1853      1851      1855      1856
      1853      1851      1855      1857      1853      1851      1855      1858
      1853      1851      1897      1894      1853      1851      1897      1898
      1853      1851      1897      1899      1854      1853      1851      1855
      1854      1853      1851      1897      1855      1851      1897      1894
      1855      1851      1897      1898      1855      1851      1897      1899
      1855      1858      1859      1860      1855      1858      1859      1861
      1855      1858      1889      1887      1855      1858      1889      1890
      1855      1858      1889      1894      1856      1855      1851      1897
      1856      1855      1858      1859      1856      1855      1858      1889
      1857      1855      1851      1897      1857      1855      1858      1859
      1857      1855      1858      1889      1858      1855      1851      1897
      1858      1859      1861      1862      1858      1859      1861      1863
      1858      1859      1861      1864      1858      1889      1887      1864
      1858      1889      1887      1884      1858      1889      1887      1888
      1858      1889      1890      1891      1858      1889      1890      1892
      1858      1889      1890      1893      1858      1889      1894      1895
      1858      1889      1894      1896      1858      1889      1894      1897
      1859      1858      1889      1887      1859      1858      1889      1890
      1859      1858      1889      1894      1859      1861      1864      1865
      1859      1861      1864      1866      1859      1861      1864      1887
      1860      1859      1858      1889      1860      1859      1861      1862
      1860      1859      1861      1863      1860      1859      1861      1864
      1861      1859      1858      1889      1861      1864      1866      1867
      1861      1864      1866      1868      1861      1864      1866      1876
      1861      1864      1887      1884      1861      1864      1887      1888
      1861      1864      1887      1889      1862      1861      1864      1865
      1862      1861      1864      1866      1862      1861      1864      1887
      1863      1861      1864      1865      1863      1861      1864      1866
      1863      1861      1864      1887      1864      1866      1868      1869
      1864      1866      1868      1870      1864      1866      1868      1871
      1864      1866      1876      1874      1864      1866      1876      1877
      1864      1866      1876      1881      1864      1887      1884      1881
      1864      1887      1884      1885      1864      1887      1884      1886
      1864      1887      1889      1890      1864      1887      1889      1894
      1865      1864      1866      1867      1865      1864      1866      1868
      1865      1864      1866      1876      1865      1864      1887      1884
      1865      1864      1887      1888      1865      1864      1887      1889
      1866      1864      1887      1884      1866      1864      1887      1888
      1866      1864      1887      1889      1866      1868      1871      1872
      1866      1868      1871      1873      1866      1868      1871      1874
      1866      1876      1874      1871      1866      1876      1874      1875
      1866      1876      1874      1900      1866      1876      1877      1878
      1866      1876      1877      1879      1866      1876      1877      1880
      1866      1876      1881      1882      1866      1876      1881      1883
      1866      1876      1881      1884      1867      1866      1864      1887
      1867      1866      1868      1869      1867      1866      1868      1870
      1867      1866      1868      1871      1867      1866      1876      1874
      1867      1866      1876      1877      1867      1866      1876      1881
      1868      1866      1864      1887      1868      1866      1876      1874
      1868      1866      1876      1877      1868      1866      1876      1881
      1868      1871      1874      1875      1868      1871      1874      1876
      1868      1871      1874      1900      1869      1868      1866      1876
      1869      1868      1871      1872      1869      1868      1871      1873
      1869      1868      1871      1874      1870      1868      1866      1876
      1870      1868      1871      1872      1870      1868      1871      1873
      1870      1868      1871      1874      1871      1868      1866      1876
      1871      1874      1876      1877      1871      1874      1876      1881
      1871      1874      1900      1901      1871      1874      1900      1902
      1871      1874      1900      1906      1872      1871      1874      1875
      1872      1871      1874      1876      1872      1871      1874      1900
      1873      1871      1874      1875      1873      1871      1874      1876
      1873      1871      1874      1900      1874      1876      1877      1878
      1874      1876      1877      1879      1874      1876      1877      1880
      1874      1876      1881      1882      1874      1876      1881      1883
      1874      1876      1881      1884      1874      1900      1902      1903
      1874      1900      1902      1904      1874      1900      1902      1905
      1874      1900      1906      1907      1874      1900      1906      1908
      1874      1900      1906      1909      1875      1874      1876      1877
      1875      1874      1876      1881      1875      1874      1900      1901
      1875      1874      1900      1902      1875      1874      1900      1906
      1876      1866      1864      1887      1876      1874      1900      1901
      1876      1874      1900      1902      1876      1874      1900      1906
      1876      1881      1884      1885      1876      1881      1884      1886
      1876      1881      1884      1887      1877      1876      1874      1900
      1877      1876      1881      1882      1877      1876      1881      1883
      1877      1876      1881      1884      1878      1877      1876      1881
      1879      1877      1876      1881      1880      1877      1876      1881
      1881      1876      1874      1900      1881      1884      1887      1888
      1881      1884      1887      1889      1882      1881      1884      1885
      1882      1881      1884      1886      1882      1881      1884      1887
      1883      1881      1884      1885      1883      1881      1884      1886
      1883      1881      1884      1887      1884      1887      1889      1890
      1884      1887      1889      1894      1885      1884      1887      1888
      1885      1884      1887      1889      1886      1884      1887      1888
      1886      1884      1887      1889      1887      1889      1890      1891
      1887      1889      1890      1892      1887      1889      1890      1893
      1887      1889      1894      1895      1887      1889      1894      1896
      1887      1889      1894      1897      1888      1887      1889      1890
      1888      1887      1889      1894      1889      1894      1897      1898
      1889      1894      1897      1899      1890      1889      1894      1895
      1890      1889      1894      1896      1890      1889      1894      1897
      1891      1890      1889      1894      1892      1890      1889      1894
      1893      1890      1889      1894      1895      1894      1897      1898
      1895      1894      1897      1899      1896      1894      1897      1898
      1896      1894      1897      1899      1900      1906      1909      1910
      1900      1906      1909      1911      1900      1906      1909      1912
      1901      1900      1902      1903      1901      1900      1902      1904
      1901      1900      1902      1905      1901      1900      1906      1907
      1901      1900      1906      1908      1901      1900      1906      1909
      1902      1900      1906      1907      1902      1900      1906      1908
      1902      1900      1906      1909      1903      1902      1900      1906
      1904      1902      1900      1906      1905      1902      1900      1906
      1906      1909      1912      1913      1906      1909      1912      1914
      1906      1909      1912      1915      1907      1906      1909      1910
      1907      1906      1909      1911      1907      1906      1909      1912
      1908      1906      1909      1910      1908      1906      1909      1911
      1908      1906      1909      1912      1909      1912      1915      1916
      1909      1912      1915      1917      1909      1912      1915      1921
      1910      1909      1912      1913      1910      1909      1912      1914
      1910      1909      1912      1915      1911      1909      1912      1913
      1911      1909      1912      1914      1911      1909      1912      1915
      1912      1915      1917      1918      1912      1915      1917      1919
      1912      1915      1917      1920      1912      1915      1921      1922
      1912      1915      1921      1923      1912      1915      1921      1924
      1913      1912      1915      1916      1913      1912      1915      1917
      1913      1912      1915      1921      1914      1912      1915      1916
      1914      1912      1915      1917      1914      1912      1915      1921
      1916      1915      1917      1918      1916      1915      1917      1919
      1916      1915      1917      1920      1916      1915      1921      1922
      1916      1915      1921      1923      1916      1915      1921      1924
      1917      1915      1921      1922      1917      1915      1921      1923
      1917      1915      1921      1924      1918      1917      1915      1921
      1919      1917      1915      1921      1920      1917      1915      1921
      6721      6725      6728      6729      6721      6725      6728      6730
      6721      6725      6728      6735      6722      6721      6725      6726
      6722      6721      6725      6727      6722      6721      6725      6728
      6723      6721      6725      6726      6723      6721      6725      6727
      6723      6721      6725      6728      6724      6721      6725      6726
      6724      6721      6725      6727      6724      6721      6725      6728
      6725      6728      6735      6731      6726      6725      6728      6729
      6726      6725      6728      6730      6726      6725      6728      6735
      6727      6725      6728      6729      6727      6725      6728      6730
      6727      6725      6728      6735      6728      6735      6731      6732
      6728      6735      6731      6733      6728      6735      6731      6734
      6729      6728      6735      6731      6730      6728      6735      6731
      6731      6734      6736      6737      6731      6734      6736      6738
      6731      6734      6736      6739      6732      6731      6734      6736
      6733      6731      6734      6736      6734      6736      6739      6740
      6734      6736      6739      6741      6734      6736      6739      6747
      6735      6731      6734      6736      6736      6739      6741      6742
      6736      6739      6747      6748      6736      6739      6747      6749
      6736      6739      6747      6750      6737      6736      6739      6740
      6737      6736      6739      6741      6737      6736      6739      6747
      6738      6736      6739      6740      6738      6736      6739      6741
      6738      6736      6739      6747      6739      6741      6742      6743
      6739      6741      6742      6744      6739      6747      6750      6751
      6740      6739      6741      6742      6740      6739      6747      6748
      6740      6739      6747      6749      6740      6739      6747      6750
      6741      6739      6747      6748      6741      6739      6747      6749
      6741      6739      6747      6750      6741      6742      6744      6745
      6741      6742      6744      6746      6741      6742      6744      6756
      6742      6741      6739      6747      6742      6744      6756      6757
      6742      6744      6756      6758      6742      6744      6756      6759
      6743      6742      6744      6745      6743      6742      6744      6746
      6743      6742      6744      6756      6744      6756      6759      6760
      6744      6756      6759      6761      6744      6756      6759      6762
      6745      6744      6756      6757      6745      6744      6756      6758
      6745      6744      6756      6759      6746      6744      6756      6757
      6746      6744      6756      6758      6746      6744      6756      6759
      6747      6750      6751      6752      6747      6750      6751      6753
      6748      6747      6750      6751      6749      6747      6750      6751
      6750      6751      6753      6754      6750      6751      6753      6755
      6750      6751      6753      6803      6751      6753      6803      6804
      6751      6753      6803      6805      6751      6753      6803      6806
      6752      6751      6753      6754      6752      6751      6753      6755
      6752      6751      6753      6803      6753      6803      6806      6807
      6753      6803      6806      6808      6753      6803      6806      6809
      6754      6753      6803      6804      6754      6753      6803      6805
      6754      6753      6803      6806      6755      6753      6803      6804
      6755      6753      6803      6805      6755      6753      6803      6806
      6756      6759      6762      6763      6756      6759      6762      6764
      6756      6759      6762      6765      6757      6756      6759      6760
      6757      6756      6759      6761      6757      6756      6759      6762
      6758      6756      6759      6760      6758      6756      6759      6761
      6758      6756      6759      6762      6759      6762      6765      6766
      6759      6762      6765      6767      6759      6762      6765      6768
      6760      6759      6762      6763      6760      6759      6762      6764
      6760      6759      6762      6765      6761      6759      6762      6763
      6761      6759      6762      6764      6761      6759      6762      6765
      6762      6765      6768      6769      6762      6765      6768      6770
      6762      6765      6768      6771      6763      6762      6765      6766
      6763      6762      6765      6767      6763      6762      6765      6768
      6764      6762      6765      6766      6764      6762      6765      6767
      6764      6762      6765      6768      6765      6768      6771      6772
      6765      6768      6771      6773      6765      6768      6771      6774
      6766      6765      6768      6769      6766      6765      6768      6770
      6766      6765      6768      6771      6767      6765      6768      6769
      6767      6765      6768      6770      6767      6765      6768      6771
      6768      6771      6774      6775      6768      6771      6774      6776
      6769      6768      6771      6772      6769      6768      6771      6773
      6769      6768      6771      6774      6770      6768      6771      6772
      6770      6768      6771      6773      6770      6768      6771      6774
      6771      6774      6776      6777      6771      6774      6776      6778
      6772      6771      6774      6775      6772      6771      6774      6776
      6773      6771      6774      6775      6773      6771      6774      6776
      6774      6776      6778      6779      6774      6776      6778      6780
      6774      6776      6778      6781      6775      6774      6776      6777
      6775      6774      6776      6778      6776      6778      6781      6782
      6776      6778      6781      6783      6776      6778      6781      6784
      6777      6776      6778      6779      6777      6776      6778      6780
      6777      6776      6778      6781      6778      6781      6784      6785
      6778      6781      6784      6786      6778      6781      6784      6787
      6779      6778      6781      6782      6779      6778      6781      6783
      6779      6778      6781      6784      6780      6778      6781      6782
      6780      6778      6781      6783      6780      6778      6781      6784
      6781      6784      6787      6788      6781      6784      6787      6789
      6781      6784      6787      6790      6782      6781      6784      6785
      6782      6781      6784      6786      6782      6781      6784      6787
      6783      6781      6784      6785      6783      6781      6784      6786
      6783      6781      6784      6787      6784      6787      6790      6791
      6784      6787      6790      6792      6784      6787      6790      6793
      6785      6784      6787      6788      6785      6784      6787      6789
      6785      6784      6787      6790      6786      6784      6787      6788
      6786      6784      6787      6789      6786      6784      6787      6790
      6787      6790      6793      6794      6787      6790      6793      6795
      6787      6790      6793      6796      6788      6787      6790      6791
      6788      6787      6790      6792      6788      6787      6790      6793
      6789      6787      6790      6791      6789      6787      6790      6792
      6789      6787      6790      6793      6790      6793      6796      6797
      6790      6793      6796      6798      6790      6793      6796      6799
      6791      6790      6793      6794      6791      6790      6793      6795
      6791      6790      6793      6796      6792      6790      6793      6794
      6792      6790      6793      6795      6792      6790      6793      6796
      6793      6796      6799      6800      6793      6796      6799      6801
      6793      6796      6799      6802      6794      6793      6796      6797
      6794      6793      6796      6798      6794      6793      6796      6799
      6795      6793      6796      6797      6795      6793      6796      6798
      6795      6793      6796      6799      6797      6796      6799      6800
      6797      6796      6799      6801      6797      6796      6799      6802
      6798      6796      6799      6800      6798      6796      6799      6801
      6798      6796      6799      6802      6803      6806      6809      6810
      6803      6806      6809      6811      6803      6806      6809      6812
      6804      6803      6806      6807      6804      6803      6806      6808
      6804      6803      6806      6809      6805      6803      6806      6807
      6805      6803      6806      6808      6805      6803      6806      6809
      6806      6809      6812      6813      6806      6809      6812      6814
      6806      6809      6812      6815      6807      6806      6809      6810
      6807      6806      6809      6811      6807      6806      6809      6812
      6808      6806      6809      6810      6808      6806      6809      6811
      6808      6806      6809      6812      6809      6812      6815      6816
      6809      6812      6815      6817      6809      6812      6815      6818
      6810      6809      6812      6813      6810      6809      6812      6814
      6810      6809      6812      6815      6811      6809      6812      6813
      6811      6809      6812      6814      6811      6809      6812      6815
      6812      6815      6818      6819      6812      6815      6818      6820
      6812      6815      6818      6821      6813      6812      6815      6816
      6813      6812      6815      6817      6813      6812      6815      6818
      6814      6812      6815      6816      6814      6812      6815      6817
      6814      6812      6815      6818      6815      6818      6821      6822
      6815      6818      6821      6823      6815      6818      6821      6824
      6816      6815      6818      6819      6816      6815      6818      6820
      6816      6815      6818      6821      6817      6815      6818      6819
      6817      6815      6818      6820      6817      6815      6818      6821
      6818      6821      6824      6825      6818      6821      6824      6826
      6818      6821      6824      6827      6819      6818      6821      6822
      6819      6818      6821      6823      6819      6818      6821      6824
      6820      6818      6821      6822      6820      6818      6821      6823
      6820      6818      6821      6824      6821      6824      6827      6828
      6821      6824      6827      6829      6821      6824      6827      6830
      6822      6821      6824      6825      6822      6821      6824      6826
      6822      6821      6824      6827      6823      6821      6824      6825
      6823      6821      6824      6826      6823      6821      6824      6827
      6824      6827      6830      6831      6824      6827      6830      6832
      6824      6827      6830      6833      6825      6824      6827      6828
      6825      6824      6827      6829      6825      6824      6827      6830
      6826      6824      6827      6828      6826      6824      6827      6829
      6826      6824      6827      6830      6827      6830      6833      6834
      6827      6830      6833      6835      6827      6830      6833      6836
      6828      6827      6830      6831      6828      6827      6830      6832
      6828      6827      6830      6833      6829      6827      6830      6831
      6829      6827      6830      6832      6829      6827      6830      6833
      6830      6833      6836      6837      6830      6833      6836      6838
      6830      6833      6836      6839      6831      6830      6833      6834
      6831      6830      6833      6835      6831      6830      6833      6836
      6832      6830      6833      6834      6832      6830      6833      6835
      6832      6830      6833      6836      6833      6836      6839      6840
      6833      6836      6839      6841      6833      6836      6839      6842
      6834      6833      6836      6837      6834      6833      6836      6838
      6834      6833      6836      6839      6835      6833      6836      6837
      6835      6833      6836      6838      6835      6833      6836      6839
      6836      6839      6842      6843      6836      6839      6842      6844
      6836      6839      6842      6845      6837      6836      6839      6840
      6837      6836      6839      6841      6837      6836      6839      6842
      6838      6836      6839      6840      6838      6836      6839      6841
      6838      6836      6839      6842      6840      6839      6842      6843
      6840      6839      6842      6844      6840      6839      6842      6845
      6841      6839      6842      6843      6841      6839      6842      6844
      6841      6839      6842      6845     12027     12031     12033     12034
     12027     12031     12033     12035     12027     12031     12036     12037
     12027     12031     12036     12038     12027     12031     12036     12042
     12028     12027     12031     12032     12028     12027     12031     12033
     12028     12027     12031     12036     12029     12027     12031     12032
     12029     12027     12031     12033     12029     12027     12031     12036
     12030     12027     12031     12032     12030     12027     12031     12033
     12030     12027     12031     12036     12031     12036     12042     12039
     12032     12031     12033     12034     12032     12031     12033     12035
     12032     12031     12036     12037     12032     12031     12036     12038
     12032     12031     12036     12042     12033     12031     12036     12037
     12033     12031     12036     12038     12033     12031     12036     12042
     12034     12033     12031     12036     12035     12033     12031     12036
     12036     12042     12039     12040     12036     12042     12039     12041
     12036     12042     12039     12043     12037     12036     12042     12039
     12038     12036     12042     12039     12039     12043     12044     12045
     12039     12043     12044     12046     12039     12043     12044     12047
     12040     12039     12043     12044     12041     12039     12043     12044
     12042     12039     12043     12044     12043     12044     12047     12048
     12043     12044     12047     12049     12043     12044     12047     12055
     12044     12047     12049     12050     12044     12047     12055     12056
     12044     12047     12055     12057     12044     12047     12055     12058
     12045     12044     12047     12048     12045     12044     12047     12049
     12045     12044     12047     12055     12046     12044     12047     12048
     12046     12044     12047     12049     12046     12044     12047     12055
     12047     12049     12050     12051     12047     12049     12050     12052
     12047     12055     12058     12059     12048     12047     12049     12050
     12048     12047     12055     12056     12048     12047     12055     12057
     12048     12047     12055     12058     12049     12047     12055     12056
     12049     12047     12055     12057     12049     12047     12055     12058
     12049     12050     12052     12053     12049     12050     12052     12054
     12049     12050     12052     12064     12050     12049     12047     12055
     12050     12052     12064     12065     12050     12052     12064     12066
     12050     12052     12064     12067     12051     12050     12052     12053
     12051     12050     12052     12054     12051     12050     12052     12064
     12052     12064     12067     12068     12052     12064     12067     12069
     12052     12064     12067     12070     12053     12052     12064     12065
     12053     12052     12064     12066     12053     12052     12064     12067
     12054     12052     12064     12065     12054     12052     12064     12066
     12054     12052     12064     12067     12055     12058     12059     12060
     12055     12058     12059     12061     12056     12055     12058     12059
     12057     12055     12058     12059     12058     12059     12061     12062
     12058     12059     12061     12063     12058     12059     12061     12111
     12059     12061     12111     12112     12059     12061     12111     12113
     12059     12061     12111     12114     12060     12059     12061     12062
     12060     12059     12061     12063     12060     12059     12061     12111
     12061     12111     12114     12115     12061     12111     12114     12116
     12061     12111     12114     12117     12062     12061     12111     12112
     12062     12061     12111     12113     12062     12061     12111     12114
     12063     12061     12111     12112     12063     12061     12111     12113
     12063     12061     12111     12114     12064     12067     12070     12071
     12064     12067     12070     12072     12064     12067     12070     12073
     12065     12064     12067     12068     12065     12064     12067     12069
     12065     12064     12067     12070     12066     12064     12067     12068
     12066     12064     12067     12069     12066     12064     12067     12070
     12067     12070     12073     12074     12067     12070     12073     12075
     12067     12070     12073     12076     12068     12067     12070     12071
     12068     12067     12070     12072     12068     12067     12070     12073
     12069     12067     12070     12071     12069     12067     12070     12072
     12069     12067     12070     12073     12070     12073     12076     12077
     12070     12073     12076     12078     12070     12073     12076     12079
     12071     12070     12073     12074     12071     12070     12073     12075
     12071     12070     12073     12076     12072     12070     12073     12074
     12072     12070     12073     12075     12072     12070     12073     12076
     12073     12076     12079     12080     12073     12076     12079     12081
     12073     12076     12079     12082     12074     12073     12076     12077
     12074     12073     12076     12078     12074     12073     12076     12079
     12075     12073     12076     12077     12075     12073     12076     12078
     12075     12073     12076     12079     12076     12079     12082     12083
     12076     12079     12082     12084     12077     12076     12079     12080
     12077     12076     12079     12081     12077     12076     12079     12082
     12078     12076     12079     12080     12078     12076     12079     12081
     12078     12076     12079     12082     12079     12082     12084     12085
     12079     12082     12084     12086     12080     12079     12082     12083
     12080     12079     12082     12084     12081     12079     12082     12083
     12081     12079     12082     12084     12082     12084     12086     12087
     12082     12084     12086     12088     12082     12084     12086     12089
     12083     12082     12084     12085     12083     12082     12084     12086
     12084     12086     12089     12090     12084     12086     12089     12091
     12084     12086     12089     12092     12085     12084     12086     12087
     12085     12084     12086     12088     12085     12084     12086     12089
     12086     12089     12092     12093     12086     12089     12092     12094
     12086     12089     12092     12095     12087     12086     12089     12090
     12087     12086     12089     12091     12087     12086     12089     12092
     12088     12086     12089     12090     12088     12086     12089     12091
     12088     12086     12089     12092     12089     12092     12095     12096
     12089     12092     12095     12097     12089     12092     12095     12098
     12090     12089     12092     12093     12090     12089     12092     12094
     12090     12089     12092     12095     12091     12089     12092     12093
     12091     12089     12092     12094     12091     12089     12092     12095
     12092     12095     12098     12099     12092     12095     12098     12100
     12092     12095     12098     12101     12093     12092     12095     12096
     12093     12092     12095     12097     12093     12092     12095     12098
     12094     12092     12095     12096     12094     12092     12095     12097
     12094     12092     12095     12098     12095     12098     12101     12102
     12095     12098     12101     12103     12095     12098     12101     12104
     12096     12095     12098     12099     12096     12095     12098     12100
     12096     12095     12098     12101     12097     12095     12098     12099
     12097     12095     12098     12100     12097     12095     12098     12101
     12098     12101     12104     12105     12098     12101     12104     12106
     12098     12101     12104     12107     12099     12098     12101     12102
     12099     12098     12101     12103     12099     12098     12101     12104
     12100     12098     12101     12102     12100     12098     12101     12103
     12100     12098     12101     12104     12101     12104     12107     12108
     12101     12104     12107     12109     12101     12104     12107     12110
     12102     12101     12104     12105     12102     12101     12104     12106
     12102     12101     12104     12107     12103     12101     12104     12105
     12103     12101     12104     12106     12103     12101     12104     12107
     12105     12104     12107     12108     12105     12104     12107     12109
     12105     12104     12107     12110     12106     12104     12107     12108
     12106     12104     12107     12109     12106     12104     12107     12110
     12111     12114     12117     12118     12111     12114     12117     12119
     12111     12114     12117     12120     12112     12111     12114     12115
     12112     12111     12114     12116     12112     12111     12114     12117
     12113     12111     12114     12115     12113     12111     12114     12116
     12113     12111     12114     12117     12114     12117     12120     12121
     12114     12117     12120     12122     12114     12117     12120     12123
     12115     12114     12117     12118     12115     12114     12117     12119
     12115     12114     12117     12120     12116     12114     12117     12118
     12116     12114     12117     12119     12116     12114     12117     12120
     12117     12120     12123     12124     12117     12120     12123     12125
     12117     12120     12123     12126     12118     12117     12120     12121
     12118     12117     12120     12122     12118     12117     12120     12123
     12119     12117     12120     12121     12119     12117     12120     12122
     12119     12117     12120     12123     12120     12123     12126     12127
     12120     12123     12126     12128     12120     12123     12126     12129
     12121     12120     12123     12124     12121     12120     12123     12125
     12121     12120     12123     12126     12122     12120     12123     12124
     12122     12120     12123     12125     12122     12120     12123     12126
     12123     12126     12129     12130     12123     12126     12129     12131
     12123     12126     12129     12132     12124     12123     12126     12127
     12124     12123     12126     12128     12124     12123     12126     12129
     12125     12123     12126     12127     12125     12123     12126     12128
     12125     12123     12126     12129     12126     12129     12132     12133
     12126     12129     12132     12134     12126     12129     12132     12135
     12127     12126     12129     12130     12127     12126     12129     12131
     12127     12126     12129     12132     12128     12126     12129     12130
     12128     12126     12129     12131     12128     12126     12129     12132
     12129     12132     12135     12136     12129     12132     12135     12137
     12129     12132     12135     12138     12130     12129     12132     12133
     12130     12129     12132     12134     12130     12129     12132     12135
     12131     12129     12132     12133     12131     12129     12132     12134
     12131     12129     12132     12135     12132     12135     12138     12139
     12132     12135     12138     12140     12132     12135     12138     12141
     12133     12132     12135     12136     12133     12132     12135     12137
     12133     12132     12135     12138     12134     12132     12135     12136
     12134     12132     12135     12137     12134     12132     12135     12138
     12135     12138     12141     12142     12135     12138     12141     12143
     12135     12138     12141     12144     12136     12135     12138     12139
     12136     12135     12138     12140     12136     12135     12138     12141
     12137     12135     12138     12139     12137     12135     12138     12140
     12137     12135     12138     12141     12138     12141     12144     12145
     12138     12141     12144     12146     12138     12141     12144     12147
     12139     12138     12141     12142     12139     12138     12141     12143
     12139     12138     12141     12144     12140     12138     12141     12142
     12140     12138     12141     12143     12140     12138     12141     12144
     12141     12144     12147     12148     12141     12144     12147     12149
     12141     12144     12147     12150     12142     12141     12144     12145
     12142     12141     12144     12146     12142     12141     12144     12147
     12143     12141     12144     12145     12143     12141     12144     12146
     12143     12141     12144     12147     12144     12147     12150     12151
     12144     12147     12150     12152     12144     12147     12150     12153
     12145     12144     12147     12148     12145     12144     12147     12149
     12145     12144     12147     12150     12146     12144     12147     12148
     12146     12144     12147     12149     12146     12144     12147     12150
     12148     12147     12150     12151     12148     12147     12150     12152
     12148     12147     12150     12153     12149     12147     12150     12151
     12149     12147     12150     12152     12149     12147     12150     12153
     19447     19448     19463     19464     19447     19448     19463     19465
     19447     19448     19463     19469     19448     19447     19451     19452
     19448     19447     19451     19453     19448     19447     19451     19454
     19448     19447     19455     19456     19448     19447     19455     19457
     19448     19447     19455     19458     19448     19447     19459     19460
     19448     19447     19459     19461     19448     19447     19459     19462
     19448     19463     19469     19466     19449     19448     19447     19451
     19449     19448     19447     19455     19449     19448     19447     19459
     19449     19448     19463     19464     19449     19448     19463     19465
     19449     19448     19463     19469     19450     19448     19447     19451
     19450     19448     19447     19455     19450     19448     19447     19459
     19450     19448     19463     19464     19450     19448     19463     19465
     19450     19448     19463     19469     19451     19447     19448     19463
     19451     19447     19455     19456     19451     19447     19455     19457
     19451     19447     19455     19458     19451     19447     19459     19460
     19451     19447     19459     19461     19451     19447     19459     19462
     19452     19451     19447     19455     19452     19451     19447     19459
     19453     19451     19447     19455     19453     19451     19447     19459
     19454     19451     19447     19455     19454     19451     19447     19459
     19455     19447     19448     19463     19455     19447     19459     19460
     19455     19447     19459     19461     19455     19447     19459     19462
     19456     19455     19447     19459     19457     19455     19447     19459
     19458     19455     19447     19459     19459     19447     19448     19463
     19463     19469     19466     19467     19463     19469     19466     19468
     19463     19469     19466     19470     19464     19463     19469     19466
     19465     19463     19469     19466     19466     19470     19471     19472
     19466     19470     19471     19473     19466     19470     19471     19474
     19467     19466     19470     19471     19468     19466     19470     19471
     19469     19466     19470     19471     19470     19471     19474     19475
     19470     19471     19474     19476     19470     19471     19474     19482
     19471     19474     19476     19477     19471     19474     19482     19483
     19471     19474     19482     19484     19471     19474     19482     19485
     19472     19471     19474     19475     19472     19471     19474     19476
     19472     19471     19474     19482     19473     19471     19474     19475
     19473     19471     19474     19476     19473     19471     19474     19482
     19474     19476     19477     19478     19474     19476     19477     19479
     19474     19482     19485     19486     19475     19474     19476     19477
     19475     19474     19482     19483     19475     19474     19482     19484
     19475     19474     19482     19485     19476     19474     19482     19483
     19476     19474     19482     19484     19476     19474     19482     19485
     19476     19477     19479     19480     19476     19477     19479     19481
     19476     19477     19479     19491     19477     19476     19474     19482
     19477     19479     19491     19492     19477     19479     19491     19493
     19477     19479     19491     19494     19478     19477     19479     19480
     19478     19477     19479     19481     19478     19477     19479     19491
     19479     19491     19494     19495     19479     19491     19494     19496
     19479     19491     19494     19497     19480     19479     19491     19492
     19480     19479     19491     19493     19480     19479     19491     19494
     19481     19479     19491     19492     19481     19479     19491     19493
     19481     19479     19491     19494     19482     19485     19486     19487
     19482     19485     19486     19488     19483     19482     19485     19486
     19484     19482     19485     19486     19485     19486     19488     19489
     19485     19486     19488     19490     19485     19486     19488     19538
     19486     19488     19538     19539     19486     19488     19538     19540
     19486     19488     19538     19541     19487     19486     19488     19489
     19487     19486     19488     19490     19487     19486     19488     19538
     19488     19538     19541     19542     19488     19538     19541     19543
     19488     19538     19541     19544     19489     19488     19538     19539
     19489     19488     19538     19540     19489     19488     19538     19541
     19490     19488     19538     19539     19490     19488     19538     19540
     19490     19488     19538     19541     19491     19494     19497     19498
     19491     19494     19497     19499     19491     19494     19497     19500
     19492     19491     19494     19495     19492     19491     19494     19496
     19492     19491     19494     19497     19493     19491     19494     19495
     19493     19491     19494     19496     19493     19491     19494     19497
     19494     19497     19500     19501     19494     19497     19500     19502
     19494     19497     19500     19503     19495     19494     19497     19498
     19495     19494     19497     19499     19495     19494     19497     19500
     19496     19494     19497     19498     19496     19494     19497     19499
     19496     19494     19497     19500     19497     19500     19503     19504
     19497     19500     19503     19505     19497     19500     19503     19506
     19498     19497     19500     19501     19498     19497     19500     19502
     19498     19497     19500     19503     19499     19497     19500     19501
     19499     19497     19500     19502     19499     19497     19500     19503
     19500     19503     19506     19507     19500     19503     19506     19508
     19500     19503     19506     19509     19501     19500     19503     19504
     19501     19500     19503     19505     19501     19500     19503     19506
     19502     19500     19503     19504     19502     19500     19503     19505
     19502     19500     19503     19506     19503     19506     19509     19510
     19503     19506     19509     19511     19504     19503     19506     19507
     19504     19503     19506     19508     19504     19503     19506     19509
     19505     19503     19506     19507     19505     19503     19506     19508
     19505     19503     19506     19509     19506     19509     19511     19512
     19506     19509     19511     19513     19507     19506     19509     19510
     19507     19506     19509     19511     19508     19506     19509     19510
     19508     19506     19509     19511     19509     19511     19513     19514
     19509     19511     19513     19515     19509     19511     19513     19516
     19510     19509     19511     19512     19510     19509     19511     19513
     19511     19513     19516     19517     19511     19513     19516     19518
     19511     19513     19516     19519     19512     19511     19513     19514
     19512     19511     19513     19515     19512     19511     19513     19516
     19513     19516     19519     19520     19513     19516     19519     19521
     19513     19516     19519     19522     19514     19513     19516     19517
     19514     19513     19516     19518     19514     19513     19516     19519
     19515     19513     19516     19517     19515     19513     19516     19518
     19515     19513     19516     19519     19516     19519     19522     19523
     19516     19519     19522     19524     19516     19519     19522     19525
     19517     19516     19519     19520     19517     19516     19519     19521
     19517     19516     19519     19522     19518     19516     19519     19520
     19518     19516     19519     19521     19518     19516     19519     19522
     19519     19522     19525     19526     19519     19522     19525     19527
     19519     19522     19525     19528     19520     19519     19522     19523
     19520     19519     19522     19524     19520     19519     19522     19525
     19521     19519     19522     19523     19521     19519     19522     19524
     19521     19519     19522     19525     19522     19525     19528     19529
     19522     19525     19528     19530     19522     19525     19528     19531
     19523     19522     19525     19526     19523     19522     19525     19527
     19523     19522     19525     19528     19524     19522     19525     19526
     19524     19522     19525     19527     19524     19522     19525     19528
     19525     19528     19531     19532     19525     19528     19531     19533
     19525     19528     19531     19534     19526     19525     19528     19529
     19526     19525     19528     19530     19526     19525     19528     19531
     19527     19525     19528     19529     19527     19525     19528     19530
     19527     19525     19528     19531     19528     19531     19534     19535
     19528     19531     19534     19536     19528     19531     19534     19537
     19529     19528     19531     19532     19529     19528     19531     19533
     19529     19528     19531     19534     19530     19528     19531     19532
     19530     19528     19531     19533     19530     19528     19531     19534
     19532     19531     19534     19535     19532     19531     19534     19536
     19532     19531     19534     19537     19533     19531     19534     19535
     19533     19531     19534     19536     19533     19531     19534     19537
     19538     19541     19544     19545     19538     19541     19544     19546
     19538     19541     19544     19547     19539     19538     19541     19542
     19539     19538     19541     19543     19539     19538     19541     19544
     19540     19538     19541     19542     19540     19538     19541     19543
     19540     19538     19541     19544     19541     19544     19547     19548
     19541     19544     19547     19549     19541     19544     19547     19550
     19542     19541     19544     19545     19542     19541     19544     19546
     19542     19541     19544     19547     19543     19541     19544     19545
     19543     19541     19544     19546     19543     19541     19544     19547
     19544     19547     19550     19551     19544     19547     19550     19552
     19544     19547     19550     19553     19545     19544     19547     19548
     19545     19544     19547     19549     19545     19544     19547     19550
     19546     19544     19547     19548     19546     19544     19547     19549
     19546     19544     19547     19550     19547     19550     19553     19554
     19547     19550     19553     19555     19547     19550     19553     19556
     19548     19547     19550     19551     19548     19547     19550     19552
     19548     19547     19550     19553     19549     19547     19550     19551
     19549     19547     19550     19552     19549     19547     19550     19553
     19550     19553     19556     19557     19550     19553     19556     19558
     19550     19553     19556     19559     19551     19550     19553     19554
     19551     19550     19553     19555     19551     19550     19553     19556
     19552     19550     19553     19554     19552     19550     19553     19555
     19552     19550     19553     19556     19553     19556     19559     19560
     19553     19556     19559     19561     19553     19556     19559     19562
     19554     19553     19556     19557     19554     19553     19556     19558
     19554     19553     19556     19559     19555     19553     19556     19557
     19555     19553     19556     19558     19555     19553     19556     19559
     19556     19559     19562     19563     19556     19559     19562     19564
     19556     19559     19562     19565     19557     19556     19559     19560
     19557     19556     19559     19561     19557     19556     19559     19562
     19558     19556     19559     19560     19558     19556     19559     19561
     19558     19556     19559     19562     19559     19562     19565     19566
     19559     19562     19565     19567     19559     19562     19565     19568
     19560     19559     19562     19563     19560     19559     19562     19564
     19560     19559     19562     19565     19561     19559     19562     19563
     19561     19559     19562     19564     19561     19559     19562     19565
     19562     19565     19568     19569     19562     19565     19568     19570
     19562     19565     19568     19571     19563     19562     19565     19566
     19563     19562     19565     19567     19563     19562     19565     19568
     19564     19562     19565     19566     19564     19562     19565     19567
     19564     19562     19565     19568     19565     19568     19571     19572
     19565     19568     19571     19573     19565     19568     19571     19574
     19566     19565     19568     19569     19566     19565     19568     19570
     19566     19565     19568     19571     19567     19565     19568     19569
     19567     19565     19568     19570     19567     19565     19568     19571
     19568     19571     19574     19575     19568     19571     19574     19576
     19568     19571     19574     19577     19569     19568     19571     19572
     19569     19568     19571     19573     19569     19568     19571     19574
     19570     19568     19571     19572     19570     19568     19571     19573
     19570     19568     19571     19574     19571     19574     19577     19578
     19571     19574     19577     19579     19571     19574     19577     19580
     19572     19571     19574     19575     19572     19571     19574     19576
     19572     19571     19574     19577     19573     19571     19574     19575
     19573     19571     19574     19576     19573     19571     19574     19577
     19575     19574     19577     19578     19575     19574     19577     19579
     19575     19574     19577     19580     19576     19574     19577     19578
     19576     19574     19577     19579     19576     19574     19577     19580
      6846      6850      6853      6854      6846      6850      6853      6855
      6846      6850      6853      6860      6847      6846      6850      6851
      6847      6846      6850      6852      6847      6846      6850      6853
      6848      6846      6850      6851      6848      6846      6850      6852
      6848      6846      6850      6853      6849      6846      6850      6851
      6849      6846      6850      6852      6849      6846      6850      6853
      6850      6853      6860      6856      6851      6850      6853      6854
      6851      6850      6853      6855      6851      6850      6853      6860
      6852      6850      6853      6854      6852      6850      6853      6855
      6852      6850      6853      6860      6853      6860      6856      6857
      6853      6860      6856      6858      6853      6860      6856      6859
      6854      6853      6860      6856      6855      6853      6860      6856
      6856      6859      6861      6862      6856      6859      6861      6863
      6856      6859      6861      6864      6857      6856      6859      6861
      6858      6856      6859      6861      6859      6861      6864      6865
      6859      6861      6864      6866      6859      6861      6864      6872
      6860      6856      6859      6861      6861      6864      6866      6867
      6861      6864      6872      6873      6861      6864      6872      6874
      6861      6864      6872      6875      6862      6861      6864      6865
      6862      6861      6864      6866      6862      6861      6864      6872
      6863      6861      6864      6865      6863      6861      6864      6866
      6863      6861      6864      6872      6864      6866      6867      6868
      6864      6866      6867      6869      6864      6872      6875      6876
      6865      6864      6866      6867      6865      6864      6872      6873
      6865      6864      6872      6874      6865      6864      6872      6875
      6866      6864      6872      6873      6866      6864      6872      6874
      6866      6864      6872      6875      6866      6867      6869      6870
      6866      6867      6869      6871      6866      6867      6869      6881
      6867      6866      6864      6872      6867      6869      6881      6882
      6867      6869      6881      6883      6867      6869      6881      6884
      6868      6867      6869      6870      6868      6867      6869      6871
      6868      6867      6869      6881      6869      6881      6884      6885
      6869      6881      6884      6886      6869      6881      6884      6887
      6870      6869      6881      6882      6870      6869      6881      6883
      6870      6869      6881      6884      6871      6869      6881      6882
      6871      6869      6881      6883      6871      6869      6881      6884
      6872      6875      6876      6877      6872      6875      6876      6878
      6873      6872      6875      6876      6874      6872      6875      6876
      6875      6876      6878      6879      6875      6876      6878      6880
      6875      6876      6878      6928      6876      6878      6928      6929
      6876      6878      6928      6930      6876      6878      6928      6931
      6877      6876      6878      6879      6877      6876      6878      6880
      6877      6876      6878      6928      6878      6928      6931      6932
      6878      6928      6931      6933      6878      6928      6931      6934
      6879      6878      6928      6929      6879      6878      6928      6930
      6879      6878      6928      6931      6880      6878      6928      6929
      6880      6878      6928      6930      6880      6878      6928      6931
      6881      6884      6887      6888      6881      6884      6887      6889
      6881      6884      6887      6890      6882      6881      6884      6885
      6882      6881      6884      6886      6882      6881      6884      6887
      6883      6881      6884      6885      6883      6881      6884      6886
      6883      6881      6884      6887      6884      6887      6890      6891
      6884      6887      6890      6892      6884      6887      6890      6893
      6885      6884      6887      6888      6885      6884      6887      6889
      6885      6884      6887      6890      6886      6884      6887      6888
      6886      6884      6887      6889      6886      6884      6887      6890
      6887      6890      6893      6894      6887      6890      6893      6895
      6887      6890      6893      6896      6888      6887      6890      6891
      6888      6887      6890      6892      6888      6887      6890      6893
      6889      6887      6890      6891      6889      6887      6890      6892
      6889      6887      6890      6893      6890      6893      6896      6897
      6890      6893      6896      6898      6890      6893      6896      6899
      6891      6890      6893      6894      6891      6890      6893      6895
      6891      6890      6893      6896      6892      6890      6893      6894
      6892      6890      6893      6895      6892      6890      6893      6896
      6893      6896      6899      6900      6893      6896      6899      6901
      6894      6893      6896      6897      6894      6893      6896      6898
      6894      6893      6896      6899      6895      6893      6896      6897
      6895      6893      6896      6898      6895      6893      6896      6899
      6896      6899      6901      6902      6896      6899      6901      6903
      6897      6896      6899      6900      6897      6896      6899      6901
      6898      6896      6899      6900      6898      6896      6899      6901
      6899      6901      6903      6904      6899      6901      6903      6905
      6899      6901      6903      6906      6900      6899      6901      6902
      6900      6899      6901      6903      6901      6903      6906      6907
      6901      6903      6906      6908      6901      6903      6906      6909
      6902      6901      6903      6904      6902      6901      6903      6905
      6902      6901      6903      6906      6903      6906      6909      6910
      6903      6906      6909      6911      6903      6906      6909      6912
      6904      6903      6906      6907      6904      6903      6906      6908
      6904      6903      6906      6909      6905      6903      6906      6907
      6905      6903      6906      6908      6905      6903      6906      6909
      6906      6909      6912      6913      6906      6909      6912      6914
      6906      6909      6912      6915      6907      6906      6909      6910
      6907      6906      6909      6911      6907      6906      6909      6912
      6908      6906      6909      6910      6908      6906      6909      6911
      6908      6906      6909      6912      6909      6912      6915      6916
      6909      6912      6915      6917      6909      6912      6915      6918
      6910      6909      6912      6913      6910      6909      6912      6914
      6910      6909      6912      6915      6911      6909      6912      6913
      6911      6909      6912      6914      6911      6909      6912      6915
      6912      6915      6918      6919      6912      6915      6918      6920
      6912      6915      6918      6921      6913      6912      6915      6916
      6913      6912      6915      6917      6913      6912      6915      6918
      6914      6912      6915      6916      6914      6912      6915      6917
      6914      6912      6915      6918      6915      6918      6921      6922
      6915      6918      6921      6923      6915      6918      6921      6924
      6916      6915      6918      6919      6916      6915      6918      6920
      6916      6915      6918      6921      6917      6915      6918      6919
      6917      6915      6918      6920      6917      6915      6918      6921
      6918      6921      6924      6925      6918      6921      6924      6926
      6918      6921      6924      6927      6919      6918      6921      6922
      6919      6918      6921      6923      6919      6918      6921      6924
      6920      6918      6921      6922      6920      6918      6921      6923
      6920      6918      6921      6924      6922      6921      6924      6925
      6922      6921      6924      6926      6922      6921      6924      6927
      6923      6921      6924      6925      6923      6921      6924      6926
      6923      6921      6924      6927      6928      6931      6934      6935
      6928      6931      6934      6936      6928      6931      6934      6937
      6929      6928      6931      6932      6929      6928      6931      6933
      6929      6928      6931      6934      6930      6928      6931      6932
      6930      6928      6931      6933      6930      6928      6931      6934
      6931      6934      6937      6938      6931      6934      6937      6939
      6931      6934      6937      6940      6932      6931      6934      6935
      6932      6931      6934      6936      6932      6931      6934      6937
      6933      6931      6934      6935      6933      6931      6934      6936
      6933      6931      6934      6937      6934      6937      6940      6941
      6934      6937      6940      6942      6934      6937      6940      6943
      6935      6934      6937      6938      6935      6934      6937      6939
      6935      6934      6937      6940      6936      6934      6937      6938
      6936      6934      6937      6939      6936      6934      6937      6940
      6937      6940      6943      6944      6937      6940      6943      6945
      6937      6940      6943      6946      6938      6937      6940      6941
      6938      6937      6940      6942      6938      6937      6940      6943
      6939      6937      6940      6941      6939      6937      6940      6942
      6939      6937      6940      6943      6940      6943      6946      6947
      6940      6943      6946      6948      6940      6943      6946      6949
      6941      6940      6943      6944      6941      6940      6943      6945
      6941      6940      6943      6946      6942      6940      6943      6944
      6942      6940      6943      6945      6942      6940      6943      6946
      6943      6946      6949      6950      6943      6946      6949      6951
      6943      6946      6949      6952      6944      6943      6946      6947
      6944      6943      6946      6948      6944      6943      6946      6949
      6945      6943      6946      6947      6945      6943      6946      6948
      6945      6943      6946      6949      6946      6949      6952      6953
      6946      6949      6952      6954      6946      6949      6952      6955
      6947      6946      6949      6950      6947      6946      6949      6951
      6947      6946      6949      6952      6948      6946      6949      6950
      6948      6946      6949      6951      6948      6946      6949      6952
      6949      6952      6955      6956      6949      6952      6955      6957
      6949      6952      6955      6958      6950      6949      6952      6953
      6950      6949      6952      6954      6950      6949      6952      6955
      6951      6949      6952      6953      6951      6949      6952      6954
      6951      6949      6952      6955      6952      6955      6958      6959
      6952      6955      6958      6960      6952      6955      6958      6961
      6953      6952      6955      6956      6953      6952      6955      6957
      6953      6952      6955      6958      6954      6952      6955      6956
      6954      6952      6955      6957      6954      6952      6955      6958
      6955      6958      6961      6962      6955      6958      6961      6963
      6955      6958      6961      6964      6956      6955      6958      6959
      6956      6955      6958      6960      6956      6955      6958      6961
      6957      6955      6958      6959      6957      6955      6958      6960
      6957      6955      6958      6961      6958      6961      6964      6965
      6958      6961      6964      6966      6958      6961      6964      6967
      6959      6958      6961      6962      6959      6958      6961      6963
      6959      6958      6961      6964      6960      6958      6961      6962
      6960      6958      6961      6963      6960      6958      6961      6964
      6961      6964      6967      6968      6961      6964      6967      6969
      6961      6964      6967      6970      6962      6961      6964      6965
      6962      6961      6964      6966      6962      6961      6964      6967
      6963      6961      6964      6965      6963      6961      6964      6966
      6963      6961      6964      6967      6965      6964      6967      6968
      6965      6964      6967      6969      6965      6964      6967      6970
      6966      6964      6967      6968      6966      6964      6967      6969
      6966      6964      6967      6970     19581     19582     19597     19598
     19581     19582     19597     19599     19581     19582     19597     19603
     19582     19581     19585     19586     19582     19581     19585     19587
     19582     19581     19585     19588     19582     19581     19589     19590
     19582     19581     19589     19591     19582     19581     19589     19592
     19582     19581     19593     19594     19582     19581     19593     19595
     19582     19581     19593     19596     19582     19597     19603     19600
     19583     19582     19581     19585     19583     19582     19581     19589
     19583     19582     19581     19593     19583     19582     19597     19598
     19583     19582     19597     19599     19583     19582     19597     19603
     19584     19582     19581     19585     19584     19582     19581     19589
     19584     19582     19581     19593     19584     19582     19597     19598
     19584     19582     19597     19599     19584     19582     19597     19603
     19585     19581     19582     19597     19585     19581     19589     19590
     19585     19581     19589     19591     19585     19581     19589     19592
     19585     19581     19593     19594     19585     19581     19593     19595
     19585     19581     19593     19596     19586     19585     19581     19589
     19586     19585     19581     19593     19587     19585     19581     19589
     19587     19585     19581     19593     19588     19585     19581     19589
     19588     19585     19581     19593     19589     19581     19582     19597
     19589     19581     19593     19594     19589     19581     19593     19595
     19589     19581     19593     19596     19590     19589     19581     19593
     19591     19589     19581     19593     19592     19589     19581     19593
     19593     19581     19582     19597     19597     19603     19600     19601
     19597     19603     19600     19602     19597     19603     19600     19604
     19598     19597     19603     19600     19599     19597     19603     19600
     19600     19604     19605     19606     19600     19604     19605     19607
     19600     19604     19605     19608     19601     19600     19604     19605
     19602     19600     19604     19605     19603     19600     19604     19605
     19604     19605     19608     19609     19604     19605     19608     19610
     19604     19605     19608     19616     19605     19608     19610     19611
     19605     19608     19616     19617     19605     19608     19616     19618
     19605     19608     19616     19619     19606     19605     19608     19609
     19606     19605     19608     19610     19606     19605     19608     19616
     19607     19605     19608     19609     19607     19605     19608     19610
     19607     19605     19608     19616     19608     19610     19611     19612
     19608     19610     19611     19613     19608     19616     19619     19620
     19609     19608     19610     19611     19609     19608     19616     19617
     19609     19608     19616     19618     19609     19608     19616     19619
     19610     19608     19616     19617     19610     19608     19616     19618
     19610     19608     19616     19619     19610     19611     19613     19614
     19610     19611     19613     19615     19610     19611     19613     19625
     19611     19610     19608     19616     19611     19613     19625     19626
     19611     19613     19625     19627     19611     19613     19625     19628
     19612     19611     19613     19614     19612     19611     19613     19615
     19612     19611     19613     19625     19613     19625     19628     19629
     19613     19625     19628     19630     19613     19625     19628     19631
     19614     19613     19625     19626     19614     19613     19625     19627
     19614     19613     19625     19628     19615     19613     19625     19626
     19615     19613     19625     19627     19615     19613     19625     19628
     19616     19619     19620     19621     19616     19619     19620     19622
     19617     19616     19619     19620     19618     19616     19619     19620
     19619     19620     19622     19623     19619     19620     19622     19624
     19619     19620     19622     19672     19620     19622     19672     19673
     19620     19622     19672     19674     19620     19622     19672     19675
     19621     19620     19622     19623     19621     19620     19622     19624
     19621     19620     19622     19672     19622     19672     19675     19676
     19622     19672     19675     19677     19622     19672     19675     19678
     19623     19622     19672     19673     19623     19622     19672     19674
     19623     19622     19672     19675     19624     19622     19672     19673
     19624     19622     19672     19674     19624     19622     19672     19675
     19625     19628     19631     19632     19625     19628     19631     19633
     19625     19628     19631     19634     19626     19625     19628     19629
     19626     19625     19628     19630     19626     19625     19628     19631
     19627     19625     19628     19629     19627     19625     19628     19630
     19627     19625     19628     19631     19628     19631     19634     19635
     19628     19631     19634     19636     19628     19631     19634     19637
     19629     19628     19631     19632     19629     19628     19631     19633
     19629     19628     19631     19634     19630     19628     19631     19632
     19630     19628     19631     19633     19630     19628     19631     19634
     19631     19634     19637     19638     19631     19634     19637     19639
     19631     19634     19637     19640     19632     19631     19634     19635
     19632     19631     19634     19636     19632     19631     19634     19637
     19633     19631     19634     19635     19633     19631     19634     19636
     19633     19631     19634     19637     19634     19637     19640     19641
     19634     19637     19640     19642     19634     19637     19640     19643
     19635     19634     19637     19638     19635     19634     19637     19639
     19635     19634     19637     19640     19636     19634     19637     19638
     19636     19634     19637     19639     19636     19634     19637     19640
     19637     19640     19643     19644     19637     19640     19643     19645
     19638     19637     19640     19641     19638     19637     19640     19642
     19638     19637     19640     19643     19639     19637     19640     19641
     19639     19637     19640     19642     19639     19637     19640     19643
     19640     19643     19645     19646     19640     19643     19645     19647
     19641     19640     19643     19644     19641     19640     19643     19645
     19642     19640     19643     19644     19642     19640     19643     19645
     19643     19645     19647     19648     19643     19645     19647     19649
     19643     19645     19647     19650     19644     19643     19645     19646
     19644     19643     19645     19647     19645     19647     19650     19651
     19645     19647     19650     19652     19645     19647     19650     19653
     19646     19645     19647     19648     19646     19645     19647     19649
     19646     19645     19647     19650     19647     19650     19653     19654
     19647     19650     19653     19655     19647     19650     19653     19656
     19648     19647     19650     19651     19648     19647     19650     19652
     19648     19647     19650     19653     19649     19647     19650     19651
     19649     19647     19650     19652     19649     19647     19650     19653
     19650     19653     19656     19657     19650     19653     19656     19658
     19650     19653     19656     19659     19651     19650     19653     19654
     19651     19650     19653     19655     19651     19650     19653     19656
     19652     19650     19653     19654     19652     19650     19653     19655
     19652     19650     19653     19656     19653     19656     19659     19660
     19653     19656     19659     19661     19653     19656     19659     19662
     19654     19653     19656     19657     19654     19653     19656     19658
     19654     19653     19656     19659     19655     19653     19656     19657
     19655     19653     19656     19658     19655     19653     19656     19659
     19656     19659     19662     19663     19656     19659     19662     19664
     19656     19659     19662     19665     19657     19656     19659     19660
     19657     19656     19659     19661     19657     19656     19659     19662
     19658     19656     19659     19660     19658     19656     19659     19661
     19658     19656     19659     19662     19659     19662     19665     19666
     19659     19662     19665     19667     19659     19662     19665     19668
     19660     19659     19662     19663     19660     19659     19662     19664
     19660     19659     19662     19665     19661     19659     19662     19663
     19661     19659     19662     19664     19661     19659     19662     19665
     19662     19665     19668     19669     19662     19665     19668     19670
     19662     19665     19668     19671     19663     19662     19665     19666
     19663     19662     19665     19667     19663     19662     19665     19668
     19664     19662     19665     19666     19664     19662     19665     19667
     19664     19662     19665     19668     19666     19665     19668     19669
     19666     19665     19668     19670     19666     19665     19668     19671
     19667     19665     19668     19669     19667     19665     19668     19670
     19667     19665     19668     19671     19672     19675     19678     19679
     19672     19675     19678     19680     19672     19675     19678     19681
     19673     19672     19675     19676     19673     19672     19675     19677
     19673     19672     19675     19678     19674     19672     19675     19676
     19674     19672     19675     19677     19674     19672     19675     19678
     19675     19678     19681     19682     19675     19678     19681     19683
     19675     19678     19681     19684     19676     19675     19678     19679
     19676     19675     19678     19680     19676     19675     19678     19681
     19677     19675     19678     19679     19677     19675     19678     19680
     19677     19675     19678     19681     19678     19681     19684     19685
     19678     19681     19684     19686     19678     19681     19684     19687
     19679     19678     19681     19682     19679     19678     19681     19683
     19679     19678     19681     19684     19680     19678     19681     19682
     19680     19678     19681     19683     19680     19678     19681     19684
     19681     19684     19687     19688     19681     19684     19687     19689
     19681     19684     19687     19690     19682     19681     19684     19685
     19682     19681     19684     19686     19682     19681     19684     19687
     19683     19681     19684     19685     19683     19681     19684     19686
     19683     19681     19684     19687     19684     19687     19690     19691
     19684     19687     19690     19692     19684     19687     19690     19693
     19685     19684     19687     19688     19685     19684     19687     19689
     19685     19684     19687     19690     19686     19684     19687     19688
     19686     19684     19687     19689     19686     19684     19687     19690
     19687     19690     19693     19694     19687     19690     19693     19695
     19687     19690     19693     19696     19688     19687     19690     19691
     19688     19687     19690     19692     19688     19687     19690     19693
     19689     19687     19690     19691     19689     19687     19690     19692
     19689     19687     19690     19693     19690     19693     19696     19697
     19690     19693     19696     19698     19690     19693     19696     19699
     19691     19690     19693     19694     19691     19690     19693     19695
     19691     19690     19693     19696     19692     19690     19693     19694
     19692     19690     19693     19695     19692     19690     19693     19696
     19693     19696     19699     19700     19693     19696     19699     19701
     19693     19696     19699     19702     19694     19693     19696     19697
     19694     19693     19696     19698     19694     19693     19696     19699
     19695     19693     19696     19697     19695     19693     19696     19698
     19695     19693     19696     19699     19696     19699     19702     19703
     19696     19699     19702     19704     19696     19699     19702     19705
     19697     19696     19699     19700     19697     19696     19699     19701
     19697     19696     19699     19702     19698     19696     19699     19700
     19698     19696     19699     19701     19698     19696     19699     19702
     19699     19702     19705     19706     19699     19702     19705     19707
     19699     19702     19705     19708     19700     19699     19702     19703
     19700     19699     19702     19704     19700     19699     19702     19705
     19701     19699     19702     19703     19701     19699     19702     19704
     19701     19699     19702     19705     19702     19705     19708     19709
     19702     19705     19708     19710     19702     19705     19708     19711
     19703     19702     19705     19706     19703     19702     19705     19707
     19703     19702     19705     19708     19704     19702     19705     19706
     19704     19702     19705     19707     19704     19702     19705     19708
     19705     19708     19711     19712     19705     19708     19711     19713
     19705     19708     19711     19714     19706     19705     19708     19709
     19706     19705     19708     19710     19706     19705     19708     19711
     19707     19705     19708     19709     19707     19705     19708     19710
     19707     19705     19708     19711     19709     19708     19711     19712
     19709     19708     19711     19713     19709     19708     19711     19714
     19710     19708     19711     19712     19710     19708     19711     19713
     19710     19708     19711     19714     12154     12158     12160     12161
     12154     12158     12160     12162     12154     12158     12163     12164
     12154     12158     12163     12165     12154     12158     12163     12169
     12155     12154     12158     12159     12155     12154     12158     12160
     12155     12154     12158     12163     12156     12154     12158     12159
     12156     12154     12158     12160     12156     12154     12158     12163
     12157     12154     12158     12159     12157     12154     12158     12160
     12157     12154     12158     12163     12158     12163     12169     12166
     12159     12158     12160     12161     12159     12158     12160     12162
     12159     12158     12163     12164     12159     12158     12163     12165
     12159     12158     12163     12169     12160     12158     12163     12164
     12160     12158     12163     12165     12160     12158     12163     12169
     12161     12160     12158     12163     12162     12160     12158     12163
     12163     12169     12166     12167     12163     12169     12166     12168
     12163     12169     12166     12170     12164     12163     12169     12166
     12165     12163     12169     12166     12166     12170     12171     12172
     12166     12170     12171     12173     12166     12170     12171     12174
     12167     12166     12170     12171     12168     12166     12170     12171
     12169     12166     12170     12171     12170     12171     12174     12175
     12170     12171     12174     12176     12170     12171     12174     12182
     12171     12174     12176     12177     12171     12174     12182     12183
     12171     12174     12182     12184     12171     12174     12182     12185
     12172     12171     12174     12175     12172     12171     12174     12176
     12172     12171     12174     12182     12173     12171     12174     12175
     12173     12171     12174     12176     12173     12171     12174     12182
     12174     12176     12177     12178     12174     12176     12177     12179
     12174     12182     12185     12186     12175     12174     12176     12177
     12175     12174     12182     12183     12175     12174     12182     12184
     12175     12174     12182     12185     12176     12174     12182     12183
     12176     12174     12182     12184     12176     12174     12182     12185
     12176     12177     12179     12180     12176     12177     12179     12181
     12176     12177     12179     12191     12177     12176     12174     12182
     12177     12179     12191     12192     12177     12179     12191     12193
     12177     12179     12191     12194     12178     12177     12179     12180
     12178     12177     12179     12181     12178     12177     12179     12191
     12179     12191     12194     12195     12179     12191     12194     12196
     12179     12191     12194     12197     12180     12179     12191     12192
     12180     12179     12191     12193     12180     12179     12191     12194
     12181     12179     12191     12192     12181     12179     12191     12193
     12181     12179     12191     12194     12182     12185     12186     12187
     12182     12185     12186     12188     12183     12182     12185     12186
     12184     12182     12185     12186     12185     12186     12188     12189
     12185     12186     12188     12190     12185     12186     12188     12238
     12186     12188     12238     12239     12186     12188     12238     12240
     12186     12188     12238     12241     12187     12186     12188     12189
     12187     12186     12188     12190     12187     12186     12188     12238
     12188     12238     12241     12242     12188     12238     12241     12243
     12188     12238     12241     12244     12189     12188     12238     12239
     12189     12188     12238     12240     12189     12188     12238     12241
     12190     12188     12238     12239     12190     12188     12238     12240
     12190     12188     12238     12241     12191     12194     12197     12198
     12191     12194     12197     12199     12191     12194     12197     12200
     12192     12191     12194     12195     12192     12191     12194     12196
     12192     12191     12194     12197     12193     12191     12194     12195
     12193     12191     12194     12196     12193     12191     12194     12197
     12194     12197     12200     12201     12194     12197     12200     12202
     12194     12197     12200     12203     12195     12194     12197     12198
     12195     12194     12197     12199     12195     12194     12197     12200
     12196     12194     12197     12198     12196     12194     12197     12199
     12196     12194     12197     12200     12197     12200     12203     12204
     12197     12200     12203     12205     12197     12200     12203     12206
     12198     12197     12200     12201     12198     12197     12200     12202
     12198     12197     12200     12203     12199     12197     12200     12201
     12199     12197     12200     12202     12199     12197     12200     12203
     12200     12203     12206     12207     12200     12203     12206     12208
     12200     12203     12206     12209     12201     12200     12203     12204
     12201     12200     12203     12205     12201     12200     12203     12206
     12202     12200     12203     12204     12202     12200     12203     12205
     12202     12200     12203     12206     12203     12206     12209     12210
     12203     12206     12209     12211     12204     12203     12206     12207
     12204     12203     12206     12208     12204     12203     12206     12209
     12205     12203     12206     12207     12205     12203     12206     12208
     12205     12203     12206     12209     12206     12209     12211     12212
     12206     12209     12211     12213     12207     12206     12209     12210
     12207     12206     12209     12211     12208     12206     12209     12210
     12208     12206     12209     12211     12209     12211     12213     12214
     12209     12211     12213     12215     12209     12211     12213     12216
     12210     12209     12211     12212     12210     12209     12211     12213
     12211     12213     12216     12217     12211     12213     12216     12218
     12211     12213     12216     12219     12212     12211     12213     12214
     12212     12211     12213     12215     12212     12211     12213     12216
     12213     12216     12219     12220     12213     12216     12219     12221
     12213     12216     12219     12222     12214     12213     12216     12217
     12214     12213     12216     12218     12214     12213     12216     12219
     12215     12213     12216     12217     12215     12213     12216     12218
     12215     12213     12216     12219     12216     12219     12222     12223
     12216     12219     12222     12224     12216     12219     12222     12225
     12217     12216     12219     12220     12217     12216     12219     12221
     12217     12216     12219     12222     12218     12216     12219     12220
     12218     12216     12219     12221     12218     12216     12219     12222
     12219     12222     12225     12226     12219     12222     12225     12227
     12219     12222     12225     12228     12220     12219     12222     12223
     12220     12219     12222     12224     12220     12219     12222     12225
     12221     12219     12222     12223     12221     12219     12222     12224
     12221     12219     12222     12225     12222     12225     12228     12229
     12222     12225     12228     12230     12222     12225     12228     12231
     12223     12222     12225     12226     12223     12222     12225     12227
     12223     12222     12225     12228     12224     12222     12225     12226
     12224     12222     12225     12227     12224     12222     12225     12228
     12225     12228     12231     12232     12225     12228     12231     12233
     12225     12228     12231     12234     12226     12225     12228     12229
     12226     12225     12228     12230     12226     12225     12228     12231
     12227     12225     12228     12229     12227     12225     12228     12230
     12227     12225     12228     12231     12228     12231     12234     12235
     12228     12231     12234     12236     12228     12231     12234     12237
     12229     12228     12231     12232     12229     12228     12231     12233
     12229     12228     12231     12234     12230     12228     12231     12232
     12230     12228     12231     12233     12230     12228     12231     12234
     12232     12231     12234     12235     12232     12231     12234     12236
     12232     12231     12234     12237     12233     12231     12234     12235
     12233     12231     12234     12236     12233     12231     12234     12237
     12238     12241     12244     12245     12238     12241     12244     12246
     12238     12241     12244     12247     12239     12238     12241     12242
     12239     12238     12241     12243     12239     12238     12241     12244
     12240     12238     12241     12242     12240     12238     12241     12243
     12240     12238     12241     12244     12241     12244     12247     12248
     12241     12244     12247     12249     12241     12244     12247     12250
     12242     12241     12244     12245     12242     12241     12244     12246
     12242     12241     12244     12247     12243     12241     12244     12245
     12243     12241     12244     12246     12243     12241     12244     12247
     12244     12247     12250     12251     12244     12247     12250     12252
     12244     12247     12250     12253     12245     12244     12247     12248
     12245     12244     12247     12249     12245     12244     12247     12250
     12246     12244     12247     12248     12246     12244     12247     12249
     12246     12244     12247     12250     12247     12250     12253     12254
     12247     12250     12253     12255     12247     12250     12253     12256
     12248     12247     12250     12251     12248     12247     12250     12252
     12248     12247     12250     12253     12249     12247     12250     12251
     12249     12247     12250     12252     12249     12247     12250     12253
     12250     12253     12256     12257     12250     12253     12256     12258
     12250     12253     12256     12259     12251     12250     12253     12254
     12251     12250     12253     12255     12251     12250     12253     12256
     12252     12250     12253     12254     12252     12250     12253     12255
     12252     12250     12253     12256     12253     12256     12259     12260
     12253     12256     12259     12261     12253     12256     12259     12262
     12254     12253     12256     12257     12254     12253     12256     12258
     12254     12253     12256     12259     12255     12253     12256     12257
     12255     12253     12256     12258     12255     12253     12256     12259
     12256     12259     12262     12263     12256     12259     12262     12264
     12256     12259     12262     12265     12257     12256     12259     12260
     12257     12256     12259     12261     12257     12256     12259     12262
     12258     12256     12259     12260     12258     12256     12259     12261
     12258     12256     12259     12262     12259     12262     12265     12266
     12259     12262     12265     12267     12259     12262     12265     12268
     12260     12259     12262     12263     12260     12259     12262     12264
     12260     12259     12262     12265     12261     12259     12262     12263
     12261     12259     12262     12264     12261     12259     12262     12265
     12262     12265     12268     12269     12262     12265     12268     12270
     12262     12265     12268     12271     12263     12262     12265     12266
     12263     12262     12265     12267     12263     12262     12265     12268
     12264     12262     12265     12266     12264     12262     12265     12267
     12264     12262     12265     12268     12265     12268     12271     12272
     12265     12268     12271     12273     12265     12268     12271     12274
     12266     12265     12268     12269     12266     12265     12268     12270
     12266     12265     12268     12271     12267     12265     12268     12269
     12267     12265     12268     12270     12267     12265     12268     12271
     12268     12271     12274     12275     12268     12271     12274     12276
     12268     12271     12274     12277     12269     12268     12271     12272
     12269     12268     12271     12273     12269     12268     12271     12274
     12270     12268     12271     12272     12270     12268     12271     12273
     12270     12268     12271     12274     12271     12274     12277     12278
     12271     12274     12277     12279     12271     12274     12277     12280
     12272     12271     12274     12275     12272     12271     12274     12276
     12272     12271     12274     12277     12273     12271     12274     12275
     12273     12271     12274     12276     12273     12271     12274     12277
     12275     12274     12277     12278     12275     12274     12277     12279
     12275     12274     12277     12280     12276     12274     12277     12278
     12276     12274     12277     12279     12276     12274     12277     12280
     12281     12285     12287     12288     12281     12285     12287     12289
     12281     12285     12290     12291     12281     12285     12290     12292
     12281     12285     12290     12296     12282     12281     12285     12286
     12282     12281     12285     12287     12282     12281     12285     12290
     12283     12281     12285     12286     12283     12281     12285     12287
     12283     12281     12285     12290     12284     12281     12285     12286
     12284     12281     12285     12287     12284     12281     12285     12290
     12285     12290     12296     12293     12286     12285     12287     12288
     12286     12285     12287     12289     12286     12285     12290     12291
     12286     12285     12290     12292     12286     12285     12290     12296
     12287     12285     12290     12291     12287     12285     12290     12292
     12287     12285     12290     12296     12288     12287     12285     12290
     12289     12287     12285     12290     12290     12296     12293     12294
     12290     12296     12293     12295     12290     12296     12293     12297
     12291     12290     12296     12293     12292     12290     12296     12293
     12293     12297     12298     12299     12293     12297     12298     12300
     12293     12297     12298     12301     12294     12293     12297     12298
     12295     12293     12297     12298     12296     12293     12297     12298
     12297     12298     12301     12302     12297     12298     12301     12303
     12297     12298     12301     12309     12298     12301     12303     12304
     12298     12301     12309     12310     12298     12301     12309     12311
     12298     12301     12309     12312     12299     12298     12301     12302
     12299     12298     12301     12303     12299     12298     12301     12309
     12300     12298     12301     12302     12300     12298     12301     12303
     12300     12298     12301     12309     12301     12303     12304     12305
     12301     12303     12304     12306     12301     12309     12312     12313
     12302     12301     12303     12304     12302     12301     12309     12310
     12302     12301     12309     12311     12302     12301     12309     12312
     12303     12301     12309     12310     12303     12301     12309     12311
     12303     12301     12309     12312     12303     12304     12306     12307
     12303     12304     12306     12308     12303     12304     12306     12318
     12304     12303     12301     12309     12304     12306     12318     12319
     12304     12306     12318     12320     12304     12306     12318     12321
     12305     12304     12306     12307     12305     12304     12306     12308
     12305     12304     12306     12318     12306     12318     12321     12322
     12306     12318     12321     12323     12306     12318     12321     12324
     12307     12306     12318     12319     12307     12306     12318     12320
     12307     12306     12318     12321     12308     12306     12318     12319
     12308     12306     12318     12320     12308     12306     12318     12321
     12309     12312     12313     12314     12309     12312     12313     12315
     12310     12309     12312     12313     12311     12309     12312     12313
     12312     12313     12315     12316     12312     12313     12315     12317
     12312     12313     12315     12365     12313     12315     12365     12366
     12313     12315     12365     12367     12313     12315     12365     12368
     12314     12313     12315     12316     12314     12313     12315     12317
     12314     12313     12315     12365     12315     12365     12368     12369
     12315     12365     12368     12370     12315     12365     12368     12371
     12316     12315     12365     12366     12316     12315     12365     12367
     12316     12315     12365     12368     12317     12315     12365     12366
     12317     12315     12365     12367     12317     12315     12365     12368
     12318     12321     12324     12325     12318     12321     12324     12326
     12318     12321     12324     12327     12319     12318     12321     12322
     12319     12318     12321     12323     12319     12318     12321     12324
     12320     12318     12321     12322     12320     12318     12321     12323
     12320     12318     12321     12324     12321     12324     12327     12328
     12321     12324     12327     12329     12321     12324     12327     12330
     12322     12321     12324     12325     12322     12321     12324     12326
     12322     12321     12324     12327     12323     12321     12324     12325
     12323     12321     12324     12326     12323     12321     12324     12327
     12324     12327     12330     12331     12324     12327     12330     12332
     12324     12327     12330     12333     12325     12324     12327     12328
     12325     12324     12327     12329     12325     12324     12327     12330
     12326     12324     12327     12328     12326     12324     12327     12329
     12326     12324     12327     12330     12327     12330     12333     12334
     12327     12330     12333     12335     12327     12330     12333     12336
     12328     12327     12330     12331     12328     12327     12330     12332
     12328     12327     12330     12333     12329     12327     12330     12331
     12329     12327     12330     12332     12329     12327     12330     12333
     12330     12333     12336     12337     12330     12333     12336     12338
     12331     12330     12333     12334     12331     12330     12333     12335
     12331     12330     12333     12336     12332     12330     12333     12334
     12332     12330     12333     12335     12332     12330     12333     12336
     12333     12336     12338     12339     12333     12336     12338     12340
     12334     12333     12336     12337     12334     12333     12336     12338
     12335     12333     12336     12337     12335     12333     12336     12338
     12336     12338     12340     12341     12336     12338     12340     12342
     12336     12338     12340     12343     12337     12336     12338     12339
     12337     12336     12338     12340     12338     12340     12343     12344
     12338     12340     12343     12345     12338     12340     12343     12346
     12339     12338     12340     12341     12339     12338     12340     12342
     12339     12338     12340     12343     12340     12343     12346     12347
     12340     12343     12346     12348     12340     12343     12346     12349
     12341     12340     12343     12344     12341     12340     12343     12345
     12341     12340     12343     12346     12342     12340     12343     12344
     12342     12340     12343     12345     12342     12340     12343     12346
     12343     12346     12349     12350     12343     12346     12349     12351
     12343     12346     12349     12352     12344     12343     12346     12347
     12344     12343     12346     12348     12344     12343     12346     12349
     12345     12343     12346     12347     12345     12343     12346     12348
     12345     12343     12346     12349     12346     12349     12352     12353
     12346     12349     12352     12354     12346     12349     12352     12355
     12347     12346     12349     12350     12347     12346     12349     12351
     12347     12346     12349     12352     12348     12346     12349     12350
     12348     12346     12349     12351     12348     12346     12349     12352
     12349     12352     12355     12356     12349     12352     12355     12357
     12349     12352     12355     12358     12350     12349     12352     12353
     12350     12349     12352     12354     12350     12349     12352     12355
     12351     12349     12352     12353     12351     12349     12352     12354
     12351     12349     12352     12355     12352     12355     12358     12359
     12352     12355     12358     12360     12352     12355     12358     12361
     12353     12352     12355     12356     12353     12352     12355     12357
     12353     12352     12355     12358     12354     12352     12355     12356
     12354     12352     12355     12357     12354     12352     12355     12358
     12355     12358     12361     12362     12355     12358     12361     12363
     12355     12358     12361     12364     12356     12355     12358     12359
     12356     12355     12358     12360     12356     12355     12358     12361
     12357     12355     12358     12359     12357     12355     12358     12360
     12357     12355     12358     12361     12359     12358     12361     12362
     12359     12358     12361     12363     12359     12358     12361     12364
     12360     12358     12361     12362     12360     12358     12361     12363
     12360     12358     12361     12364     12365     12368     12371     12372
     12365     12368     12371     12373     12365     12368     12371     12374
     12366     12365     12368     12369     12366     12365     12368     12370
     12366     12365     12368     12371     12367     12365     12368     12369
     12367     12365     12368     12370     12367     12365     12368     12371
     12368     12371     12374     12375     12368     12371     12374     12376
     12368     12371     12374     12377     12369     12368     12371     12372
     12369     12368     12371     12373     12369     12368     12371     12374
     12370     12368     12371     12372     12370     12368     12371     12373
     12370     12368     12371     12374     12371     12374     12377     12378
     12371     12374     12377     12379     12371     12374     12377     12380
     12372     12371     12374     12375     12372     12371     12374     12376
     12372     12371     12374     12377     12373     12371     12374     12375
     12373     12371     12374     12376     12373     12371     12374     12377
     12374     12377     12380     12381     12374     12377     12380     12382
     12374     12377     12380     12383     12375     12374     12377     12378
     12375     12374     12377     12379     12375     12374     12377     12380
     12376     12374     12377     12378     12376     12374     12377     12379
     12376     12374     12377     12380     12377     12380     12383     12384
     12377     12380     12383     12385     12377     12380     12383     12386
     12378     12377     12380     12381     12378     12377     12380     12382
     12378     12377     12380     12383     12379     12377     12380     12381
     12379     12377     12380     12382     12379     12377     12380     12383
     12380     12383     12386     12387     12380     12383     12386     12388
     12380     12383     12386     12389     12381     12380     12383     12384
     12381     12380     12383     12385     12381     12380     12383     12386
     12382     12380     12383     12384     12382     12380     12383     12385
     12382     12380     12383     12386     12383     12386     12389     12390
     12383     12386     12389     12391     12383     12386     12389     12392
     12384     12383     12386     12387     12384     12383     12386     12388
     12384     12383     12386     12389     12385     12383     12386     12387
     12385     12383     12386     12388     12385     12383     12386     12389
     12386     12389     12392     12393     12386     12389     12392     12394
     12386     12389     12392     12395     12387     12386     12389     12390
     12387     12386     12389     12391     12387     12386     12389     12392
     12388     12386     12389     12390     12388     12386     12389     12391
     12388     12386     12389     12392     12389     12392     12395     12396
     12389     12392     12395     12397     12389     12392     12395     12398
     12390     12389     12392     12393     12390     12389     12392     12394
     12390     12389     12392     12395     12391     12389     12392     12393
     12391     12389     12392     12394     12391     12389     12392     12395
     12392     12395     12398     12399     12392     12395     12398     12400
     12392     12395     12398     12401     12393     12392     12395     12396
     12393     12392     12395     12397     12393     12392     12395     12398
     12394     12392     12395     12396     12394     12392     12395     12397
     12394     12392     12395     12398     12395     12398     12401     12402
     12395     12398     12401     12403     12395     12398     12401     12404
     12396     12395     12398     12399     12396     12395     12398     12400
     12396     12395     12398     12401     12397     12395     12398     12399
     12397     12395     12398     12400     12397     12395     12398     12401
     12398     12401     12404     12405     12398     12401     12404     12406
     12398     12401     12404     12407     12399     12398     12401     12402
     12399     12398     12401     12403     12399     12398     12401     12404
     12400     12398     12401     12402     12400     12398     12401     12403
     12400     12398     12401     12404     12402     12401     12404     12405
     12402     12401     12404     12406     12402     12401     12404     12407
     12403     12401     12404     12405     12403     12401     12404     12406
     12403     12401     12404     12407      1925      1929      1932      1933
      1925      1929      1932      1963      1925      1971      1968      1963
      1925      1971      1968      1969      1925      1971      1968      1970
      1926      1925      1927      1928      1926      1925      1929      1930
      1926      1925      1929      1931      1926      1925      1929      1932
      1926      1925      1971      1968      1926      1925      1971      1972
      1926      1925      1971      1973      1927      1925      1929      1930
      1927      1925      1929      1931      1927      1925      1929      1932
      1927      1925      1971      1968      1927      1925      1971      1972
      1927      1925      1971      1973      1928      1927      1925      1929
      1928      1927      1925      1971      1929      1925      1971      1968
      1929      1925      1971      1972      1929      1925      1971      1973
      1929      1932      1933      1934      1929      1932      1933      1935
      1929      1932      1963      1961      1929      1932      1963      1964
      1929      1932      1963      1968      1930      1929      1925      1971
      1930      1929      1932      1933      1930      1929      1932      1963
      1931      1929      1925      1971      1931      1929      1932      1933
      1931      1929      1932      1963      1932      1929      1925      1971
      1932      1933      1935      1936      1932      1933      1935      1937
      1932      1933      1935      1938      1932      1963      1961      1938
      1932      1963      1961      1958      1932      1963      1961      1962
      1932      1963      1964      1965      1932      1963      1964      1966
      1932      1963      1964      1967      1932      1963      1968      1969
      1932      1963      1968      1970      1932      1963      1968      1971
      1933      1932      1963      1961      1933      1932      1963      1964
      1933      1932      1963      1968      1933      1935      1938      1939
      1933      1935      1938      1940      1933      1935      1938      1961
      1934      1933      1932      1963      1934      1933      1935      1936
      1934      1933      1935      1937      1934      1933      1935      1938
      1935      1933      1932      1963      1935      1938      1940      1941
      1935      1938      1940      1942      1935      1938      1940      1950
      1935      1938      1961      1958      1935      1938      1961      1962
      1935      1938      1961      1963      1936      1935      1938      1939
      1936      1935      1938      1940      1936      1935      1938      1961
      1937      1935      1938      1939      1937      1935      1938      1940
      1937      1935      1938      1961      1938      1940      1942      1943
      1938      1940      1942      1944      1938      1940      1942      1945
      1938      1940      1950      1948      1938      1940      1950      1951
      1938      1940      1950      1955      1938      1961      1958      1955
      1938      1961      1958      1959      1938      1961      1958      1960
      1938      1961      1963      1964      1938      1961      1963      1968
      1939      1938      1940      1941      1939      1938      1940      1942
      1939      1938      1940      1950      1939      1938      1961      1958
      1939      1938      1961      1962      1939      1938      1961      1963
      1940      1938      1961      1958      1940      1938      1961      1962
      1940      1938      1961      1963      1940      1942      1945      1946
      1940      1942      1945      1947      1940      1942      1945      1948
      1940      1950      1948      1945      1940      1950      1948      1949
      1940      1950      1948      1974      1940      1950      1951      1952
      1940      1950      1951      1953      1940      1950      1951      1954
      1940      1950      1955      1956      1940      1950      1955      1957
      1940      1950      1955      1958      1941      1940      1938      1961
      1941      1940      1942      1943      1941      1940      1942      1944
      1941      1940      1942      1945      1941      1940      1950      1948
      1941      1940      1950      1951      1941      1940      1950      1955
      1942      1940      1938      1961      1942      1940      1950      1948
      1942      1940      1950      1951      1942      1940      1950      1955
      1942      1945      1948      1949      1942      1945      1948      1950
      1942      1945      1948      1974      1943      1942      1940      1950
      1943      1942      1945      1946      1943      1942      1945      1947
      1943      1942      1945      1948      1944      1942      1940      1950
      1944      1942      1945      1946      1944      1942      1945      1947
      1944      1942      1945      1948      1945      1942      1940      1950
      1945      1948      1950      1951      1945      1948      1950      1955
      1945      1948      1974      1975      1945      1948      1974      1976
      1945      1948      1974      1980      1946      1945      1948      1949
      1946      1945      1948      1950      1946      1945      1948      1974
      1947      1945      1948      1949      1947      1945      1948      1950
      1947      1945      1948      1974      1948      1950      1951      1952
      1948      1950      1951      1953      1948      1950      1951      1954
      1948      1950      1955      1956      1948      1950      1955      1957
      1948      1950      1955      1958      1948      1974      1976      1977
      1948      1974      1976      1978      1948      1974      1976      1979
      1948      1974      1980      1981      1948      1974      1980      1982
      1948      1974      1980      1983      1949      1948      1950      1951
      1949      1948      1950      1955      1949      1948      1974      1975
      1949      1948      1974      1976      1949      1948      1974      1980
      1950      1940      1938      1961      1950      1948      1974      1975
      1950      1948      1974      1976      1950      1948      1974      1980
      1950      1955      1958      1959      1950      1955      1958      1960
      1950      1955      1958      1961      1951      1950      1948      1974
      1951      1950      1955      1956      1951      1950      1955      1957
      1951      1950      1955      1958      1952      1951      1950      1955
      1953      1951      1950      1955      1954      1951      1950      1955
      1955      1950      1948      1974      1955      1958      1961      1962
      1955      1958      1961      1963      1956      1955      1958      1959
      1956      1955      1958      1960      1956      1955      1958      1961
      1957      1955      1958      1959      1957      1955      1958      1960
      1957      1955      1958      1961      1958      1961      1963      1964
      1958      1961      1963      1968      1959      1958      1961      1962
      1959      1958      1961      1963      1960      1958      1961      1962
      1960      1958      1961      1963      1961      1963      1964      1965
      1961      1963      1964      1966      1961      1963      1964      1967
      1961      1963      1968      1969      1961      1963      1968      1970
      1961      1963      1968      1971      1962      1961      1963      1964
      1962      1961      1963      1968      1963      1968      1971      1972
      1963      1968      1971      1973      1964      1963      1968      1969
      1964      1963      1968      1970      1964      1963      1968      1971
      1965      1964      1963      1968      1966      1964      1963      1968
      1967      1964      1963      1968      1969      1968      1971      1972
      1969      1968      1971      1973      1970      1968      1971      1972
      1970      1968      1971      1973      1974      1980      1983      1984
      1974      1980      1983      1985      1974      1980      1983      1986
      1975      1974      1976      1977      1975      1974      1976      1978
      1975      1974      1976      1979      1975      1974      1980      1981
      1975      1974      1980      1982      1975      1974      1980      1983
      1976      1974      1980      1981      1976      1974      1980      1982
      1976      1974      1980      1983      1977      1976      1974      1980
      1978      1976      1974      1980      1979      1976      1974      1980
      1980      1983      1986      1987      1980      1983      1986      1988
      1980      1983      1986      1989      1981      1980      1983      1984
      1981      1980      1983      1985      1981      1980      1983      1986
      1982      1980      1983      1984      1982      1980      1983      1985
      1982      1980      1983      1986      1983      1986      1989      1990
      1983      1986      1989      1991      1983      1986      1989      1995
      1984      1983      1986      1987      1984      1983      1986      1988
      1984      1983      1986      1989      1985      1983      1986      1987
      1985      1983      1986      1988      1985      1983      1986      1989
      1986      1989      1991      1992      1986      1989      1991      1993
      1986      1989      1991      1994      1986      1989      1995      1996
      1986      1989      1995      1997      1986      1989      1995      1998
      1987      1986      1989      1990      1987      1986      1989      1991
      1987      1986      1989      1995      1988      1986      1989      1990
      1988      1986      1989      1991      1988      1986      1989      1995
      1990      1989      1991      1992      1990      1989      1991      1993
      1990      1989      1991      1994      1990      1989      1995      1996
      1990      1989      1995      1997      1990      1989      1995      1998
      1991      1989      1995      1996      1991      1989      1995      1997
      1991      1989      1995      1998      1992      1991      1989      1995
      1993      1991      1989      1995      1994      1991      1989      1995
     19715     19716     19731     19732     19715     19716     19731     19733
     19715     19716     19731     19737     19716     19715     19719     19720
     19716     19715     19719     19721     19716     19715     19719     19722
     19716     19715     19723     19724     19716     19715     19723     19725
     19716     19715     19723     19726     19716     19715     19727     19728
     19716     19715     19727     19729     19716     19715     19727     19730
     19716     19731     19737     19734     19717     19716     19715     19719
     19717     19716     19715     19723     19717     19716     19715     19727
     19717     19716     19731     19732     19717     19716     19731     19733
     19717     19716     19731     19737     19718     19716     19715     19719
     19718     19716     19715     19723     19718     19716     19715     19727
     19718     19716     19731     19732     19718     19716     19731     19733
     19718     19716     19731     19737     19719     19715     19716     19731
     19719     19715     19723     19724     19719     19715     19723     19725
     19719     19715     19723     19726     19719     19715     19727     19728
     19719     19715     19727     19729     19719     19715     19727     19730
     19720     19719     19715     19723     19720     19719     19715     19727
     19721     19719     19715     19723     19721     19719     19715     19727
     19722     19719     19715     19723     19722     19719     19715     19727
     19723     19715     19716     19731     19723     19715     19727     19728
     19723     19715     19727     19729     19723     19715     19727     19730
     19724     19723     19715     19727     19725     19723     19715     19727
     19726     19723     19715     19727     19727     19715     19716     19731
     19731     19737     19734     19735     19731     19737     19734     19736
     19731     19737     19734     19738     19732     19731     19737     19734
     19733     19731     19737     19734     19734     19738     19739     19740
     19734     19738     19739     19741     19734     19738     19739     19742
     19735     19734     19738     19739     19736     19734     19738     19739
     19737     19734     19738     19739     19738     19739     19742     19743
     19738     19739     19742     19744     19738     19739     19742     19750
     19739     19742     19744     19745     19739     19742     19750     19751
     19739     19742     19750     19752     19739     19742     19750     19753
     19740     19739     19742     19743     19740     19739     19742     19744
     19740     19739     19742     19750     19741     19739     19742     19743
     19741     19739     19742     19744     19741     19739     19742     19750
     19742     19744     19745     19746     19742     19744     19745     19747
     19742     19750     19753     19754     19743     19742     19744     19745
     19743     19742     19750     19751     19743     19742     19750     19752
     19743     19742     19750     19753     19744     19742     19750     19751
     19744     19742     19750     19752     19744     19742     19750     19753
     19744     19745     19747     19748     19744     19745     19747     19749
     19744     19745     19747     19759     19745     19744     19742     19750
     19745     19747     19759     19760     19745     19747     19759     19761
     19745     19747     19759     19762     19746     19745     19747     19748
     19746     19745     19747     19749     19746     19745     19747     19759
     19747     19759     19762     19763     19747     19759     19762     19764
     19747     19759     19762     19765     19748     19747     19759     19760
     19748     19747     19759     19761     19748     19747     19759     19762
     19749     19747     19759     19760     19749     19747     19759     19761
     19749     19747     19759     19762     19750     19753     19754     19755
     19750     19753     19754     19756     19751     19750     19753     19754
     19752     19750     19753     19754     19753     19754     19756     19757
     19753     19754     19756     19758     19753     19754     19756     19806
     19754     19756     19806     19807     19754     19756     19806     19808
     19754     19756     19806     19809     19755     19754     19756     19757
     19755     19754     19756     19758     19755     19754     19756     19806
     19756     19806     19809     19810     19756     19806     19809     19811
     19756     19806     19809     19812     19757     19756     19806     19807
     19757     19756     19806     19808     19757     19756     19806     19809
     19758     19756     19806     19807     19758     19756     19806     19808
     19758     19756     19806     19809     19759     19762     19765     19766
     19759     19762     19765     19767     19759     19762     19765     19768
     19760     19759     19762     19763     19760     19759     19762     19764
     19760     19759     19762     19765     19761     19759     19762     19763
     19761     19759     19762     19764     19761     19759     19762     19765
     19762     19765     19768     19769     19762     19765     19768     19770
     19762     19765     19768     19771     19763     19762     19765     19766
     19763     19762     19765     19767     19763     19762     19765     19768
     19764     19762     19765     19766     19764     19762     19765     19767
     19764     19762     19765     19768     19765     19768     19771     19772
     19765     19768     19771     19773     19765     19768     19771     19774
     19766     19765     19768     19769     19766     19765     19768     19770
     19766     19765     19768     19771     19767     19765     19768     19769
     19767     19765     19768     19770     19767     19765     19768     19771
     19768     19771     19774     19775     19768     19771     19774     19776
     19768     19771     19774     19777     19769     19768     19771     19772
     19769     19768     19771     19773     19769     19768     19771     19774
     19770     19768     19771     19772     19770     19768     19771     19773
     19770     19768     19771     19774     19771     19774     19777     19778
     19771     19774     19777     19779     19772     19771     19774     19775
     19772     19771     19774     19776     19772     19771     19774     19777
     19773     19771     19774     19775     19773     19771     19774     19776
     19773     19771     19774     19777     19774     19777     19779     19780
     19774     19777     19779     19781     19775     19774     19777     19778
     19775     19774     19777     19779     19776     19774     19777     19778
     19776     19774     19777     19779     19777     19779     19781     19782
     19777     19779     19781     19783     19777     19779     19781     19784
     19778     19777     19779     19780     19778     19777     19779     19781
     19779     19781     19784     19785     19779     19781     19784     19786
     19779     19781     19784     19787     19780     19779     19781     19782
     19780     19779     19781     19783     19780     19779     19781     19784
     19781     19784     19787     19788     19781     19784     19787     19789
     19781     19784     19787     19790     19782     19781     19784     19785
     19782     19781     19784     19786     19782     19781     19784     19787
     19783     19781     19784     19785     19783     19781     19784     19786
     19783     19781     19784     19787     19784     19787     19790     19791
     19784     19787     19790     19792     19784     19787     19790     19793
     19785     19784     19787     19788     19785     19784     19787     19789
     19785     19784     19787     19790     19786     19784     19787     19788
     19786     19784     19787     19789     19786     19784     19787     19790
     19787     19790     19793     19794     19787     19790     19793     19795
     19787     19790     19793     19796     19788     19787     19790     19791
     19788     19787     19790     19792     19788     19787     19790     19793
     19789     19787     19790     19791     19789     19787     19790     19792
     19789     19787     19790     19793     19790     19793     19796     19797
     19790     19793     19796     19798     19790     19793     19796     19799
     19791     19790     19793     19794     19791     19790     19793     19795
     19791     19790     19793     19796     19792     19790     19793     19794
     19792     19790     19793     19795     19792     19790     19793     19796
     19793     19796     19799     19800     19793     19796     19799     19801
     19793     19796     19799     19802     19794     19793     19796     19797
     19794     19793     19796     19798     19794     19793     19796     19799
     19795     19793     19796     19797     19795     19793     19796     19798
     19795     19793     19796     19799     19796     19799     19802     19803
     19796     19799     19802     19804     19796     19799     19802     19805
     19797     19796     19799     19800     19797     19796     19799     19801
     19797     19796     19799     19802     19798     19796     19799     19800
     19798     19796     19799     19801     19798     19796     19799     19802
     19800     19799     19802     19803     19800     19799     19802     19804
     19800     19799     19802     19805     19801     19799     19802     19803
     19801     19799     19802     19804     19801     19799     19802     19805
     19806     19809     19812     19813     19806     19809     19812     19814
     19806     19809     19812     19815     19807     19806     19809     19810
     19807     19806     19809     19811     19807     19806     19809     19812
     19808     19806     19809     19810     19808     19806     19809     19811
     19808     19806     19809     19812     19809     19812     19815     19816
     19809     19812     19815     19817     19809     19812     19815     19818
     19810     19809     19812     19813     19810     19809     19812     19814
     19810     19809     19812     19815     19811     19809     19812     19813
     19811     19809     19812     19814     19811     19809     19812     19815
     19812     19815     19818     19819     19812     19815     19818     19820
     19812     19815     19818     19821     19813     19812     19815     19816
     19813     19812     19815     19817     19813     19812     19815     19818
     19814     19812     19815     19816     19814     19812     19815     19817
     19814     19812     19815     19818     19815     19818     19821     19822
     19815     19818     19821     19823     19815     19818     19821     19824
     19816     19815     19818     19819     19816     19815     19818     19820
     19816     19815     19818     19821     19817     19815     19818     19819
     19817     19815     19818     19820     19817     19815     19818     19821
     19818     19821     19824     19825     19818     19821     19824     19826
     19818     19821     19824     19827     19819     19818     19821     19822
     19819     19818     19821     19823     19819     19818     19821     19824
     19820     19818     19821     19822     19820     19818     19821     19823
     19820     19818     19821     19824     19821     19824     19827     19828
     19821     19824     19827     19829     19821     19824     19827     19830
     19822     19821     19824     19825     19822     19821     19824     19826
     19822     19821     19824     19827     19823     19821     19824     19825
     19823     19821     19824     19826     19823     19821     19824     19827
     19824     19827     19830     19831     19824     19827     19830     19832
     19824     19827     19830     19833     19825     19824     19827     19828
     19825     19824     19827     19829     19825     19824     19827     19830
     19826     19824     19827     19828     19826     19824     19827     19829
     19826     19824     19827     19830     19827     19830     19833     19834
     19827     19830     19833     19835     19827     19830     19833     19836
     19828     19827     19830     19831     19828     19827     19830     19832
     19828     19827     19830     19833     19829     19827     19830     19831
     19829     19827     19830     19832     19829     19827     19830     19833
     19830     19833     19836     19837     19830     19833     19836     19838
     19830     19833     19836     19839     19831     19830     19833     19834
     19831     19830     19833     19835     19831     19830     19833     19836
     19832     19830     19833     19834     19832     19830     19833     19835
     19832     19830     19833     19836     19833     19836     19839     19840
     19833     19836     19839     19841     19833     19836     19839     19842
     19834     19833     19836     19837     19834     19833     19836     19838
     19834     19833     19836     19839     19835     19833     19836     19837
     19835     19833     19836     19838     19835     19833     19836     19839
     19836     19839     19842     19843     19836     19839     19842     19844
     19836     19839     19842     19845     19837     19836     19839     19840
     19837     19836     19839     19841     19837     19836     19839     19842
     19838     19836     19839     19840     19838     19836     19839     19841
     19838     19836     19839     19842     19839     19842     19845     19846
     19839     19842     19845     19847     19839     19842     19845     19848
     19840     19839     19842     19843     19840     19839     19842     19844
     19840     19839     19842     19845     19841     19839     19842     19843
     19841     19839     19842     19844     19841     19839     19842     19845
     19843     19842     19845     19846     19843     19842     19845     19847
     19843     19842     19845     19848     19844     19842     19845     19846
     19844     19842     19845     19847     19844     19842     19845     19848
     19849     19850     19865     19866     19849     19850     19865     19867
     19849     19850     19865     19871     19850     19849     19853     19854
     19850     19849     19853     19855     19850     19849     19853     19856
     19850     19849     19857     19858     19850     19849     19857     19859
     19850     19849     19857     19860     19850     19849     19861     19862
     19850     19849     19861     19863     19850     19849     19861     19864
     19850     19865     19871     19868     19851     19850     19849     19853
     19851     19850     19849     19857     19851     19850     19849     19861
     19851     19850     19865     19866     19851     19850     19865     19867
     19851     19850     19865     19871     19852     19850     19849     19853
     19852     19850     19849     19857     19852     19850     19849     19861
     19852     19850     19865     19866     19852     19850     19865     19867
     19852     19850     19865     19871     19853     19849     19850     19865
     19853     19849     19857     19858     19853     19849     19857     19859
     19853     19849     19857     19860     19853     19849     19861     19862
     19853     19849     19861     19863     19853     19849     19861     19864
     19854     19853     19849     19857     19854     19853     19849     19861
     19855     19853     19849     19857     19855     19853     19849     19861
     19856     19853     19849     19857     19856     19853     19849     19861
     19857     19849     19850     19865     19857     19849     19861     19862
     19857     19849     19861     19863     19857     19849     19861     19864
     19858     19857     19849     19861     19859     19857     19849     19861
     19860     19857     19849     19861     19861     19849     19850     19865
     19865     19871     19868     19869     19865     19871     19868     19870
     19865     19871     19868     19872     19866     19865     19871     19868
     19867     19865     19871     19868     19868     19872     19873     19874
     19868     19872     19873     19875     19868     19872     19873     19876
     19869     19868     19872     19873     19870     19868     19872     19873
     19871     19868     19872     19873     19872     19873     19876     19877
     19872     19873     19876     19878     19872     19873     19876     19884
     19873     19876     19878     19879     19873     19876     19884     19885
     19873     19876     19884     19886     19873     19876     19884     19887
     19874     19873     19876     19877     19874     19873     19876     19878
     19874     19873     19876     19884     19875     19873     19876     19877
     19875     19873     19876     19878     19875     19873     19876     19884
     19876     19878     19879     19880     19876     19878     19879     19881
     19876     19884     19887     19888     19877     19876     19878     19879
     19877     19876     19884     19885     19877     19876     19884     19886
     19877     19876     19884     19887     19878     19876     19884     19885
     19878     19876     19884     19886     19878     19876     19884     19887
     19878     19879     19881     19882     19878     19879     19881     19883
     19878     19879     19881     19893     19879     19878     19876     19884
     19879     19881     19893     19894     19879     19881     19893     19895
     19879     19881     19893     19896     19880     19879     19881     19882
     19880     19879     19881     19883     19880     19879     19881     19893
     19881     19893     19896     19897     19881     19893     19896     19898
     19881     19893     19896     19899     19882     19881     19893     19894
     19882     19881     19893     19895     19882     19881     19893     19896
     19883     19881     19893     19894     19883     19881     19893     19895
     19883     19881     19893     19896     19884     19887     19888     19889
     19884     19887     19888     19890     19885     19884     19887     19888
     19886     19884     19887     19888     19887     19888     19890     19891
     19887     19888     19890     19892     19887     19888     19890     19940
     19888     19890     19940     19941     19888     19890     19940     19942
     19888     19890     19940     19943     19889     19888     19890     19891
     19889     19888     19890     19892     19889     19888     19890     19940
     19890     19940     19943     19944     19890     19940     19943     19945
     19890     19940     19943     19946     19891     19890     19940     19941
     19891     19890     19940     19942     19891     19890     19940     19943
     19892     19890     19940     19941     19892     19890     19940     19942
     19892     19890     19940     19943     19893     19896     19899     19900
     19893     19896     19899     19901     19893     19896     19899     19902
     19894     19893     19896     19897     19894     19893     19896     19898
     19894     19893     19896     19899     19895     19893     19896     19897
     19895     19893     19896     19898     19895     19893     19896     19899
     19896     19899     19902     19903     19896     19899     19902     19904
     19896     19899     19902     19905     19897     19896     19899     19900
     19897     19896     19899     19901     19897     19896     19899     19902
     19898     19896     19899     19900     19898     19896     19899     19901
     19898     19896     19899     19902     19899     19902     19905     19906
     19899     19902     19905     19907     19899     19902     19905     19908
     19900     19899     19902     19903     19900     19899     19902     19904
     19900     19899     19902     19905     19901     19899     19902     19903
     19901     19899     19902     19904     19901     19899     19902     19905
     19902     19905     19908     19909     19902     19905     19908     19910
     19902     19905     19908     19911     19903     19902     19905     19906
     19903     19902     19905     19907     19903     19902     19905     19908
     19904     19902     19905     19906     19904     19902     19905     19907
     19904     19902     19905     19908     19905     19908     19911     19912
     19905     19908     19911     19913     19906     19905     19908     19909
     19906     19905     19908     19910     19906     19905     19908     19911
     19907     19905     19908     19909     19907     19905     19908     19910
     19907     19905     19908     19911     19908     19911     19913     19914
     19908     19911     19913     19915     19909     19908     19911     19912
     19909     19908     19911     19913     19910     19908     19911     19912
     19910     19908     19911     19913     19911     19913     19915     19916
     19911     19913     19915     19917     19911     19913     19915     19918
     19912     19911     19913     19914     19912     19911     19913     19915
     19913     19915     19918     19919     19913     19915     19918     19920
     19913     19915     19918     19921     19914     19913     19915     19916
     19914     19913     19915     19917     19914     19913     19915     19918
     19915     19918     19921     19922     19915     19918     19921     19923
     19915     19918     19921     19924     19916     19915     19918     19919
     19916     19915     19918     19920     19916     19915     19918     19921
     19917     19915     19918     19919     19917     19915     19918     19920
     19917     19915     19918     19921     19918     19921     19924     19925
     19918     19921     19924     19926     19918     19921     19924     19927
     19919     19918     19921     19922     19919     19918     19921     19923
     19919     19918     19921     19924     19920     19918     19921     19922
     19920     19918     19921     19923     19920     19918     19921     19924
     19921     19924     19927     19928     19921     19924     19927     19929
     19921     19924     19927     19930     19922     19921     19924     19925
     19922     19921     19924     19926     19922     19921     19924     19927
     19923     19921     19924     19925     19923     19921     19924     19926
     19923     19921     19924     19927     19924     19927     19930     19931
     19924     19927     19930     19932     19924     19927     19930     19933
     19925     19924     19927     19928     19925     19924     19927     19929
     19925     19924     19927     19930     19926     19924     19927     19928
     19926     19924     19927     19929     19926     19924     19927     19930
     19927     19930     19933     19934     19927     19930     19933     19935
     19927     19930     19933     19936     19928     19927     19930     19931
     19928     19927     19930     19932     19928     19927     19930     19933
     19929     19927     19930     19931     19929     19927     19930     19932
     19929     19927     19930     19933     19930     19933     19936     19937
     19930     19933     19936     19938     19930     19933     19936     19939
     19931     19930     19933     19934     19931     19930     19933     19935
     19931     19930     19933     19936     19932     19930     19933     19934
     19932     19930     19933     19935     19932     19930     19933     19936
     19934     19933     19936     19937     19934     19933     19936     19938
     19934     19933     19936     19939     19935     19933     19936     19937
     19935     19933     19936     19938     19935     19933     19936     19939
     19940     19943     19946     19947     19940     19943     19946     19948
     19940     19943     19946     19949     19941     19940     19943     19944
     19941     19940     19943     19945     19941     19940     19943     19946
     19942     19940     19943     19944     19942     19940     19943     19945
     19942     19940     19943     19946     19943     19946     19949     19950
     19943     19946     19949     19951     19943     19946     19949     19952
     19944     19943     19946     19947     19944     19943     19946     19948
     19944     19943     19946     19949     19945     19943     19946     19947
     19945     19943     19946     19948     19945     19943     19946     19949
     19946     19949     19952     19953     19946     19949     19952     19954
     19946     19949     19952     19955     19947     19946     19949     19950
     19947     19946     19949     19951     19947     19946     19949     19952
     19948     19946     19949     19950     19948     19946     19949     19951
     19948     19946     19949     19952     19949     19952     19955     19956
     19949     19952     19955     19957     19949     19952     19955     19958
     19950     19949     19952     19953     19950     19949     19952     19954
     19950     19949     19952     19955     19951     19949     19952     19953
     19951     19949     19952     19954     19951     19949     19952     19955
     19952     19955     19958     19959     19952     19955     19958     19960
     19952     19955     19958     19961     19953     19952     19955     19956
     19953     19952     19955     19957     19953     19952     19955     19958
     19954     19952     19955     19956     19954     19952     19955     19957
     19954     19952     19955     19958     19955     19958     19961     19962
     19955     19958     19961     19963     19955     19958     19961     19964
     19956     19955     19958     19959     19956     19955     19958     19960
     19956     19955     19958     19961     19957     19955     19958     19959
     19957     19955     19958     19960     19957     19955     19958     19961
     19958     19961     19964     19965     19958     19961     19964     19966
     19958     19961     19964     19967     19959     19958     19961     19962
     19959     19958     19961     19963     19959     19958     19961     19964
     19960     19958     19961     19962     19960     19958     19961     19963
     19960     19958     19961     19964     19961     19964     19967     19968
     19961     19964     19967     19969     19961     19964     19967     19970
     19962     19961     19964     19965     19962     19961     19964     19966
     19962     19961     19964     19967     19963     19961     19964     19965
     19963     19961     19964     19966     19963     19961     19964     19967
     19964     19967     19970     19971     19964     19967     19970     19972
     19964     19967     19970     19973     19965     19964     19967     19968
     19965     19964     19967     19969     19965     19964     19967     19970
     19966     19964     19967     19968     19966     19964     19967     19969
     19966     19964     19967     19970     19967     19970     19973     19974
     19967     19970     19973     19975     19967     19970     19973     19976
     19968     19967     19970     19971     19968     19967     19970     19972
     19968     19967     19970     19973     19969     19967     19970     19971
     19969     19967     19970     19972     19969     19967     19970     19973
     19970     19973     19976     19977     19970     19973     19976     19978
     19970     19973     19976     19979     19971     19970     19973     19974
     19971     19970     19973     19975     19971     19970     19973     19976
     19972     19970     19973     19974     19972     19970     19973     19975
     19972     19970     19973     19976     19973     19976     19979     19980
     19973     19976     19979     19981     19973     19976     19979     19982
     19974     19973     19976     19977     19974     19973     19976     19978
     19974     19973     19976     19979     19975     19973     19976     19977
     19975     19973     19976     19978     19975     19973     19976     19979
     19977     19976     19979     19980     19977     19976     19979     19981
     19977     19976     19979     19982     19978     19976     19979     19980
     19978     19976     19979     19981     19978     19976     19979     19982
     19983     19984     19999     20000     19983     19984     19999     20001
     19983     19984     19999     20005     19984     19983     19987     19988
     19984     19983     19987     19989     19984     19983     19987     19990
     19984     19983     19991     19992     19984     19983     19991     19993
     19984     19983     19991     19994     19984     19983     19995     19996
     19984     19983     19995     19997     19984     19983     19995     19998
     19984     19999     20005     20002     19985     19984     19983     19987
     19985     19984     19983     19991     19985     19984     19983     19995
     19985     19984     19999     20000     19985     19984     19999     20001
     19985     19984     19999     20005     19986     19984     19983     19987
     19986     19984     19983     19991     19986     19984     19983     19995
     19986     19984     19999     20000     19986     19984     19999     20001
     19986     19984     19999     20005     19987     19983     19984     19999
     19987     19983     19991     19992     19987     19983     19991     19993
     19987     19983     19991     19994     19987     19983     19995     19996
     19987     19983     19995     19997     19987     19983     19995     19998
     19988     19987     19983     19991     19988     19987     19983     19995
     19989     19987     19983     19991     19989     19987     19983     19995
     19990     19987     19983     19991     19990     19987     19983     19995
     19991     19983     19984     19999     19991     19983     19995     19996
     19991     19983     19995     19997     19991     19983     19995     19998
     19992     19991     19983     19995     19993     19991     19983     19995
     19994     19991     19983     19995     19995     19983     19984     19999
     19999     20005     20002     20003     19999     20005     20002     20004
     19999     20005     20002     20006     20000     19999     20005     20002
     20001     19999     20005     20002     20002     20006     20007     20008
     20002     20006     20007     20009     20002     20006     20007     20010
     20003     20002     20006     20007     20004     20002     20006     20007
     20005     20002     20006     20007     20006     20007     20010     20011
     20006     20007     20010     20012     20006     20007     20010     20018
     20007     20010     20012     20013     20007     20010     20018     20019
     20007     20010     20018     20020     20007     20010     20018     20021
     20008     20007     20010     20011     20008     20007     20010     20012
     20008     20007     20010     20018     20009     20007     20010     20011
     20009     20007     20010     20012     20009     20007     20010     20018
     20010     20012     20013     20014     20010     20012     20013     20015
     20010     20018     20021     20022     20011     20010     20012     20013
     20011     20010     20018     20019     20011     20010     20018     20020
     20011     20010     20018     20021     20012     20010     20018     20019
     20012     20010     20018     20020     20012     20010     20018     20021
     20012     20013     20015     20016     20012     20013     20015     20017
     20012     20013     20015     20027     20013     20012     20010     20018
     20013     20015     20027     20028     20013     20015     20027     20029
     20013     20015     20027     20030     20014     20013     20015     20016
     20014     20013     20015     20017     20014     20013     20015     20027
     20015     20027     20030     20031     20015     20027     20030     20032
     20015     20027     20030     20033     20016     20015     20027     20028
     20016     20015     20027     20029     20016     20015     20027     20030
     20017     20015     20027     20028     20017     20015     20027     20029
     20017     20015     20027     20030     20018     20021     20022     20023
     20018     20021     20022     20024     20019     20018     20021     20022
     20020     20018     20021     20022     20021     20022     20024     20025
     20021     20022     20024     20026     20021     20022     20024     20074
     20022     20024     20074     20075     20022     20024     20074     20076
     20022     20024     20074     20077     20023     20022     20024     20025
     20023     20022     20024     20026     20023     20022     20024     20074
     20024     20074     20077     20078     20024     20074     20077     20079
     20024     20074     20077     20080     20025     20024     20074     20075
     20025     20024     20074     20076     20025     20024     20074     20077
     20026     20024     20074     20075     20026     20024     20074     20076
     20026     20024     20074     20077     20027     20030     20033     20034
     20027     20030     20033     20035     20027     20030     20033     20036
     20028     20027     20030     20031     20028     20027     20030     20032
     20028     20027     20030     20033     20029     20027     20030     20031
     20029     20027     20030     20032     20029     20027     20030     20033
     20030     20033     20036     20037     20030     20033     20036     20038
     20030     20033     20036     20039     20031     20030     20033     20034
     20031     20030     20033     20035     20031     20030     20033     20036
     20032     20030     20033     20034     20032     20030     20033     20035
     20032     20030     20033     20036     20033     20036     20039     20040
     20033     20036     20039     20041     20033     20036     20039     20042
     20034     20033     20036     20037     20034     20033     20036     20038
     20034     20033     20036     20039     20035     20033     20036     20037
     20035     20033     20036     20038     20035     20033     20036     20039
     20036     20039     20042     20043     20036     20039     20042     20044
     20036     20039     20042     20045     20037     20036     20039     20040
     20037     20036     20039     20041     20037     20036     20039     20042
     20038     20036     20039     20040     20038     20036     20039     20041
     20038     20036     20039     20042     20039     20042     20045     20046
     20039     20042     20045     20047     20040     20039     20042     20043
     20040     20039     20042     20044     20040     20039     20042     20045
     20041     20039     20042     20043     20041     20039     20042     20044
     20041     20039     20042     20045     20042     20045     20047     20048
     20042     20045     20047     20049     20043     20042     20045     20046
     20043     20042     20045     20047     20044     20042     20045     20046
     20044     20042     20045     20047     20045     20047     20049     20050
     20045     20047     20049     20051     20045     20047     20049     20052
     20046     20045     20047     20048     20046     20045     20047     20049
     20047     20049     20052     20053     20047     20049     20052     20054
     20047     20049     20052     20055     20048     20047     20049     20050
     20048     20047     20049     20051     20048     20047     20049     20052
     20049     20052     20055     20056     20049     20052     20055     20057
     20049     20052     20055     20058     20050     20049     20052     20053
     20050     20049     20052     20054     20050     20049     20052     20055
     20051     20049     20052     20053     20051     20049     20052     20054
     20051     20049     20052     20055     20052     20055     20058     20059
     20052     20055     20058     20060     20052     20055     20058     20061
     20053     20052     20055     20056     20053     20052     20055     20057
     20053     20052     20055     20058     20054     20052     20055     20056
     20054     20052     20055     20057     20054     20052     20055     20058
     20055     20058     20061     20062     20055     20058     20061     20063
     20055     20058     20061     20064     20056     20055     20058     20059
     20056     20055     20058     20060     20056     20055     20058     20061
     20057     20055     20058     20059     20057     20055     20058     20060
     20057     20055     20058     20061     20058     20061     20064     20065
     20058     20061     20064     20066     20058     20061     20064     20067
     20059     20058     20061     20062     20059     20058     20061     20063
     20059     20058     20061     20064     20060     20058     20061     20062
     20060     20058     20061     20063     20060     20058     20061     20064
     20061     20064     20067     20068     20061     20064     20067     20069
     20061     20064     20067     20070     20062     20061     20064     20065
     20062     20061     20064     20066     20062     20061     20064     20067
     20063     20061     20064     20065     20063     20061     20064     20066
     20063     20061     20064     20067     20064     20067     20070     20071
     20064     20067     20070     20072     20064     20067     20070     20073
     20065     20064     20067     20068     20065     20064     20067     20069
     20065     20064     20067     20070     20066     20064     20067     20068
     20066     20064     20067     20069     20066     20064     20067     20070
     20068     20067     20070     20071     20068     20067     20070     20072
     20068     20067     20070     20073     20069     20067     20070     20071
     20069     20067     20070     20072     20069     20067     20070     20073
     20074     20077     20080     20081     20074     20077     20080     20082
     20074     20077     20080     20083     20075     20074     20077     20078
     20075     20074     20077     20079     20075     20074     20077     20080
     20076     20074     20077     20078     20076     20074     20077     20079
     20076     20074     20077     20080     20077     20080     20083     20084
     20077     20080     20083     20085     20077     20080     20083     20086
     20078     20077     20080     20081     20078     20077     20080     20082
     20078     20077     20080     20083     20079     20077     20080     20081
     20079     20077     20080     20082     20079     20077     20080     20083
     20080     20083     20086     20087     20080     20083     20086     20088
     20080     20083     20086     20089     20081     20080     20083     20084
     20081     20080     20083     20085     20081     20080     20083     20086
     20082     20080     20083     20084     20082     20080     20083     20085
     20082     20080     20083     20086     20083     20086     20089     20090
     20083     20086     20089     20091     20083     20086     20089     20092
     20084     20083     20086     20087     20084     20083     20086     20088
     20084     20083     20086     20089     20085     20083     20086     20087
     20085     20083     20086     20088     20085     20083     20086     20089
     20086     20089     20092     20093     20086     20089     20092     20094
     20086     20089     20092     20095     20087     20086     20089     20090
     20087     20086     20089     20091     20087     20086     20089     20092
     20088     20086     20089     20090     20088     20086     20089     20091
     20088     20086     20089     20092     20089     20092     20095     20096
     20089     20092     20095     20097     20089     20092     20095     20098
     20090     20089     20092     20093     20090     20089     20092     20094
     20090     20089     20092     20095     20091     20089     20092     20093
     20091     20089     20092     20094     20091     20089     20092     20095
     20092     20095     20098     20099     20092     20095     20098     20100
     20092     20095     20098     20101     20093     20092     20095     20096
     20093     20092     20095     20097     20093     20092     20095     20098
     20094     20092     20095     20096     20094     20092     20095     20097
     20094     20092     20095     20098     20095     20098     20101     20102
     20095     20098     20101     20103     20095     20098     20101     20104
     20096     20095     20098     20099     20096     20095     20098     20100
     20096     20095     20098     20101     20097     20095     20098     20099
     20097     20095     20098     20100     20097     20095     20098     20101
     20098     20101     20104     20105     20098     20101     20104     20106
     20098     20101     20104     20107     20099     20098     20101     20102
     20099     20098     20101     20103     20099     20098     20101     20104
     20100     20098     20101     20102     20100     20098     20101     20103
     20100     20098     20101     20104     20101     20104     20107     20108
     20101     20104     20107     20109     20101     20104     20107     20110
     20102     20101     20104     20105     20102     20101     20104     20106
     20102     20101     20104     20107     20103     20101     20104     20105
     20103     20101     20104     20106     20103     20101     20104     20107
     20104     20107     20110     20111     20104     20107     20110     20112
     20104     20107     20110     20113     20105     20104     20107     20108
     20105     20104     20107     20109     20105     20104     20107     20110
     20106     20104     20107     20108     20106     20104     20107     20109
     20106     20104     20107     20110     20107     20110     20113     20114
     20107     20110     20113     20115     20107     20110     20113     20116
     20108     20107     20110     20111     20108     20107     20110     20112
     20108     20107     20110     20113     20109     20107     20110     20111
     20109     20107     20110     20112     20109     20107     20110     20113
     20111     20110     20113     20114     20111     20110     20113     20115
     20111     20110     20113     20116     20112     20110     20113     20114
     20112     20110     20113     20115     20112     20110     20113     20116
      6971      6975      6978      6979      6971      6975      6978      6980
      6971      6975      6978      6985      6972      6971      6975      6976
      6972      6971      6975      6977      6972      6971      6975      6978
      6973      6971      6975      6976      6973      6971      6975      6977
      6973      6971      6975      6978      6974      6971      6975      6976
      6974      6971      6975      6977      6974      6971      6975      6978
      6975      6978      6985      6981      6976      6975      6978      6979
      6976      6975      6978      6980      6976      6975      6978      6985
      6977      6975      6978      6979      6977      6975      6978      6980
      6977      6975      6978      6985      6978      6985      6981      6982
      6978      6985      6981      6983      6978      6985      6981      6984
      6979      6978      6985      6981      6980      6978      6985      6981
      6981      6984      6986      6987      6981      6984      6986      6988
      6981      6984      6986      6989      6982      6981      6984      6986
      6983      6981      6984      6986      6984      6986      6989      6990
      6984      6986      6989      6991      6984      6986      6989      6997
      6985      6981      6984      6986      6986      6989      6991      6992
      6986      6989      6997      6998      6986      6989      6997      6999
      6986      6989      6997      7000      6987      6986      6989      6990
      6987      6986      6989      6991      6987      6986      6989      6997
      6988      6986      6989      6990      6988      6986      6989      6991
      6988      6986      6989      6997      6989      6991      6992      6993
      6989      6991      6992      6994      6989      6997      7000      7001
      6990      6989      6991      6992      6990      6989      6997      6998
      6990      6989      6997      6999      6990      6989      6997      7000
      6991      6989      6997      6998      6991      6989      6997      6999
      6991      6989      6997      7000      6991      6992      6994      6995
      6991      6992      6994      6996      6991      6992      6994      7006
      6992      6991      6989      6997      6992      6994      7006      7007
      6992      6994      7006      7008      6992      6994      7006      7009
      6993      6992      6994      6995      6993      6992      6994      6996
      6993      6992      6994      7006      6994      7006      7009      7010
      6994      7006      7009      7011      6994      7006      7009      7012
      6995      6994      7006      7007      6995      6994      7006      7008
      6995      6994      7006      7009      6996      6994      7006      7007
      6996      6994      7006      7008      6996      6994      7006      7009
      6997      7000      7001      7002      6997      7000      7001      7003
      6998      6997      7000      7001      6999      6997      7000      7001
      7000      7001      7003      7004      7000      7001      7003      7005
      7000      7001      7003      7053      7001      7003      7053      7054
      7001      7003      7053      7055      7001      7003      7053      7056
      7002      7001      7003      7004      7002      7001      7003      7005
      7002      7001      7003      7053      7003      7053      7056      7057
      7003      7053      7056      7058      7003      7053      7056      7059
      7004      7003      7053      7054      7004      7003      7053      7055
      7004      7003      7053      7056      7005      7003      7053      7054
      7005      7003      7053      7055      7005      7003      7053      7056
      7006      7009      7012      7013      7006      7009      7012      7014
      7006      7009      7012      7015      7007      7006      7009      7010
      7007      7006      7009      7011      7007      7006      7009      7012
      7008      7006      7009      7010      7008      7006      7009      7011
      7008      7006      7009      7012      7009      7012      7015      7016
      7009      7012      7015      7017      7009      7012      7015      7018
      7010      7009      7012      7013      7010      7009      7012      7014
      7010      7009      7012      7015      7011      7009      7012      7013
      7011      7009      7012      7014      7011      7009      7012      7015
      7012      7015      7018      7019      7012      7015      7018      7020
      7012      7015      7018      7021      7013      7012      7015      7016
      7013      7012      7015      7017      7013      7012      7015      7018
      7014      7012      7015      7016      7014      7012      7015      7017
      7014      7012      7015      7018      7015      7018      7021      7022
      7015      7018      7021      7023      7015      7018      7021      7024
      7016      7015      7018      7019      7016      7015      7018      7020
      7016      7015      7018      7021      7017      7015      7018      7019
      7017      7015      7018      7020      7017      7015      7018      7021
      7018      7021      7024      7025      7018      7021      7024      7026
      7019      7018      7021      7022      7019      7018      7021      7023
      7019      7018      7021      7024      7020      7018      7021      7022
      7020      7018      7021      7023      7020      7018      7021      7024
      7021      7024      7026      7027      7021      7024      7026      7028
      7022      7021      7024      7025      7022      7021      7024      7026
      7023      7021      7024      7025      7023      7021      7024      7026
      7024      7026      7028      7029      7024      7026      7028      7030
      7024      7026      7028      7031      7025      7024      7026      7027
      7025      7024      7026      7028      7026      7028      7031      7032
      7026      7028      7031      7033      7026      7028      7031      7034
      7027      7026      7028      7029      7027      7026      7028      7030
      7027      7026      7028      7031      7028      7031      7034      7035
      7028      7031      7034      7036      7028      7031      7034      7037
      7029      7028      7031      7032      7029      7028      7031      7033
      7029      7028      7031      7034      7030      7028      7031      7032
      7030      7028      7031      7033      7030      7028      7031      7034
      7031      7034      7037      7038      7031      7034      7037      7039
      7031      7034      7037      7040      7032      7031      7034      7035
      7032      7031      7034      7036      7032      7031      7034      7037
      7033      7031      7034      7035      7033      7031      7034      7036
      7033      7031      7034      7037      7034      7037      7040      7041
      7034      7037      7040      7042      7034      7037      7040      7043
      7035      7034      7037      7038      7035      7034      7037      7039
      7035      7034      7037      7040      7036      7034      7037      7038
      7036      7034      7037      7039      7036      7034      7037      7040
      7037      7040      7043      7044      7037      7040      7043      7045
      7037      7040      7043      7046      7038      7037      7040      7041
      7038      7037      7040      7042      7038      7037      7040      7043
      7039      7037      7040      7041      7039      7037      7040      7042
      7039      7037      7040      7043      7040      7043      7046      7047
      7040      7043      7046      7048      7040      7043      7046      7049
      7041      7040      7043      7044      7041      7040      7043      7045
      7041      7040      7043      7046      7042      7040      7043      7044
      7042      7040      7043      7045      7042      7040      7043      7046
      7043      7046      7049      7050      7043      7046      7049      7051
      7043      7046      7049      7052      7044      7043      7046      7047
      7044      7043      7046      7048      7044      7043      7046      7049
      7045      7043      7046      7047      7045      7043      7046      7048
      7045      7043      7046      7049      7047      7046      7049      7050
      7047      7046      7049      7051      7047      7046      7049      7052
      7048      7046      7049      7050      7048      7046      7049      7051
      7048      7046      7049      7052      7053      7056      7059      7060
      7053      7056      7059      7061      7053      7056      7059      7062
      7054      7053      7056      7057      7054      7053      7056      7058
      7054      7053      7056      7059      7055      7053      7056      7057
      7055      7053      7056      7058      7055      7053      7056      7059
      7056      7059      7062      7063      7056      7059      7062      7064
      7056      7059      7062      7065      7057      7056      7059      7060
      7057      7056      7059      7061      7057      7056      7059      7062
      7058      7056      7059      7060      7058      7056      7059      7061
      7058      7056      7059      7062      7059      7062      7065      7066
      7059      7062      7065      7067      7059      7062      7065      7068
      7060      7059      7062      7063      7060      7059      7062      7064
      7060      7059      7062      7065      7061      7059      7062      7063
      7061      7059      7062      7064      7061      7059      7062      7065
      7062      7065      7068      7069      7062      7065      7068      7070
      7062      7065      7068      7071      7063      7062      7065      7066
      7063      7062      7065      7067      7063      7062      7065      7068
      7064      7062      7065      7066      7064      7062      7065      7067
      7064      7062      7065      7068      7065      7068      7071      7072
      7065      7068      7071      7073      7065      7068      7071      7074
      7066      7065      7068      7069      7066      7065      7068      7070
      7066      7065      7068      7071      7067      7065      7068      7069
      7067      7065      7068      7070      7067      7065      7068      7071
      7068      7071      7074      7075      7068      7071      7074      7076
      7068      7071      7074      7077      7069      7068      7071      7072
      7069      7068      7071      7073      7069      7068      7071      7074
      7070      7068      7071      7072      7070      7068      7071      7073
      7070      7068      7071      7074      7071      7074      7077      7078
      7071      7074      7077      7079      7071      7074      7077      7080
      7072      7071      7074      7075      7072      7071      7074      7076
      7072      7071      7074      7077      7073      7071      7074      7075
      7073      7071      7074      7076      7073      7071      7074      7077
      7074      7077      7080      7081      7074      7077      7080      7082
      7074      7077      7080      7083      7075      7074      7077      7078
      7075      7074      7077      7079      7075      7074      7077      7080
      7076      7074      7077      7078      7076      7074      7077      7079
      7076      7074      7077      7080      7077      7080      7083      7084
      7077      7080      7083      7085      7077      7080      7083      7086
      7078      7077      7080      7081      7078      7077      7080      7082
      7078      7077      7080      7083      7079      7077      7080      7081
      7079      7077      7080      7082      7079      7077      7080      7083
      7080      7083      7086      7087      7080      7083      7086      7088
      7080      7083      7086      7089      7081      7080      7083      7084
      7081      7080      7083      7085      7081      7080      7083      7086
      7082      7080      7083      7084      7082      7080      7083      7085
      7082      7080      7083      7086      7083      7086      7089      7090
      7083      7086      7089      7091      7083      7086      7089      7092
      7084      7083      7086      7087      7084      7083      7086      7088
      7084      7083      7086      7089      7085      7083      7086      7087
      7085      7083      7086      7088      7085      7083      7086      7089
      7086      7089      7092      7093      7086      7089      7092      7094
      7086      7089      7092      7095      7087      7086      7089      7090
      7087      7086      7089      7091      7087      7086      7089      7092
      7088      7086      7089      7090      7088      7086      7089      7091
      7088      7086      7089      7092      7090      7089      7092      7093
      7090      7089      7092      7094      7090      7089      7092      7095
      7091      7089      7092      7093      7091      7089      7092      7094
      7091      7089      7092      7095     12408     12412     12414     12415
     12408     12412     12414     12416     12408     12412     12417     12418
     12408     12412     12417     12419     12408     12412     12417     12423
     12409     12408     12412     12413     12409     12408     12412     12414
     12409     12408     12412     12417     12410     12408     12412     12413
     12410     12408     12412     12414     12410     12408     12412     12417
     12411     12408     12412     12413     12411     12408     12412     12414
     12411     12408     12412     12417     12412     12417     12423     12420
     12413     12412     12414     12415     12413     12412     12414     12416
     12413     12412     12417     12418     12413     12412     12417     12419
     12413     12412     12417     12423     12414     12412     12417     12418
     12414     12412     12417     12419     12414     12412     12417     12423
     12415     12414     12412     12417     12416     12414     12412     12417
     12417     12423     12420     12421     12417     12423     12420     12422
     12417     12423     12420     12424     12418     12417     12423     12420
     12419     12417     12423     12420     12420     12424     12425     12426
     12420     12424     12425     12427     12420     12424     12425     12428
     12421     12420     12424     12425     12422     12420     12424     12425
     12423     12420     12424     12425     12424     12425     12428     12429
     12424     12425     12428     12430     12424     12425     12428     12436
     12425     12428     12430     12431     12425     12428     12436     12437
     12425     12428     12436     12438     12425     12428     12436     12439
     12426     12425     12428     12429     12426     12425     12428     12430
     12426     12425     12428     12436     12427     12425     12428     12429
     12427     12425     12428     12430     12427     12425     12428     12436
     12428     12430     12431     12432     12428     12430     12431     12433
     12428     12436     12439     12440     12429     12428     12430     12431
     12429     12428     12436     12437     12429     12428     12436     12438
     12429     12428     12436     12439     12430     12428     12436     12437
     12430     12428     12436     12438     12430     12428     12436     12439
     12430     12431     12433     12434     12430     12431     12433     12435
     12430     12431     12433     12445     12431     12430     12428     12436
     12431     12433     12445     12446     12431     12433     12445     12447
     12431     12433     12445     12448     12432     12431     12433     12434
     12432     12431     12433     12435     12432     12431     12433     12445
     12433     12445     12448     12449     12433     12445     12448     12450
     12433     12445     12448     12451     12434     12433     12445     12446
     12434     12433     12445     12447     12434     12433     12445     12448
     12435     12433     12445     12446     12435     12433     12445     12447
     12435     12433     12445     12448     12436     12439     12440     12441
     12436     12439     12440     12442     12437     12436     12439     12440
     12438     12436     12439     12440     12439     12440     12442     12443
     12439     12440     12442     12444     12439     12440     12442     12492
     12440     12442     12492     12493     12440     12442     12492     12494
     12440     12442     12492     12495     12441     12440     12442     12443
     12441     12440     12442     12444     12441     12440     12442     12492
     12442     12492     12495     12496     12442     12492     12495     12497
     12442     12492     12495     12498     12443     12442     12492     12493
     12443     12442     12492     12494     12443     12442     12492     12495
     12444     12442     12492     12493     12444     12442     12492     12494
     12444     12442     12492     12495     12445     12448     12451     12452
     12445     12448     12451     12453     12445     12448     12451     12454
     12446     12445     12448     12449     12446     12445     12448     12450
     12446     12445     12448     12451     12447     12445     12448     12449
     12447     12445     12448     12450     12447     12445     12448     12451
     12448     12451     12454     12455     12448     12451     12454     12456
     12448     12451     12454     12457     12449     12448     12451     12452
     12449     12448     12451     12453     12449     12448     12451     12454
     12450     12448     12451     12452     12450     12448     12451     12453
     12450     12448     12451     12454     12451     12454     12457     12458
     12451     12454     12457     12459     12451     12454     12457     12460
     12452     12451     12454     12455     12452     12451     12454     12456
     12452     12451     12454     12457     12453     12451     12454     12455
     12453     12451     12454     12456     12453     12451     12454     12457
     12454     12457     12460     12461     12454     12457     12460     12462
     12454     12457     12460     12463     12455     12454     12457     12458
     12455     12454     12457     12459     12455     12454     12457     12460
     12456     12454     12457     12458     12456     12454     12457     12459
     12456     12454     12457     12460     12457     12460     12463     12464
     12457     12460     12463     12465     12458     12457     12460     12461
     12458     12457     12460     12462     12458     12457     12460     12463
     12459     12457     12460     12461     12459     12457     12460     12462
     12459     12457     12460     12463     12460     12463     12465     12466
     12460     12463     12465     12467     12461     12460     12463     12464
     12461     12460     12463     12465     12462     12460     12463     12464
     12462     12460     12463     12465     12463     12465     12467     12468
     12463     12465     12467     12469     12463     12465     12467     12470
     12464     12463     12465     12466     12464     12463     12465     12467
     12465     12467     12470     12471     12465     12467     12470     12472
     12465     12467     12470     12473     12466     12465     12467     12468
     12466     12465     12467     12469     12466     12465     12467     12470
     12467     12470     12473     12474     12467     12470     12473     12475
     12467     12470     12473     12476     12468     12467     12470     12471
     12468     12467     12470     12472     12468     12467     12470     12473
     12469     12467     12470     12471     12469     12467     12470     12472
     12469     12467     12470     12473     12470     12473     12476     12477
     12470     12473     12476     12478     12470     12473     12476     12479
     12471     12470     12473     12474     12471     12470     12473     12475
     12471     12470     12473     12476     12472     12470     12473     12474
     12472     12470     12473     12475     12472     12470     12473     12476
     12473     12476     12479     12480     12473     12476     12479     12481
     12473     12476     12479     12482     12474     12473     12476     12477
     12474     12473     12476     12478     12474     12473     12476     12479
     12475     12473     12476     12477     12475     12473     12476     12478
     12475     12473     12476     12479     12476     12479     12482     12483
     12476     12479     12482     12484     12476     12479     12482     12485
     12477     12476     12479     12480     12477     12476     12479     12481
     12477     12476     12479     12482     12478     12476     12479     12480
     12478     12476     12479     12481     12478     12476     12479     12482
     12479     12482     12485     12486     12479     12482     12485     12487
     12479     12482     12485     12488     12480     12479     12482     12483
     12480     12479     12482     12484     12480     12479     12482     12485
     12481     12479     12482     12483     12481     12479     12482     12484
     12481     12479     12482     12485     12482     12485     12488     12489
     12482     12485     12488     12490     12482     12485     12488     12491
     12483     12482     12485     12486     12483     12482     12485     12487
     12483     12482     12485     12488     12484     12482     12485     12486
     12484     12482     12485     12487     12484     12482     12485     12488
     12486     12485     12488     12489     12486     12485     12488     12490
     12486     12485     12488     12491     12487     12485     12488     12489
     12487     12485     12488     12490     12487     12485     12488     12491
     12492     12495     12498     12499     12492     12495     12498     12500
     12492     12495     12498     12501     12493     12492     12495     12496
     12493     12492     12495     12497     12493     12492     12495     12498
     12494     12492     12495     12496     12494     12492     12495     12497
     12494     12492     12495     12498     12495     12498     12501     12502
     12495     12498     12501     12503     12495     12498     12501     12504
     12496     12495     12498     12499     12496     12495     12498     12500
     12496     12495     12498     12501     12497     12495     12498     12499
     12497     12495     12498     12500     12497     12495     12498     12501
     12498     12501     12504     12505     12498     12501     12504     12506
     12498     12501     12504     12507     12499     12498     12501     12502
     12499     12498     12501     12503     12499     12498     12501     12504
     12500     12498     12501     12502     12500     12498     12501     12503
     12500     12498     12501     12504     12501     12504     12507     12508
     12501     12504     12507     12509     12501     12504     12507     12510
     12502     12501     12504     12505     12502     12501     12504     12506
     12502     12501     12504     12507     12503     12501     12504     12505
     12503     12501     12504     12506     12503     12501     12504     12507
     12504     12507     12510     12511     12504     12507     12510     12512
     12504     12507     12510     12513     12505     12504     12507     12508
     12505     12504     12507     12509     12505     12504     12507     12510
     12506     12504     12507     12508     12506     12504     12507     12509
     12506     12504     12507     12510     12507     12510     12513     12514
     12507     12510     12513     12515     12507     12510     12513     12516
     12508     12507     12510     12511     12508     12507     12510     12512
     12508     12507     12510     12513     12509     12507     12510     12511
     12509     12507     12510     12512     12509     12507     12510     12513
     12510     12513     12516     12517     12510     12513     12516     12518
     12510     12513     12516     12519     12511     12510     12513     12514
     12511     12510     12513     12515     12511     12510     12513     12516
     12512     12510     12513     12514     12512     12510     12513     12515
     12512     12510     12513     12516     12513     12516     12519     12520
     12513     12516     12519     12521     12513     12516     12519     12522
     12514     12513     12516     12517     12514     12513     12516     12518
     12514     12513     12516     12519     12515     12513     12516     12517
     12515     12513     12516     12518     12515     12513     12516     12519
     12516     12519     12522     12523     12516     12519     12522     12524
     12516     12519     12522     12525     12517     12516     12519     12520
     12517     12516     12519     12521     12517     12516     12519     12522
     12518     12516     12519     12520     12518     12516     12519     12521
     12518     12516     12519     12522     12519     12522     12525     12526
     12519     12522     12525     12527     12519     12522     12525     12528
     12520     12519     12522     12523     12520     12519     12522     12524
     12520     12519     12522     12525     12521     12519     12522     12523
     12521     12519     12522     12524     12521     12519     12522     12525
     12522     12525     12528     12529     12522     12525     12528     12530
     12522     12525     12528     12531     12523     12522     12525     12526
     12523     12522     12525     12527     12523     12522     12525     12528
     12524     12522     12525     12526     12524     12522     12525     12527
     12524     12522     12525     12528     12525     12528     12531     12532
     12525     12528     12531     12533     12525     12528     12531     12534
     12526     12525     12528     12529     12526     12525     12528     12530
     12526     12525     12528     12531     12527     12525     12528     12529
     12527     12525     12528     12530     12527     12525     12528     12531
     12529     12528     12531     12532     12529     12528     12531     12533
     12529     12528     12531     12534     12530     12528     12531     12532
     12530     12528     12531     12533     12530     12528     12531     12534
      1999      2003      2006      2007      1999      2003      2006      2037
      1999      2045      2042      2037      1999      2045      2042      2043
      1999      2045      2042      2044      2000      1999      2001      2002
      2000      1999      2003      2004      2000      1999      2003      2005
      2000      1999      2003      2006      2000      1999      2045      2042
      2000      1999      2045      2046      2000      1999      2045      2047
      2001      1999      2003      2004      2001      1999      2003      2005
      2001      1999      2003      2006      2001      1999      2045      2042
      2001      1999      2045      2046      2001      1999      2045      2047
      2002      2001      1999      2003      2002      2001      1999      2045
      2003      1999      2045      2042      2003      1999      2045      2046
      2003      1999      2045      2047      2003      2006      2007      2008
      2003      2006      2007      2009      2003      2006      2037      2035
      2003      2006      2037      2038      2003      2006      2037      2042
      2004      2003      1999      2045      2004      2003      2006      2007
      2004      2003      2006      2037      2005      2003      1999      2045
      2005      2003      2006      2007      2005      2003      2006      2037
      2006      2003      1999      2045      2006      2007      2009      2010
      2006      2007      2009      2011      2006      2007      2009      2012
      2006      2037      2035      2012      2006      2037      2035      2032
      2006      2037      2035      2036      2006      2037      2038      2039
      2006      2037      2038      2040      2006      2037      2038      2041
      2006      2037      2042      2043      2006      2037      2042      2044
      2006      2037      2042      2045      2007      2006      2037      2035
      2007      2006      2037      2038      2007      2006      2037      2042
      2007      2009      2012      2013      2007      2009      2012      2014
      2007      2009      2012      2035      2008      2007      2006      2037
      2008      2007      2009      2010      2008      2007      2009      2011
      2008      2007      2009      2012      2009      2007      2006      2037
      2009      2012      2014      2015      2009      2012      2014      2016
      2009      2012      2014      2024      2009      2012      2035      2032
      2009      2012      2035      2036      2009      2012      2035      2037
      2010      2009      2012      2013      2010      2009      2012      2014
      2010      2009      2012      2035      2011      2009      2012      2013
      2011      2009      2012      2014      2011      2009      2012      2035
      2012      2014      2016      2017      2012      2014      2016      2018
      2012      2014      2016      2019      2012      2014      2024      2022
      2012      2014      2024      2025      2012      2014      2024      2029
      2012      2035      2032      2029      2012      2035      2032      2033
      2012      2035      2032      2034      2012      2035      2037      2038
      2012      2035      2037      2042      2013      2012      2014      2015
      2013      2012      2014      2016      2013      2012      2014      2024
      2013      2012      2035      2032      2013      2012      2035      2036
      2013      2012      2035      2037      2014      2012      2035      2032
      2014      2012      2035      2036      2014      2012      2035      2037
      2014      2016      2019      2020      2014      2016      2019      2021
      2014      2016      2019      2022      2014      2024      2022      2019
      2014      2024      2022      2023      2014      2024      2022      2048
      2014      2024      2025      2026      2014      2024      2025      2027
      2014      2024      2025      2028      2014      2024      2029      2030
      2014      2024      2029      2031      2014      2024      2029      2032
      2015      2014      2012      2035      2015      2014      2016      2017
      2015      2014      2016      2018      2015      2014      2016      2019
      2015      2014      2024      2022      2015      2014      2024      2025
      2015      2014      2024      2029      2016      2014      2012      2035
      2016      2014      2024      2022      2016      2014      2024      2025
      2016      2014      2024      2029      2016      2019      2022      2023
      2016      2019      2022      2024      2016      2019      2022      2048
      2017      2016      2014      2024      2017      2016      2019      2020
      2017      2016      2019      2021      2017      2016      2019      2022
      2018      2016      2014      2024      2018      2016      2019      2020
      2018      2016      2019      2021      2018      2016      2019      2022
      2019      2016      2014      2024      2019      2022      2024      2025
      2019      2022      2024      2029      2019      2022      2048      2049
      2019      2022      2048      2050      2019      2022      2048      2054
      2020      2019      2022      2023      2020      2019      2022      2024
      2020      2019      2022      2048      2021      2019      2022      2023
      2021      2019      2022      2024      2021      2019      2022      2048
      2022      2024      2025      2026      2022      2024      2025      2027
      2022      2024      2025      2028      2022      2024      2029      2030
      2022      2024      2029      2031      2022      2024      2029      2032
      2022      2048      2050      2051      2022      2048      2050      2052
      2022      2048      2050      2053      2022      2048      2054      2055
      2022      2048      2054      2056      2022      2048      2054      2057
      2023      2022      2024      2025      2023      2022      2024      2029
      2023      2022      2048      2049      2023      2022      2048      2050
      2023      2022      2048      2054      2024      2014      2012      2035
      2024      2022      2048      2049      2024      2022      2048      2050
      2024      2022      2048      2054      2024      2029      2032      2033
      2024      2029      2032      2034      2024      2029      2032      2035
      2025      2024      2022      2048      2025      2024      2029      2030
      2025      2024      2029      2031      2025      2024      2029      2032
      2026      2025      2024      2029      2027      2025      2024      2029
      2028      2025      2024      2029      2029      2024      2022      2048
      2029      2032      2035      2036      2029      2032      2035      2037
      2030      2029      2032      2033      2030      2029      2032      2034
      2030      2029      2032      2035      2031      2029      2032      2033
      2031      2029      2032      2034      2031      2029      2032      2035
      2032      2035      2037      2038      2032      2035      2037      2042
      2033      2032      2035      2036      2033      2032      2035      2037
      2034      2032      2035      2036      2034      2032      2035      2037
      2035      2037      2038      2039      2035      2037      2038      2040
      2035      2037      2038      2041      2035      2037      2042      2043
      2035      2037      2042      2044      2035      2037      2042      2045
      2036      2035      2037      2038      2036      2035      2037      2042
      2037      2042      2045      2046      2037      2042      2045      2047
      2038      2037      2042      2043      2038      2037      2042      2044
      2038      2037      2042      2045      2039      2038      2037      2042
      2040      2038      2037      2042      2041      2038      2037      2042
      2043      2042      2045      2046      2043      2042      2045      2047
      2044      2042      2045      2046      2044      2042      2045      2047
      2048      2054      2057      2058      2048      2054      2057      2059
      2048      2054      2057      2060      2049      2048      2050      2051
      2049      2048      2050      2052      2049      2048      2050      2053
      2049      2048      2054      2055      2049      2048      2054      2056
      2049      2048      2054      2057      2050      2048      2054      2055
      2050      2048      2054      2056      2050      2048      2054      2057
      2051      2050      2048      2054      2052      2050      2048      2054
      2053      2050      2048      2054      2054      2057      2060      2061
      2054      2057      2060      2062      2054      2057      2060      2063
      2055      2054      2057      2058      2055      2054      2057      2059
      2055      2054      2057      2060      2056      2054      2057      2058
      2056      2054      2057      2059      2056      2054      2057      2060
      2057      2060      2063      2064      2057      2060      2063      2065
      2057      2060      2063      2069      2058      2057      2060      2061
      2058      2057      2060      2062      2058      2057      2060      2063
      2059      2057      2060      2061      2059      2057      2060      2062
      2059      2057      2060      2063      2060      2063      2065      2066
      2060      2063      2065      2067      2060      2063      2065      2068
      2060      2063      2069      2070      2060      2063      2069      2071
      2060      2063      2069      2072      2061      2060      2063      2064
      2061      2060      2063      2065      2061      2060      2063      2069
      2062      2060      2063      2064      2062      2060      2063      2065
      2062      2060      2063      2069      2064      2063      2065      2066
      2064      2063      2065      2067      2064      2063      2065      2068
      2064      2063      2069      2070      2064      2063      2069      2071
      2064      2063      2069      2072      2065      2063      2069      2070
      2065      2063      2069      2071      2065      2063      2069      2072
      2066      2065      2063      2069      2067      2065      2063      2069
      2068      2065      2063      2069     12535     12539     12541     12542
     12535     12539     12541     12543     12535     12539     12544     12545
     12535     12539     12544     12546     12535     12539     12544     12550
     12536     12535     12539     12540     12536     12535     12539     12541
     12536     12535     12539     12544     12537     12535     12539     12540
     12537     12535     12539     12541     12537     12535     12539     12544
     12538     12535     12539     12540     12538     12535     12539     12541
     12538     12535     12539     12544     12539     12544     12550     12547
     12540     12539     12541     12542     12540     12539     12541     12543
     12540     12539     12544     12545     12540     12539     12544     12546
     12540     12539     12544     12550     12541     12539     12544     12545
     12541     12539     12544     12546     12541     12539     12544     12550
     12542     12541     12539     12544     12543     12541     12539     12544
     12544     12550     12547     12548     12544     12550     12547     12549
     12544     12550     12547     12551     12545     12544     12550     12547
     12546     12544     12550     12547     12547     12551     12552     12553
     12547     12551     12552     12554     12547     12551     12552     12555
     12548     12547     12551     12552     12549     12547     12551     12552
     12550     12547     12551     12552     12551     12552     12555     12556
     12551     12552     12555     12557     12551     12552     12555     12563
     12552     12555     12557     12558     12552     12555     12563     12564
     12552     12555     12563     12565     12552     12555     12563     12566
     12553     12552     12555     12556     12553     12552     12555     12557
     12553     12552     12555     12563     12554     12552     12555     12556
     12554     12552     12555     12557     12554     12552     12555     12563
     12555     12557     12558     12559     12555     12557     12558     12560
     12555     12563     12566     12567     12556     12555     12557     12558
     12556     12555     12563     12564     12556     12555     12563     12565
     12556     12555     12563     12566     12557     12555     12563     12564
     12557     12555     12563     12565     12557     12555     12563     12566
     12557     12558     12560     12561     12557     12558     12560     12562
     12557     12558     12560     12572     12558     12557     12555     12563
     12558     12560     12572     12573     12558     12560     12572     12574
     12558     12560     12572     12575     12559     12558     12560     12561
     12559     12558     12560     12562     12559     12558     12560     12572
     12560     12572     12575     12576     12560     12572     12575     12577
     12560     12572     12575     12578     12561     12560     12572     12573
     12561     12560     12572     12574     12561     12560     12572     12575
     12562     12560     12572     12573     12562     12560     12572     12574
     12562     12560     12572     12575     12563     12566     12567     12568
     12563     12566     12567     12569     12564     12563     12566     12567
     12565     12563     12566     12567     12566     12567     12569     12570
     12566     12567     12569     12571     12566     12567     12569     12619
     12567     12569     12619     12620     12567     12569     12619     12621
     12567     12569     12619     12622     12568     12567     12569     12570
     12568     12567     12569     12571     12568     12567     12569     12619
     12569     12619     12622     12623     12569     12619     12622     12624
     12569     12619     12622     12625     12570     12569     12619     12620
     12570     12569     12619     12621     12570     12569     12619     12622
     12571     12569     12619     12620     12571     12569     12619     12621
     12571     12569     12619     12622     12572     12575     12578     12579
     12572     12575     12578     12580     12572     12575     12578     12581
     12573     12572     12575     12576     12573     12572     12575     12577
     12573     12572     12575     12578     12574     12572     12575     12576
     12574     12572     12575     12577     12574     12572     12575     12578
     12575     12578     12581     12582     12575     12578     12581     12583
     12575     12578     12581     12584     12576     12575     12578     12579
     12576     12575     12578     12580     12576     12575     12578     12581
     12577     12575     12578     12579     12577     12575     12578     12580
     12577     12575     12578     12581     12578     12581     12584     12585
     12578     12581     12584     12586     12578     12581     12584     12587
     12579     12578     12581     12582     12579     12578     12581     12583
     12579     12578     12581     12584     12580     12578     12581     12582
     12580     12578     12581     12583     12580     12578     12581     12584
     12581     12584     12587     12588     12581     12584     12587     12589
     12581     12584     12587     12590     12582     12581     12584     12585
     12582     12581     12584     12586     12582     12581     12584     12587
     12583     12581     12584     12585     12583     12581     12584     12586
     12583     12581     12584     12587     12584     12587     12590     12591
     12584     12587     12590     12592     12585     12584     12587     12588
     12585     12584     12587     12589     12585     12584     12587     12590
     12586     12584     12587     12588     12586     12584     12587     12589
     12586     12584     12587     12590     12587     12590     12592     12593
     12587     12590     12592     12594     12588     12587     12590     12591
     12588     12587     12590     12592     12589     12587     12590     12591
     12589     12587     12590     12592     12590     12592     12594     12595
     12590     12592     12594     12596     12590     12592     12594     12597
     12591     12590     12592     12593     12591     12590     12592     12594
     12592     12594     12597     12598     12592     12594     12597     12599
     12592     12594     12597     12600     12593     12592     12594     12595
     12593     12592     12594     12596     12593     12592     12594     12597
     12594     12597     12600     12601     12594     12597     12600     12602
     12594     12597     12600     12603     12595     12594     12597     12598
     12595     12594     12597     12599     12595     12594     12597     12600
     12596     12594     12597     12598     12596     12594     12597     12599
     12596     12594     12597     12600     12597     12600     12603     12604
     12597     12600     12603     12605     12597     12600     12603     12606
     12598     12597     12600     12601     12598     12597     12600     12602
     12598     12597     12600     12603     12599     12597     12600     12601
     12599     12597     12600     12602     12599     12597     12600     12603
     12600     12603     12606     12607     12600     12603     12606     12608
     12600     12603     12606     12609     12601     12600     12603     12604
     12601     12600     12603     12605     12601     12600     12603     12606
     12602     12600     12603     12604     12602     12600     12603     12605
     12602     12600     12603     12606     12603     12606     12609     12610
     12603     12606     12609     12611     12603     12606     12609     12612
     12604     12603     12606     12607     12604     12603     12606     12608
     12604     12603     12606     12609     12605     12603     12606     12607
     12605     12603     12606     12608     12605     12603     12606     12609
     12606     12609     12612     12613     12606     12609     12612     12614
     12606     12609     12612     12615     12607     12606     12609     12610
     12607     12606     12609     12611     12607     12606     12609     12612
     12608     12606     12609     12610     12608     12606     12609     12611
     12608     12606     12609     12612     12609     12612     12615     12616
     12609     12612     12615     12617     12609     12612     12615     12618
     12610     12609     12612     12613     12610     12609     12612     12614
     12610     12609     12612     12615     12611     12609     12612     12613
     12611     12609     12612     12614     12611     12609     12612     12615
     12613     12612     12615     12616     12613     12612     12615     12617
     12613     12612     12615     12618     12614     12612     12615     12616
     12614     12612     12615     12617     12614     12612     12615     12618
     12619     12622     12625     12626     12619     12622     12625     12627
     12619     12622     12625     12628     12620     12619     12622     12623
     12620     12619     12622     12624     12620     12619     12622     12625
     12621     12619     12622     12623     12621     12619     12622     12624
     12621     12619     12622     12625     12622     12625     12628     12629
     12622     12625     12628     12630     12622     12625     12628     12631
     12623     12622     12625     12626     12623     12622     12625     12627
     12623     12622     12625     12628     12624     12622     12625     12626
     12624     12622     12625     12627     12624     12622     12625     12628
     12625     12628     12631     12632     12625     12628     12631     12633
     12625     12628     12631     12634     12626     12625     12628     12629
     12626     12625     12628     12630     12626     12625     12628     12631
     12627     12625     12628     12629     12627     12625     12628     12630
     12627     12625     12628     12631     12628     12631     12634     12635
     12628     12631     12634     12636     12628     12631     12634     12637
     12629     12628     12631     12632     12629     12628     12631     12633
     12629     12628     12631     12634     12630     12628     12631     12632
     12630     12628     12631     12633     12630     12628     12631     12634
     12631     12634     12637     12638     12631     12634     12637     12639
     12631     12634     12637     12640     12632     12631     12634     12635
     12632     12631     12634     12636     12632     12631     12634     12637
     12633     12631     12634     12635     12633     12631     12634     12636
     12633     12631     12634     12637     12634     12637     12640     12641
     12634     12637     12640     12642     12634     12637     12640     12643
     12635     12634     12637     12638     12635     12634     12637     12639
     12635     12634     12637     12640     12636     12634     12637     12638
     12636     12634     12637     12639     12636     12634     12637     12640
     12637     12640     12643     12644     12637     12640     12643     12645
     12637     12640     12643     12646     12638     12637     12640     12641
     12638     12637     12640     12642     12638     12637     12640     12643
     12639     12637     12640     12641     12639     12637     12640     12642
     12639     12637     12640     12643     12640     12643     12646     12647
     12640     12643     12646     12648     12640     12643     12646     12649
     12641     12640     12643     12644     12641     12640     12643     12645
     12641     12640     12643     12646     12642     12640     12643     12644
     12642     12640     12643     12645     12642     12640     12643     12646
     12643     12646     12649     12650     12643     12646     12649     12651
     12643     12646     12649     12652     12644     12643     12646     12647
     12644     12643     12646     12648     12644     12643     12646     12649
     12645     12643     12646     12647     12645     12643     12646     12648
     12645     12643     12646     12649     12646     12649     12652     12653
     12646     12649     12652     12654     12646     12649     12652     12655
     12647     12646     12649     12650     12647     12646     12649     12651
     12647     12646     12649     12652     12648     12646     12649     12650
     12648     12646     12649     12651     12648     12646     12649     12652
     12649     12652     12655     12656     12649     12652     12655     12657
     12649     12652     12655     12658     12650     12649     12652     12653
     12650     12649     12652     12654     12650     12649     12652     12655
     12651     12649     12652     12653     12651     12649     12652     12654
     12651     12649     12652     12655     12652     12655     12658     12659
     12652     12655     12658     12660     12652     12655     12658     12661
     12653     12652     12655     12656     12653     12652     12655     12657
     12653     12652     12655     12658     12654     12652     12655     12656
     12654     12652     12655     12657     12654     12652     12655     12658
     12656     12655     12658     12659     12656     12655     12658     12660
     12656     12655     12658     12661     12657     12655     12658     12659
     12657     12655     12658     12660     12657     12655     12658     12661
     12662     12666     12668     12669     12662     12666     12668     12670
     12662     12666     12671     12672     12662     12666     12671     12673
     12662     12666     12671     12677     12663     12662     12666     12667
     12663     12662     12666     12668     12663     12662     12666     12671
     12664     12662     12666     12667     12664     12662     12666     12668
     12664     12662     12666     12671     12665     12662     12666     12667
     12665     12662     12666     12668     12665     12662     12666     12671
     12666     12671     12677     12674     12667     12666     12668     12669
     12667     12666     12668     12670     12667     12666     12671     12672
     12667     12666     12671     12673     12667     12666     12671     12677
     12668     12666     12671     12672     12668     12666     12671     12673
     12668     12666     12671     12677     12669     12668     12666     12671
     12670     12668     12666     12671     12671     12677     12674     12675
     12671     12677     12674     12676     12671     12677     12674     12678
     12672     12671     12677     12674     12673     12671     12677     12674
     12674     12678     12679     12680     12674     12678     12679     12681
     12674     12678     12679     12682     12675     12674     12678     12679
     12676     12674     12678     12679     12677     12674     12678     12679
     12678     12679     12682     12683     12678     12679     12682     12684
     12678     12679     12682     12690     12679     12682     12684     12685
     12679     12682     12690     12691     12679     12682     12690     12692
     12679     12682     12690     12693     12680     12679     12682     12683
     12680     12679     12682     12684     12680     12679     12682     12690
     12681     12679     12682     12683     12681     12679     12682     12684
     12681     12679     12682     12690     12682     12684     12685     12686
     12682     12684     12685     12687     12682     12690     12693     12694
     12683     12682     12684     12685     12683     12682     12690     12691
     12683     12682     12690     12692     12683     12682     12690     12693
     12684     12682     12690     12691     12684     12682     12690     12692
     12684     12682     12690     12693     12684     12685     12687     12688
     12684     12685     12687     12689     12684     12685     12687     12699
     12685     12684     12682     12690     12685     12687     12699     12700
     12685     12687     12699     12701     12685     12687     12699     12702
     12686     12685     12687     12688     12686     12685     12687     12689
     12686     12685     12687     12699     12687     12699     12702     12703
     12687     12699     12702     12704     12687     12699     12702     12705
     12688     12687     12699     12700     12688     12687     12699     12701
     12688     12687     12699     12702     12689     12687     12699     12700
     12689     12687     12699     12701     12689     12687     12699     12702
     12690     12693     12694     12695     12690     12693     12694     12696
     12691     12690     12693     12694     12692     12690     12693     12694
     12693     12694     12696     12697     12693     12694     12696     12698
     12693     12694     12696     12746     12694     12696     12746     12747
     12694     12696     12746     12748     12694     12696     12746     12749
     12695     12694     12696     12697     12695     12694     12696     12698
     12695     12694     12696     12746     12696     12746     12749     12750
     12696     12746     12749     12751     12696     12746     12749     12752
     12697     12696     12746     12747     12697     12696     12746     12748
     12697     12696     12746     12749     12698     12696     12746     12747
     12698     12696     12746     12748     12698     12696     12746     12749
     12699     12702     12705     12706     12699     12702     12705     12707
     12699     12702     12705     12708     12700     12699     12702     12703
     12700     12699     12702     12704     12700     12699     12702     12705
     12701     12699     12702     12703     12701     12699     12702     12704
     12701     12699     12702     12705     12702     12705     12708     12709
     12702     12705     12708     12710     12702     12705     12708     12711
     12703     12702     12705     12706     12703     12702     12705     12707
     12703     12702     12705     12708     12704     12702     12705     12706
     12704     12702     12705     12707     12704     12702     12705     12708
     12705     12708     12711     12712     12705     12708     12711     12713
     12705     12708     12711     12714     12706     12705     12708     12709
     12706     12705     12708     12710     12706     12705     12708     12711
     12707     12705     12708     12709     12707     12705     12708     12710
     12707     12705     12708     12711     12708     12711     12714     12715
     12708     12711     12714     12716     12708     12711     12714     12717
     12709     12708     12711     12712     12709     12708     12711     12713
     12709     12708     12711     12714     12710     12708     12711     12712
     12710     12708     12711     12713     12710     12708     12711     12714
     12711     12714     12717     12718     12711     12714     12717     12719
     12712     12711     12714     12715     12712     12711     12714     12716
     12712     12711     12714     12717     12713     12711     12714     12715
     12713     12711     12714     12716     12713     12711     12714     12717
     12714     12717     12719     12720     12714     12717     12719     12721
     12715     12714     12717     12718     12715     12714     12717     12719
     12716     12714     12717     12718     12716     12714     12717     12719
     12717     12719     12721     12722     12717     12719     12721     12723
     12717     12719     12721     12724     12718     12717     12719     12720
     12718     12717     12719     12721     12719     12721     12724     12725
     12719     12721     12724     12726     12719     12721     12724     12727
     12720     12719     12721     12722     12720     12719     12721     12723
     12720     12719     12721     12724     12721     12724     12727     12728
     12721     12724     12727     12729     12721     12724     12727     12730
     12722     12721     12724     12725     12722     12721     12724     12726
     12722     12721     12724     12727     12723     12721     12724     12725
     12723     12721     12724     12726     12723     12721     12724     12727
     12724     12727     12730     12731     12724     12727     12730     12732
     12724     12727     12730     12733     12725     12724     12727     12728
     12725     12724     12727     12729     12725     12724     12727     12730
     12726     12724     12727     12728     12726     12724     12727     12729
     12726     12724     12727     12730     12727     12730     12733     12734
     12727     12730     12733     12735     12727     12730     12733     12736
     12728     12727     12730     12731     12728     12727     12730     12732
     12728     12727     12730     12733     12729     12727     12730     12731
     12729     12727     12730     12732     12729     12727     12730     12733
     12730     12733     12736     12737     12730     12733     12736     12738
     12730     12733     12736     12739     12731     12730     12733     12734
     12731     12730     12733     12735     12731     12730     12733     12736
     12732     12730     12733     12734     12732     12730     12733     12735
     12732     12730     12733     12736     12733     12736     12739     12740
     12733     12736     12739     12741     12733     12736     12739     12742
     12734     12733     12736     12737     12734     12733     12736     12738
     12734     12733     12736     12739     12735     12733     12736     12737
     12735     12733     12736     12738     12735     12733     12736     12739
     12736     12739     12742     12743     12736     12739     12742     12744
     12736     12739     12742     12745     12737     12736     12739     12740
     12737     12736     12739     12741     12737     12736     12739     12742
     12738     12736     12739     12740     12738     12736     12739     12741
     12738     12736     12739     12742     12740     12739     12742     12743
     12740     12739     12742     12744     12740     12739     12742     12745
     12741     12739     12742     12743     12741     12739     12742     12744
     12741     12739     12742     12745     12746     12749     12752     12753
     12746     12749     12752     12754     12746     12749     12752     12755
     12747     12746     12749     12750     12747     12746     12749     12751
     12747     12746     12749     12752     12748     12746     12749     12750
     12748     12746     12749     12751     12748     12746     12749     12752
     12749     12752     12755     12756     12749     12752     12755     12757
     12749     12752     12755     12758     12750     12749     12752     12753
     12750     12749     12752     12754     12750     12749     12752     12755
     12751     12749     12752     12753     12751     12749     12752     12754
     12751     12749     12752     12755     12752     12755     12758     12759
     12752     12755     12758     12760     12752     12755     12758     12761
     12753     12752     12755     12756     12753     12752     12755     12757
     12753     12752     12755     12758     12754     12752     12755     12756
     12754     12752     12755     12757     12754     12752     12755     12758
     12755     12758     12761     12762     12755     12758     12761     12763
     12755     12758     12761     12764     12756     12755     12758     12759
     12756     12755     12758     12760     12756     12755     12758     12761
     12757     12755     12758     12759     12757     12755     12758     12760
     12757     12755     12758     12761     12758     12761     12764     12765
     12758     12761     12764     12766     12758     12761     12764     12767
     12759     12758     12761     12762     12759     12758     12761     12763
     12759     12758     12761     12764     12760     12758     12761     12762
     12760     12758     12761     12763     12760     12758     12761     12764
     12761     12764     12767     12768     12761     12764     12767     12769
     12761     12764     12767     12770     12762     12761     12764     12765
     12762     12761     12764     12766     12762     12761     12764     12767
     12763     12761     12764     12765     12763     12761     12764     12766
     12763     12761     12764     12767     12764     12767     12770     12771
     12764     12767     12770     12772     12764     12767     12770     12773
     12765     12764     12767     12768     12765     12764     12767     12769
     12765     12764     12767     12770     12766     12764     12767     12768
     12766     12764     12767     12769     12766     12764     12767     12770
     12767     12770     12773     12774     12767     12770     12773     12775
     12767     12770     12773     12776     12768     12767     12770     12771
     12768     12767     12770     12772     12768     12767     12770     12773
     12769     12767     12770     12771     12769     12767     12770     12772
     12769     12767     12770     12773     12770     12773     12776     12777
     12770     12773     12776     12778     12770     12773     12776     12779
     12771     12770     12773     12774     12771     12770     12773     12775
     12771     12770     12773     12776     12772     12770     12773     12774
     12772     12770     12773     12775     12772     12770     12773     12776
     12773     12776     12779     12780     12773     12776     12779     12781
     12773     12776     12779     12782     12774     12773     12776     12777
     12774     12773     12776     12778     12774     12773     12776     12779
     12775     12773     12776     12777     12775     12773     12776     12778
     12775     12773     12776     12779     12776     12779     12782     12783
     12776     12779     12782     12784     12776     12779     12782     12785
     12777     12776     12779     12780     12777     12776     12779     12781
     12777     12776     12779     12782     12778     12776     12779     12780
     12778     12776     12779     12781     12778     12776     12779     12782
     12779     12782     12785     12786     12779     12782     12785     12787
     12779     12782     12785     12788     12780     12779     12782     12783
     12780     12779     12782     12784     12780     12779     12782     12785
     12781     12779     12782     12783     12781     12779     12782     12784
     12781     12779     12782     12785     12783     12782     12785     12786
     12783     12782     12785     12787     12783     12782     12785     12788
     12784     12782     12785     12786     12784     12782     12785     12787
     12784     12782     12785     12788     20117     20118     20133     20134
     20117     20118     20133     20135     20117     20118     20133     20139
     20118     20117     20121     20122     20118     20117     20121     20123
     20118     20117     20121     20124     20118     20117     20125     20126
     20118     20117     20125     20127     20118     20117     20125     20128
     20118     20117     20129     20130     20118     20117     20129     20131
     20118     20117     20129     20132     20118     20133     20139     20136
     20119     20118     20117     20121     20119     20118     20117     20125
     20119     20118     20117     20129     20119     20118     20133     20134
     20119     20118     20133     20135     20119     20118     20133     20139
     20120     20118     20117     20121     20120     20118     20117     20125
     20120     20118     20117     20129     20120     20118     20133     20134
     20120     20118     20133     20135     20120     20118     20133     20139
     20121     20117     20118     20133     20121     20117     20125     20126
     20121     20117     20125     20127     20121     20117     20125     20128
     20121     20117     20129     20130     20121     20117     20129     20131
     20121     20117     20129     20132     20122     20121     20117     20125
     20122     20121     20117     20129     20123     20121     20117     20125
     20123     20121     20117     20129     20124     20121     20117     20125
     20124     20121     20117     20129     20125     20117     20118     20133
     20125     20117     20129     20130     20125     20117     20129     20131
     20125     20117     20129     20132     20126     20125     20117     20129
     20127     20125     20117     20129     20128     20125     20117     20129
     20129     20117     20118     20133     20133     20139     20136     20137
     20133     20139     20136     20138     20133     20139     20136     20140
     20134     20133     20139     20136     20135     20133     20139     20136
     20136     20140     20141     20142     20136     20140     20141     20143
     20136     20140     20141     20144     20137     20136     20140     20141
     20138     20136     20140     20141     20139     20136     20140     20141
     20140     20141     20144     20145     20140     20141     20144     20146
     20140     20141     20144     20152     20141     20144     20146     20147
     20141     20144     20152     20153     20141     20144     20152     20154
     20141     20144     20152     20155     20142     20141     20144     20145
     20142     20141     20144     20146     20142     20141     20144     20152
     20143     20141     20144     20145     20143     20141     20144     20146
     20143     20141     20144     20152     20144     20146     20147     20148
     20144     20146     20147     20149     20144     20152     20155     20156
     20145     20144     20146     20147     20145     20144     20152     20153
     20145     20144     20152     20154     20145     20144     20152     20155
     20146     20144     20152     20153     20146     20144     20152     20154
     20146     20144     20152     20155     20146     20147     20149     20150
     20146     20147     20149     20151     20146     20147     20149     20161
     20147     20146     20144     20152     20147     20149     20161     20162
     20147     20149     20161     20163     20147     20149     20161     20164
     20148     20147     20149     20150     20148     20147     20149     20151
     20148     20147     20149     20161     20149     20161     20164     20165
     20149     20161     20164     20166     20149     20161     20164     20167
     20150     20149     20161     20162     20150     20149     20161     20163
     20150     20149     20161     20164     20151     20149     20161     20162
     20151     20149     20161     20163     20151     20149     20161     20164
     20152     20155     20156     20157     20152     20155     20156     20158
     20153     20152     20155     20156     20154     20152     20155     20156
     20155     20156     20158     20159     20155     20156     20158     20160
     20155     20156     20158     20208     20156     20158     20208     20209
     20156     20158     20208     20210     20156     20158     20208     20211
     20157     20156     20158     20159     20157     20156     20158     20160
     20157     20156     20158     20208     20158     20208     20211     20212
     20158     20208     20211     20213     20158     20208     20211     20214
     20159     20158     20208     20209     20159     20158     20208     20210
     20159     20158     20208     20211     20160     20158     20208     20209
     20160     20158     20208     20210     20160     20158     20208     20211
     20161     20164     20167     20168     20161     20164     20167     20169
     20161     20164     20167     20170     20162     20161     20164     20165
     20162     20161     20164     20166     20162     20161     20164     20167
     20163     20161     20164     20165     20163     20161     20164     20166
     20163     20161     20164     20167     20164     20167     20170     20171
     20164     20167     20170     20172     20164     20167     20170     20173
     20165     20164     20167     20168     20165     20164     20167     20169
     20165     20164     20167     20170     20166     20164     20167     20168
     20166     20164     20167     20169     20166     20164     20167     20170
     20167     20170     20173     20174     20167     20170     20173     20175
     20167     20170     20173     20176     20168     20167     20170     20171
     20168     20167     20170     20172     20168     20167     20170     20173
     20169     20167     20170     20171     20169     20167     20170     20172
     20169     20167     20170     20173     20170     20173     20176     20177
     20170     20173     20176     20178     20170     20173     20176     20179
     20171     20170     20173     20174     20171     20170     20173     20175
     20171     20170     20173     20176     20172     20170     20173     20174
     20172     20170     20173     20175     20172     20170     20173     20176
     20173     20176     20179     20180     20173     20176     20179     20181
     20174     20173     20176     20177     20174     20173     20176     20178
     20174     20173     20176     20179     20175     20173     20176     20177
     20175     20173     20176     20178     20175     20173     20176     20179
     20176     20179     20181     20182     20176     20179     20181     20183
     20177     20176     20179     20180     20177     20176     20179     20181
     20178     20176     20179     20180     20178     20176     20179     20181
     20179     20181     20183     20184     20179     20181     20183     20185
     20179     20181     20183     20186     20180     20179     20181     20182
     20180     20179     20181     20183     20181     20183     20186     20187
     20181     20183     20186     20188     20181     20183     20186     20189
     20182     20181     20183     20184     20182     20181     20183     20185
     20182     20181     20183     20186     20183     20186     20189     20190
     20183     20186     20189     20191     20183     20186     20189     20192
     20184     20183     20186     20187     20184     20183     20186     20188
     20184     20183     20186     20189     20185     20183     20186     20187
     20185     20183     20186     20188     20185     20183     20186     20189
     20186     20189     20192     20193     20186     20189     20192     20194
     20186     20189     20192     20195     20187     20186     20189     20190
     20187     20186     20189     20191     20187     20186     20189     20192
     20188     20186     20189     20190     20188     20186     20189     20191
     20188     20186     20189     20192     20189     20192     20195     20196
     20189     20192     20195     20197     20189     20192     20195     20198
     20190     20189     20192     20193     20190     20189     20192     20194
     20190     20189     20192     20195     20191     20189     20192     20193
     20191     20189     20192     20194     20191     20189     20192     20195
     20192     20195     20198     20199     20192     20195     20198     20200
     20192     20195     20198     20201     20193     20192     20195     20196
     20193     20192     20195     20197     20193     20192     20195     20198
     20194     20192     20195     20196     20194     20192     20195     20197
     20194     20192     20195     20198     20195     20198     20201     20202
     20195     20198     20201     20203     20195     20198     20201     20204
     20196     20195     20198     20199     20196     20195     20198     20200
     20196     20195     20198     20201     20197     20195     20198     20199
     20197     20195     20198     20200     20197     20195     20198     20201
     20198     20201     20204     20205     20198     20201     20204     20206
     20198     20201     20204     20207     20199     20198     20201     20202
     20199     20198     20201     20203     20199     20198     20201     20204
     20200     20198     20201     20202     20200     20198     20201     20203
     20200     20198     20201     20204     20202     20201     20204     20205
     20202     20201     20204     20206     20202     20201     20204     20207
     20203     20201     20204     20205     20203     20201     20204     20206
     20203     20201     20204     20207     20208     20211     20214     20215
     20208     20211     20214     20216     20208     20211     20214     20217
     20209     20208     20211     20212     20209     20208     20211     20213
     20209     20208     20211     20214     20210     20208     20211     20212
     20210     20208     20211     20213     20210     20208     20211     20214
     20211     20214     20217     20218     20211     20214     20217     20219
     20211     20214     20217     20220     20212     20211     20214     20215
     20212     20211     20214     20216     20212     20211     20214     20217
     20213     20211     20214     20215     20213     20211     20214     20216
     20213     20211     20214     20217     20214     20217     20220     20221
     20214     20217     20220     20222     20214     20217     20220     20223
     20215     20214     20217     20218     20215     20214     20217     20219
     20215     20214     20217     20220     20216     20214     20217     20218
     20216     20214     20217     20219     20216     20214     20217     20220
     20217     20220     20223     20224     20217     20220     20223     20225
     20217     20220     20223     20226     20218     20217     20220     20221
     20218     20217     20220     20222     20218     20217     20220     20223
     20219     20217     20220     20221     20219     20217     20220     20222
     20219     20217     20220     20223     20220     20223     20226     20227
     20220     20223     20226     20228     20220     20223     20226     20229
     20221     20220     20223     20224     20221     20220     20223     20225
     20221     20220     20223     20226     20222     20220     20223     20224
     20222     20220     20223     20225     20222     20220     20223     20226
     20223     20226     20229     20230     20223     20226     20229     20231
     20223     20226     20229     20232     20224     20223     20226     20227
     20224     20223     20226     20228     20224     20223     20226     20229
     20225     20223     20226     20227     20225     20223     20226     20228
     20225     20223     20226     20229     20226     20229     20232     20233
     20226     20229     20232     20234     20226     20229     20232     20235
     20227     20226     20229     20230     20227     20226     20229     20231
     20227     20226     20229     20232     20228     20226     20229     20230
     20228     20226     20229     20231     20228     20226     20229     20232
     20229     20232     20235     20236     20229     20232     20235     20237
     20229     20232     20235     20238     20230     20229     20232     20233
     20230     20229     20232     20234     20230     20229     20232     20235
     20231     20229     20232     20233     20231     20229     20232     20234
     20231     20229     20232     20235     20232     20235     20238     20239
     20232     20235     20238     20240     20232     20235     20238     20241
     20233     20232     20235     20236     20233     20232     20235     20237
     20233     20232     20235     20238     20234     20232     20235     20236
     20234     20232     20235     20237     20234     20232     20235     20238
     20235     20238     20241     20242     20235     20238     20241     20243
     20235     20238     20241     20244     20236     20235     20238     20239
     20236     20235     20238     20240     20236     20235     20238     20241
     20237     20235     20238     20239     20237     20235     20238     20240
     20237     20235     20238     20241     20238     20241     20244     20245
     20238     20241     20244     20246     20238     20241     20244     20247
     20239     20238     20241     20242     20239     20238     20241     20243
     20239     20238     20241     20244     20240     20238     20241     20242
     20240     20238     20241     20243     20240     20238     20241     20244
     20241     20244     20247     20248     20241     20244     20247     20249
     20241     20244     20247     20250     20242     20241     20244     20245
     20242     20241     20244     20246     20242     20241     20244     20247
     20243     20241     20244     20245     20243     20241     20244     20246
     20243     20241     20244     20247     20245     20244     20247     20248
     20245     20244     20247     20249     20245     20244     20247     20250
     20246     20244     20247     20248     20246     20244     20247     20249
     20246     20244     20247     20250     20251     20252     20267     20268
     20251     20252     20267     20269     20251     20252     20267     20273
     20252     20251     20255     20256     20252     20251     20255     20257
     20252     20251     20255     20258     20252     20251     20259     20260
     20252     20251     20259     20261     20252     20251     20259     20262
     20252     20251     20263     20264     20252     20251     20263     20265
     20252     20251     20263     20266     20252     20267     20273     20270
     20253     20252     20251     20255     20253     20252     20251     20259
     20253     20252     20251     20263     20253     20252     20267     20268
     20253     20252     20267     20269     20253     20252     20267     20273
     20254     20252     20251     20255     20254     20252     20251     20259
     20254     20252     20251     20263     20254     20252     20267     20268
     20254     20252     20267     20269     20254     20252     20267     20273
     20255     20251     20252     20267     20255     20251     20259     20260
     20255     20251     20259     20261     20255     20251     20259     20262
     20255     20251     20263     20264     20255     20251     20263     20265
     20255     20251     20263     20266     20256     20255     20251     20259
     20256     20255     20251     20263     20257     20255     20251     20259
     20257     20255     20251     20263     20258     20255     20251     20259
     20258     20255     20251     20263     20259     20251     20252     20267
     20259     20251     20263     20264     20259     20251     20263     20265
     20259     20251     20263     20266     20260     20259     20251     20263
     20261     20259     20251     20263     20262     20259     20251     20263
     20263     20251     20252     20267     20267     20273     20270     20271
     20267     20273     20270     20272     20267     20273     20270     20274
     20268     20267     20273     20270     20269     20267     20273     20270
     20270     20274     20275     20276     20270     20274     20275     20277
     20270     20274     20275     20278     20271     20270     20274     20275
     20272     20270     20274     20275     20273     20270     20274     20275
     20274     20275     20278     20279     20274     20275     20278     20280
     20274     20275     20278     20286     20275     20278     20280     20281
     20275     20278     20286     20287     20275     20278     20286     20288
     20275     20278     20286     20289     20276     20275     20278     20279
     20276     20275     20278     20280     20276     20275     20278     20286
     20277     20275     20278     20279     20277     20275     20278     20280
     20277     20275     20278     20286     20278     20280     20281     20282
     20278     20280     20281     20283     20278     20286     20289     20290
     20279     20278     20280     20281     20279     20278     20286     20287
     20279     20278     20286     20288     20279     20278     20286     20289
     20280     20278     20286     20287     20280     20278     20286     20288
     20280     20278     20286     20289     20280     20281     20283     20284
     20280     20281     20283     20285     20280     20281     20283     20295
     20281     20280     20278     20286     20281     20283     20295     20296
     20281     20283     20295     20297     20281     20283     20295     20298
     20282     20281     20283     20284     20282     20281     20283     20285
     20282     20281     20283     20295     20283     20295     20298     20299
     20283     20295     20298     20300     20283     20295     20298     20301
     20284     20283     20295     20296     20284     20283     20295     20297
     20284     20283     20295     20298     20285     20283     20295     20296
     20285     20283     20295     20297     20285     20283     20295     20298
     20286     20289     20290     20291     20286     20289     20290     20292
     20287     20286     20289     20290     20288     20286     20289     20290
     20289     20290     20292     20293     20289     20290     20292     20294
     20289     20290     20292     20342     20290     20292     20342     20343
     20290     20292     20342     20344     20290     20292     20342     20345
     20291     20290     20292     20293     20291     20290     20292     20294
     20291     20290     20292     20342     20292     20342     20345     20346
     20292     20342     20345     20347     20292     20342     20345     20348
     20293     20292     20342     20343     20293     20292     20342     20344
     20293     20292     20342     20345     20294     20292     20342     20343
     20294     20292     20342     20344     20294     20292     20342     20345
     20295     20298     20301     20302     20295     20298     20301     20303
     20295     20298     20301     20304     20296     20295     20298     20299
     20296     20295     20298     20300     20296     20295     20298     20301
     20297     20295     20298     20299     20297     20295     20298     20300
     20297     20295     20298     20301     20298     20301     20304     20305
     20298     20301     20304     20306     20298     20301     20304     20307
     20299     20298     20301     20302     20299     20298     20301     20303
     20299     20298     20301     20304     20300     20298     20301     20302
     20300     20298     20301     20303     20300     20298     20301     20304
     20301     20304     20307     20308     20301     20304     20307     20309
     20301     20304     20307     20310     20302     20301     20304     20305
     20302     20301     20304     20306     20302     20301     20304     20307
     20303     20301     20304     20305     20303     20301     20304     20306
     20303     20301     20304     20307     20304     20307     20310     20311
     20304     20307     20310     20312     20304     20307     20310     20313
     20305     20304     20307     20308     20305     20304     20307     20309
     20305     20304     20307     20310     20306     20304     20307     20308
     20306     20304     20307     20309     20306     20304     20307     20310
     20307     20310     20313     20314     20307     20310     20313     20315
     20308     20307     20310     20311     20308     20307     20310     20312
     20308     20307     20310     20313     20309     20307     20310     20311
     20309     20307     20310     20312     20309     20307     20310     20313
     20310     20313     20315     20316     20310     20313     20315     20317
     20311     20310     20313     20314     20311     20310     20313     20315
     20312     20310     20313     20314     20312     20310     20313     20315
     20313     20315     20317     20318     20313     20315     20317     20319
     20313     20315     20317     20320     20314     20313     20315     20316
     20314     20313     20315     20317     20315     20317     20320     20321
     20315     20317     20320     20322     20315     20317     20320     20323
     20316     20315     20317     20318     20316     20315     20317     20319
     20316     20315     20317     20320     20317     20320     20323     20324
     20317     20320     20323     20325     20317     20320     20323     20326
     20318     20317     20320     20321     20318     20317     20320     20322
     20318     20317     20320     20323     20319     20317     20320     20321
     20319     20317     20320     20322     20319     20317     20320     20323
     20320     20323     20326     20327     20320     20323     20326     20328
     20320     20323     20326     20329     20321     20320     20323     20324
     20321     20320     20323     20325     20321     20320     20323     20326
     20322     20320     20323     20324     20322     20320     20323     20325
     20322     20320     20323     20326     20323     20326     20329     20330
     20323     20326     20329     20331     20323     20326     20329     20332
     20324     20323     20326     20327     20324     20323     20326     20328
     20324     20323     20326     20329     20325     20323     20326     20327
     20325     20323     20326     20328     20325     20323     20326     20329
     20326     20329     20332     20333     20326     20329     20332     20334
     20326     20329     20332     20335     20327     20326     20329     20330
     20327     20326     20329     20331     20327     20326     20329     20332
     20328     20326     20329     20330     20328     20326     20329     20331
     20328     20326     20329     20332     20329     20332     20335     20336
     20329     20332     20335     20337     20329     20332     20335     20338
     20330     20329     20332     20333     20330     20329     20332     20334
     20330     20329     20332     20335     20331     20329     20332     20333
     20331     20329     20332     20334     20331     20329     20332     20335
     20332     20335     20338     20339     20332     20335     20338     20340
     20332     20335     20338     20341     20333     20332     20335     20336
     20333     20332     20335     20337     20333     20332     20335     20338
     20334     20332     20335     20336     20334     20332     20335     20337
     20334     20332     20335     20338     20336     20335     20338     20339
     20336     20335     20338     20340     20336     20335     20338     20341
     20337     20335     20338     20339     20337     20335     20338     20340
     20337     20335     20338     20341     20342     20345     20348     20349
     20342     20345     20348     20350     20342     20345     20348     20351
     20343     20342     20345     20346     20343     20342     20345     20347
     20343     20342     20345     20348     20344     20342     20345     20346
     20344     20342     20345     20347     20344     20342     20345     20348
     20345     20348     20351     20352     20345     20348     20351     20353
     20345     20348     20351     20354     20346     20345     20348     20349
     20346     20345     20348     20350     20346     20345     20348     20351
     20347     20345     20348     20349     20347     20345     20348     20350
     20347     20345     20348     20351     20348     20351     20354     20355
     20348     20351     20354     20356     20348     20351     20354     20357
     20349     20348     20351     20352     20349     20348     20351     20353
     20349     20348     20351     20354     20350     20348     20351     20352
     20350     20348     20351     20353     20350     20348     20351     20354
     20351     20354     20357     20358     20351     20354     20357     20359
     20351     20354     20357     20360     20352     20351     20354     20355
     20352     20351     20354     20356     20352     20351     20354     20357
     20353     20351     20354     20355     20353     20351     20354     20356
     20353     20351     20354     20357     20354     20357     20360     20361
     20354     20357     20360     20362     20354     20357     20360     20363
     20355     20354     20357     20358     20355     20354     20357     20359
     20355     20354     20357     20360     20356     20354     20357     20358
     20356     20354     20357     20359     20356     20354     20357     20360
     20357     20360     20363     20364     20357     20360     20363     20365
     20357     20360     20363     20366     20358     20357     20360     20361
     20358     20357     20360     20362     20358     20357     20360     20363
     20359     20357     20360     20361     20359     20357     20360     20362
     20359     20357     20360     20363     20360     20363     20366     20367
     20360     20363     20366     20368     20360     20363     20366     20369
     20361     20360     20363     20364     20361     20360     20363     20365
     20361     20360     20363     20366     20362     20360     20363     20364
     20362     20360     20363     20365     20362     20360     20363     20366
     20363     20366     20369     20370     20363     20366     20369     20371
     20363     20366     20369     20372     20364     20363     20366     20367
     20364     20363     20366     20368     20364     20363     20366     20369
     20365     20363     20366     20367     20365     20363     20366     20368
     20365     20363     20366     20369     20366     20369     20372     20373
     20366     20369     20372     20374     20366     20369     20372     20375
     20367     20366     20369     20370     20367     20366     20369     20371
     20367     20366     20369     20372     20368     20366     20369     20370
     20368     20366     20369     20371     20368     20366     20369     20372
     20369     20372     20375     20376     20369     20372     20375     20377
     20369     20372     20375     20378     20370     20369     20372     20373
     20370     20369     20372     20374     20370     20369     20372     20375
     20371     20369     20372     20373     20371     20369     20372     20374
     20371     20369     20372     20375     20372     20375     20378     20379
     20372     20375     20378     20380     20372     20375     20378     20381
     20373     20372     20375     20376     20373     20372     20375     20377
     20373     20372     20375     20378     20374     20372     20375     20376
     20374     20372     20375     20377     20374     20372     20375     20378
     20375     20378     20381     20382     20375     20378     20381     20383
     20375     20378     20381     20384     20376     20375     20378     20379
     20376     20375     20378     20380     20376     20375     20378     20381
     20377     20375     20378     20379     20377     20375     20378     20380
     20377     20375     20378     20381     20379     20378     20381     20382
     20379     20378     20381     20383     20379     20378     20381     20384
     20380     20378     20381     20382     20380     20378     20381     20383
     20380     20378     20381     20384     20385     20386     20401     20402
     20385     20386     20401     20403     20385     20386     20401     20407
     20386     20385     20389     20390     20386     20385     20389     20391
     20386     20385     20389     20392     20386     20385     20393     20394
     20386     20385     20393     20395     20386     20385     20393     20396
     20386     20385     20397     20398     20386     20385     20397     20399
     20386     20385     20397     20400     20386     20401     20407     20404
     20387     20386     20385     20389     20387     20386     20385     20393
     20387     20386     20385     20397     20387     20386     20401     20402
     20387     20386     20401     20403     20387     20386     20401     20407
     20388     20386     20385     20389     20388     20386     20385     20393
     20388     20386     20385     20397     20388     20386     20401     20402
     20388     20386     20401     20403     20388     20386     20401     20407
     20389     20385     20386     20401     20389     20385     20393     20394
     20389     20385     20393     20395     20389     20385     20393     20396
     20389     20385     20397     20398     20389     20385     20397     20399
     20389     20385     20397     20400     20390     20389     20385     20393
     20390     20389     20385     20397     20391     20389     20385     20393
     20391     20389     20385     20397     20392     20389     20385     20393
     20392     20389     20385     20397     20393     20385     20386     20401
     20393     20385     20397     20398     20393     20385     20397     20399
     20393     20385     20397     20400     20394     20393     20385     20397
     20395     20393     20385     20397     20396     20393     20385     20397
     20397     20385     20386     20401     20401     20407     20404     20405
     20401     20407     20404     20406     20401     20407     20404     20408
     20402     20401     20407     20404     20403     20401     20407     20404
     20404     20408     20409     20410     20404     20408     20409     20411
     20404     20408     20409     20412     20405     20404     20408     20409
     20406     20404     20408     20409     20407     20404     20408     20409
     20408     20409     20412     20413     20408     20409     20412     20414
     20408     20409     20412     20420     20409     20412     20414     20415
     20409     20412     20420     20421     20409     20412     20420     20422
     20409     20412     20420     20423     20410     20409     20412     20413
     20410     20409     20412     20414     20410     20409     20412     20420
     20411     20409     20412     20413     20411     20409     20412     20414
     20411     20409     20412     20420     20412     20414     20415     20416
     20412     20414     20415     20417     20412     20420     20423     20424
     20413     20412     20414     20415     20413     20412     20420     20421
     20413     20412     20420     20422     20413     20412     20420     20423
     20414     20412     20420     20421     20414     20412     20420     20422
     20414     20412     20420     20423     20414     20415     20417     20418
     20414     20415     20417     20419     20414     20415     20417     20429
     20415     20414     20412     20420     20415     20417     20429     20430
     20415     20417     20429     20431     20415     20417     20429     20432
     20416     20415     20417     20418     20416     20415     20417     20419
     20416     20415     20417     20429     20417     20429     20432     20433
     20417     20429     20432     20434     20417     20429     20432     20435
     20418     20417     20429     20430     20418     20417     20429     20431
     20418     20417     20429     20432     20419     20417     20429     20430
     20419     20417     20429     20431     20419     20417     20429     20432
     20420     20423     20424     20425     20420     20423     20424     20426
     20421     20420     20423     20424     20422     20420     20423     20424
     20423     20424     20426     20427     20423     20424     20426     20428
     20423     20424     20426     20476     20424     20426     20476     20477
     20424     20426     20476     20478     20424     20426     20476     20479
     20425     20424     20426     20427     20425     20424     20426     20428
     20425     20424     20426     20476     20426     20476     20479     20480
     20426     20476     20479     20481     20426     20476     20479     20482
     20427     20426     20476     20477     20427     20426     20476     20478
     20427     20426     20476     20479     20428     20426     20476     20477
     20428     20426     20476     20478     20428     20426     20476     20479
     20429     20432     20435     20436     20429     20432     20435     20437
     20429     20432     20435     20438     20430     20429     20432     20433
     20430     20429     20432     20434     20430     20429     20432     20435
     20431     20429     20432     20433     20431     20429     20432     20434
     20431     20429     20432     20435     20432     20435     20438     20439
     20432     20435     20438     20440     20432     20435     20438     20441
     20433     20432     20435     20436     20433     20432     20435     20437
     20433     20432     20435     20438     20434     20432     20435     20436
     20434     20432     20435     20437     20434     20432     20435     20438
     20435     20438     20441     20442     20435     20438     20441     20443
     20435     20438     20441     20444     20436     20435     20438     20439
     20436     20435     20438     20440     20436     20435     20438     20441
     20437     20435     20438     20439     20437     20435     20438     20440
     20437     20435     20438     20441     20438     20441     20444     20445
     20438     20441     20444     20446     20438     20441     20444     20447
     20439     20438     20441     20442     20439     20438     20441     20443
     20439     20438     20441     20444     20440     20438     20441     20442
     20440     20438     20441     20443     20440     20438     20441     20444
     20441     20444     20447     20448     20441     20444     20447     20449
     20442     20441     20444     20445     20442     20441     20444     20446
     20442     20441     20444     20447     20443     20441     20444     20445
     20443     20441     20444     20446     20443     20441     20444     20447
     20444     20447     20449     20450     20444     20447     20449     20451
     20445     20444     20447     20448     20445     20444     20447     20449
     20446     20444     20447     20448     20446     20444     20447     20449
     20447     20449     20451     20452     20447     20449     20451     20453
     20447     20449     20451     20454     20448     20447     20449     20450
     20448     20447     20449     20451     20449     20451     20454     20455
     20449     20451     20454     20456     20449     20451     20454     20457
     20450     20449     20451     20452     20450     20449     20451     20453
     20450     20449     20451     20454     20451     20454     20457     20458
     20451     20454     20457     20459     20451     20454     20457     20460
     20452     20451     20454     20455     20452     20451     20454     20456
     20452     20451     20454     20457     20453     20451     20454     20455
     20453     20451     20454     20456     20453     20451     20454     20457
     20454     20457     20460     20461     20454     20457     20460     20462
     20454     20457     20460     20463     20455     20454     20457     20458
     20455     20454     20457     20459     20455     20454     20457     20460
     20456     20454     20457     20458     20456     20454     20457     20459
     20456     20454     20457     20460     20457     20460     20463     20464
     20457     20460     20463     20465     20457     20460     20463     20466
     20458     20457     20460     20461     20458     20457     20460     20462
     20458     20457     20460     20463     20459     20457     20460     20461
     20459     20457     20460     20462     20459     20457     20460     20463
     20460     20463     20466     20467     20460     20463     20466     20468
     20460     20463     20466     20469     20461     20460     20463     20464
     20461     20460     20463     20465     20461     20460     20463     20466
     20462     20460     20463     20464     20462     20460     20463     20465
     20462     20460     20463     20466     20463     20466     20469     20470
     20463     20466     20469     20471     20463     20466     20469     20472
     20464     20463     20466     20467     20464     20463     20466     20468
     20464     20463     20466     20469     20465     20463     20466     20467
     20465     20463     20466     20468     20465     20463     20466     20469
     20466     20469     20472     20473     20466     20469     20472     20474
     20466     20469     20472     20475     20467     20466     20469     20470
     20467     20466     20469     20471     20467     20466     20469     20472
     20468     20466     20469     20470     20468     20466     20469     20471
     20468     20466     20469     20472     20470     20469     20472     20473
     20470     20469     20472     20474     20470     20469     20472     20475
     20471     20469     20472     20473     20471     20469     20472     20474
     20471     20469     20472     20475     20476     20479     20482     20483
     20476     20479     20482     20484     20476     20479     20482     20485
     20477     20476     20479     20480     20477     20476     20479     20481
     20477     20476     20479     20482     20478     20476     20479     20480
     20478     20476     20479     20481     20478     20476     20479     20482
     20479     20482     20485     20486     20479     20482     20485     20487
     20479     20482     20485     20488     20480     20479     20482     20483
     20480     20479     20482     20484     20480     20479     20482     20485
     20481     20479     20482     20483     20481     20479     20482     20484
     20481     20479     20482     20485     20482     20485     20488     20489
     20482     20485     20488     20490     20482     20485     20488     20491
     20483     20482     20485     20486     20483     20482     20485     20487
     20483     20482     20485     20488     20484     20482     20485     20486
     20484     20482     20485     20487     20484     20482     20485     20488
     20485     20488     20491     20492     20485     20488     20491     20493
     20485     20488     20491     20494     20486     20485     20488     20489
     20486     20485     20488     20490     20486     20485     20488     20491
     20487     20485     20488     20489     20487     20485     20488     20490
     20487     20485     20488     20491     20488     20491     20494     20495
     20488     20491     20494     20496     20488     20491     20494     20497
     20489     20488     20491     20492     20489     20488     20491     20493
     20489     20488     20491     20494     20490     20488     20491     20492
     20490     20488     20491     20493     20490     20488     20491     20494
     20491     20494     20497     20498     20491     20494     20497     20499
     20491     20494     20497     20500     20492     20491     20494     20495
     20492     20491     20494     20496     20492     20491     20494     20497
     20493     20491     20494     20495     20493     20491     20494     20496
     20493     20491     20494     20497     20494     20497     20500     20501
     20494     20497     20500     20502     20494     20497     20500     20503
     20495     20494     20497     20498     20495     20494     20497     20499
     20495     20494     20497     20500     20496     20494     20497     20498
     20496     20494     20497     20499     20496     20494     20497     20500
     20497     20500     20503     20504     20497     20500     20503     20505
     20497     20500     20503     20506     20498     20497     20500     20501
     20498     20497     20500     20502     20498     20497     20500     20503
     20499     20497     20500     20501     20499     20497     20500     20502
     20499     20497     20500     20503     20500     20503     20506     20507
     20500     20503     20506     20508     20500     20503     20506     20509
     20501     20500     20503     20504     20501     20500     20503     20505
     20501     20500     20503     20506     20502     20500     20503     20504
     20502     20500     20503     20505     20502     20500     20503     20506
     20503     20506     20509     20510     20503     20506     20509     20511
     20503     20506     20509     20512     20504     20503     20506     20507
     20504     20503     20506     20508     20504     20503     20506     20509
     20505     20503     20506     20507     20505     20503     20506     20508
     20505     20503     20506     20509     20506     20509     20512     20513
     20506     20509     20512     20514     20506     20509     20512     20515
     20507     20506     20509     20510     20507     20506     20509     20511
     20507     20506     20509     20512     20508     20506     20509     20510
     20508     20506     20509     20511     20508     20506     20509     20512
     20509     20512     20515     20516     20509     20512     20515     20517
     20509     20512     20515     20518     20510     20509     20512     20513
     20510     20509     20512     20514     20510     20509     20512     20515
     20511     20509     20512     20513     20511     20509     20512     20514
     20511     20509     20512     20515     20513     20512     20515     20516
     20513     20512     20515     20517     20513     20512     20515     20518
     20514     20512     20515     20516     20514     20512     20515     20517
     20514     20512     20515     20518     12789     12793     12795     12796
     12789     12793     12795     12797     12789     12793     12798     12799
     12789     12793     12798     12800     12789     12793     12798     12804
     12790     12789     12793     12794     12790     12789     12793     12795
     12790     12789     12793     12798     12791     12789     12793     12794
     12791     12789     12793     12795     12791     12789     12793     12798
     12792     12789     12793     12794     12792     12789     12793     12795
     12792     12789     12793     12798     12793     12798     12804     12801
     12794     12793     12795     12796     12794     12793     12795     12797
     12794     12793     12798     12799     12794     12793     12798     12800
     12794     12793     12798     12804     12795     12793     12798     12799
     12795     12793     12798     12800     12795     12793     12798     12804
     12796     12795     12793     12798     12797     12795     12793     12798
     12798     12804     12801     12802     12798     12804     12801     12803
     12798     12804     12801     12805     12799     12798     12804     12801
     12800     12798     12804     12801     12801     12805     12806     12807
     12801     12805     12806     12808     12801     12805     12806     12809
     12802     12801     12805     12806     12803     12801     12805     12806
     12804     12801     12805     12806     12805     12806     12809     12810
     12805     12806     12809     12811     12805     12806     12809     12817
     12806     12809     12811     12812     12806     12809     12817     12818
     12806     12809     12817     12819     12806     12809     12817     12820
     12807     12806     12809     12810     12807     12806     12809     12811
     12807     12806     12809     12817     12808     12806     12809     12810
     12808     12806     12809     12811     12808     12806     12809     12817
     12809     12811     12812     12813     12809     12811     12812     12814
     12809     12817     12820     12821     12810     12809     12811     12812
     12810     12809     12817     12818     12810     12809     12817     12819
     12810     12809     12817     12820     12811     12809     12817     12818
     12811     12809     12817     12819     12811     12809     12817     12820
     12811     12812     12814     12815     12811     12812     12814     12816
     12811     12812     12814     12826     12812     12811     12809     12817
     12812     12814     12826     12827     12812     12814     12826     12828
     12812     12814     12826     12829     12813     12812     12814     12815
     12813     12812     12814     12816     12813     12812     12814     12826
     12814     12826     12829     12830     12814     12826     12829     12831
     12814     12826     12829     12832     12815     12814     12826     12827
     12815     12814     12826     12828     12815     12814     12826     12829
     12816     12814     12826     12827     12816     12814     12826     12828
     12816     12814     12826     12829     12817     12820     12821     12822
     12817     12820     12821     12823     12818     12817     12820     12821
     12819     12817     12820     12821     12820     12821     12823     12824
     12820     12821     12823     12825     12820     12821     12823     12873
     12821     12823     12873     12874     12821     12823     12873     12875
     12821     12823     12873     12876     12822     12821     12823     12824
     12822     12821     12823     12825     12822     12821     12823     12873
     12823     12873     12876     12877     12823     12873     12876     12878
     12823     12873     12876     12879     12824     12823     12873     12874
     12824     12823     12873     12875     12824     12823     12873     12876
     12825     12823     12873     12874     12825     12823     12873     12875
     12825     12823     12873     12876     12826     12829     12832     12833
     12826     12829     12832     12834     12826     12829     12832     12835
     12827     12826     12829     12830     12827     12826     12829     12831
     12827     12826     12829     12832     12828     12826     12829     12830
     12828     12826     12829     12831     12828     12826     12829     12832
     12829     12832     12835     12836     12829     12832     12835     12837
     12829     12832     12835     12838     12830     12829     12832     12833
     12830     12829     12832     12834     12830     12829     12832     12835
     12831     12829     12832     12833     12831     12829     12832     12834
     12831     12829     12832     12835     12832     12835     12838     12839
     12832     12835     12838     12840     12832     12835     12838     12841
     12833     12832     12835     12836     12833     12832     12835     12837
     12833     12832     12835     12838     12834     12832     12835     12836
     12834     12832     12835     12837     12834     12832     12835     12838
     12835     12838     12841     12842     12835     12838     12841     12843
     12835     12838     12841     12844     12836     12835     12838     12839
     12836     12835     12838     12840     12836     12835     12838     12841
     12837     12835     12838     12839     12837     12835     12838     12840
     12837     12835     12838     12841     12838     12841     12844     12845
     12838     12841     12844     12846     12839     12838     12841     12842
     12839     12838     12841     12843     12839     12838     12841     12844
     12840     12838     12841     12842     12840     12838     12841     12843
     12840     12838     12841     12844     12841     12844     12846     12847
     12841     12844     12846     12848     12842     12841     12844     12845
     12842     12841     12844     12846     12843     12841     12844     12845
     12843     12841     12844     12846     12844     12846     12848     12849
     12844     12846     12848     12850     12844     12846     12848     12851
     12845     12844     12846     12847     12845     12844     12846     12848
     12846     12848     12851     12852     12846     12848     12851     12853
     12846     12848     12851     12854     12847     12846     12848     12849
     12847     12846     12848     12850     12847     12846     12848     12851
     12848     12851     12854     12855     12848     12851     12854     12856
     12848     12851     12854     12857     12849     12848     12851     12852
     12849     12848     12851     12853     12849     12848     12851     12854
     12850     12848     12851     12852     12850     12848     12851     12853
     12850     12848     12851     12854     12851     12854     12857     12858
     12851     12854     12857     12859     12851     12854     12857     12860
     12852     12851     12854     12855     12852     12851     12854     12856
     12852     12851     12854     12857     12853     12851     12854     12855
     12853     12851     12854     12856     12853     12851     12854     12857
     12854     12857     12860     12861     12854     12857     12860     12862
     12854     12857     12860     12863     12855     12854     12857     12858
     12855     12854     12857     12859     12855     12854     12857     12860
     12856     12854     12857     12858     12856     12854     12857     12859
     12856     12854     12857     12860     12857     12860     12863     12864
     12857     12860     12863     12865     12857     12860     12863     12866
     12858     12857     12860     12861     12858     12857     12860     12862
     12858     12857     12860     12863     12859     12857     12860     12861
     12859     12857     12860     12862     12859     12857     12860     12863
     12860     12863     12866     12867     12860     12863     12866     12868
     12860     12863     12866     12869     12861     12860     12863     12864
     12861     12860     12863     12865     12861     12860     12863     12866
     12862     12860     12863     12864     12862     12860     12863     12865
     12862     12860     12863     12866     12863     12866     12869     12870
     12863     12866     12869     12871     12863     12866     12869     12872
     12864     12863     12866     12867     12864     12863     12866     12868
     12864     12863     12866     12869     12865     12863     12866     12867
     12865     12863     12866     12868     12865     12863     12866     12869
     12867     12866     12869     12870     12867     12866     12869     12871
     12867     12866     12869     12872     12868     12866     12869     12870
     12868     12866     12869     12871     12868     12866     12869     12872
     12873     12876     12879     12880     12873     12876     12879     12881
     12873     12876     12879     12882     12874     12873     12876     12877
     12874     12873     12876     12878     12874     12873     12876     12879
     12875     12873     12876     12877     12875     12873     12876     12878
     12875     12873     12876     12879     12876     12879     12882     12883
     12876     12879     12882     12884     12876     12879     12882     12885
     12877     12876     12879     12880     12877     12876     12879     12881
     12877     12876     12879     12882     12878     12876     12879     12880
     12878     12876     12879     12881     12878     12876     12879     12882
     12879     12882     12885     12886     12879     12882     12885     12887
     12879     12882     12885     12888     12880     12879     12882     12883
     12880     12879     12882     12884     12880     12879     12882     12885
     12881     12879     12882     12883     12881     12879     12882     12884
     12881     12879     12882     12885     12882     12885     12888     12889
     12882     12885     12888     12890     12882     12885     12888     12891
     12883     12882     12885     12886     12883     12882     12885     12887
     12883     12882     12885     12888     12884     12882     12885     12886
     12884     12882     12885     12887     12884     12882     12885     12888
     12885     12888     12891     12892     12885     12888     12891     12893
     12885     12888     12891     12894     12886     12885     12888     12889
     12886     12885     12888     12890     12886     12885     12888     12891
     12887     12885     12888     12889     12887     12885     12888     12890
     12887     12885     12888     12891     12888     12891     12894     12895
     12888     12891     12894     12896     12888     12891     12894     12897
     12889     12888     12891     12892     12889     12888     12891     12893
     12889     12888     12891     12894     12890     12888     12891     12892
     12890     12888     12891     12893     12890     12888     12891     12894
     12891     12894     12897     12898     12891     12894     12897     12899
     12891     12894     12897     12900     12892     12891     12894     12895
     12892     12891     12894     12896     12892     12891     12894     12897
     12893     12891     12894     12895     12893     12891     12894     12896
     12893     12891     12894     12897     12894     12897     12900     12901
     12894     12897     12900     12902     12894     12897     12900     12903
     12895     12894     12897     12898     12895     12894     12897     12899
     12895     12894     12897     12900     12896     12894     12897     12898
     12896     12894     12897     12899     12896     12894     12897     12900
     12897     12900     12903     12904     12897     12900     12903     12905
     12897     12900     12903     12906     12898     12897     12900     12901
     12898     12897     12900     12902     12898     12897     12900     12903
     12899     12897     12900     12901     12899     12897     12900     12902
     12899     12897     12900     12903     12900     12903     12906     12907
     12900     12903     12906     12908     12900     12903     12906     12909
     12901     12900     12903     12904     12901     12900     12903     12905
     12901     12900     12903     12906     12902     12900     12903     12904
     12902     12900     12903     12905     12902     12900     12903     12906
     12903     12906     12909     12910     12903     12906     12909     12911
     12903     12906     12909     12912     12904     12903     12906     12907
     12904     12903     12906     12908     12904     12903     12906     12909
     12905     12903     12906     12907     12905     12903     12906     12908
     12905     12903     12906     12909     12906     12909     12912     12913
     12906     12909     12912     12914     12906     12909     12912     12915
     12907     12906     12909     12910     12907     12906     12909     12911
     12907     12906     12909     12912     12908     12906     12909     12910
     12908     12906     12909     12911     12908     12906     12909     12912
     12910     12909     12912     12913     12910     12909     12912     12914
     12910     12909     12912     12915     12911     12909     12912     12913
     12911     12909     12912     12914     12911     12909     12912     12915
      7096      7100      7103      7104      7096      7100      7103      7105
      7096      7100      7103      7110      7097      7096      7100      7101
      7097      7096      7100      7102      7097      7096      7100      7103
      7098      7096      7100      7101      7098      7096      7100      7102
      7098      7096      7100      7103      7099      7096      7100      7101
      7099      7096      7100      7102      7099      7096      7100      7103
      7100      7103      7110      7106      7101      7100      7103      7104
      7101      7100      7103      7105      7101      7100      7103      7110
      7102      7100      7103      7104      7102      7100      7103      7105
      7102      7100      7103      7110      7103      7110      7106      7107
      7103      7110      7106      7108      7103      7110      7106      7109
      7104      7103      7110      7106      7105      7103      7110      7106
      7106      7109      7111      7112      7106      7109      7111      7113
      7106      7109      7111      7114      7107      7106      7109      7111
      7108      7106      7109      7111      7109      7111      7114      7115
      7109      7111      7114      7116      7109      7111      7114      7122
      7110      7106      7109      7111      7111      7114      7116      7117
      7111      7114      7122      7123      7111      7114      7122      7124
      7111      7114      7122      7125      7112      7111      7114      7115
      7112      7111      7114      7116      7112      7111      7114      7122
      7113      7111      7114      7115      7113      7111      7114      7116
      7113      7111      7114      7122      7114      7116      7117      7118
      7114      7116      7117      7119      7114      7122      7125      7126
      7115      7114      7116      7117      7115      7114      7122      7123
      7115      7114      7122      7124      7115      7114      7122      7125
      7116      7114      7122      7123      7116      7114      7122      7124
      7116      7114      7122      7125      7116      7117      7119      7120
      7116      7117      7119      7121      7116      7117      7119      7131
      7117      7116      7114      7122      7117      7119      7131      7132
      7117      7119      7131      7133      7117      7119      7131      7134
      7118      7117      7119      7120      7118      7117      7119      7121
      7118      7117      7119      7131      7119      7131      7134      7135
      7119      7131      7134      7136      7119      7131      7134      7137
      7120      7119      7131      7132      7120      7119      7131      7133
      7120      7119      7131      7134      7121      7119      7131      7132
      7121      7119      7131      7133      7121      7119      7131      7134
      7122      7125      7126      7127      7122      7125      7126      7128
      7123      7122      7125      7126      7124      7122      7125      7126
      7125      7126      7128      7129      7125      7126      7128      7130
      7125      7126      7128      7178      7126      7128      7178      7179
      7126      7128      7178      7180      7126      7128      7178      7181
      7127      7126      7128      7129      7127      7126      7128      7130
      7127      7126      7128      7178      7128      7178      7181      7182
      7128      7178      7181      7183      7128      7178      7181      7184
      7129      7128      7178      7179      7129      7128      7178      7180
      7129      7128      7178      7181      7130      7128      7178      7179
      7130      7128      7178      7180      7130      7128      7178      7181
      7131      7134      7137      7138      7131      7134      7137      7139
      7131      7134      7137      7140      7132      7131      7134      7135
      7132      7131      7134      7136      7132      7131      7134      7137
      7133      7131      7134      7135      7133      7131      7134      7136
      7133      7131      7134      7137      7134      7137      7140      7141
      7134      7137      7140      7142      7134      7137      7140      7143
      7135      7134      7137      7138      7135      7134      7137      7139
      7135      7134      7137      7140      7136      7134      7137      7138
      7136      7134      7137      7139      7136      7134      7137      7140
      7137      7140      7143      7144      7137      7140      7143      7145
      7137      7140      7143      7146      7138      7137      7140      7141
      7138      7137      7140      7142      7138      7137      7140      7143
      7139      7137      7140      7141      7139      7137      7140      7142
      7139      7137      7140      7143      7140      7143      7146      7147
      7140      7143      7146      7148      7140      7143      7146      7149
      7141      7140      7143      7144      7141      7140      7143      7145
      7141      7140      7143      7146      7142      7140      7143      7144
      7142      7140      7143      7145      7142      7140      7143      7146
      7143      7146      7149      7150      7143      7146      7149      7151
      7144      7143      7146      7147      7144      7143      7146      7148
      7144      7143      7146      7149      7145      7143      7146      7147
      7145      7143      7146      7148      7145      7143      7146      7149
      7146      7149      7151      7152      7146      7149      7151      7153
      7147      7146      7149      7150      7147      7146      7149      7151
      7148      7146      7149      7150      7148      7146      7149      7151
      7149      7151      7153      7154      7149      7151      7153      7155
      7149      7151      7153      7156      7150      7149      7151      7152
      7150      7149      7151      7153      7151      7153      7156      7157
      7151      7153      7156      7158      7151      7153      7156      7159
      7152      7151      7153      7154      7152      7151      7153      7155
      7152      7151      7153      7156      7153      7156      7159      7160
      7153      7156      7159      7161      7153      7156      7159      7162
      7154      7153      7156      7157      7154      7153      7156      7158
      7154      7153      7156      7159      7155      7153      7156      7157
      7155      7153      7156      7158      7155      7153      7156      7159
      7156      7159      7162      7163      7156      7159      7162      7164
      7156      7159      7162      7165      7157      7156      7159      7160
      7157      7156      7159      7161      7157      7156      7159      7162
      7158      7156      7159      7160      7158      7156      7159      7161
      7158      7156      7159      7162      7159      7162      7165      7166
      7159      7162      7165      7167      7159      7162      7165      7168
      7160      7159      7162      7163      7160      7159      7162      7164
      7160      7159      7162      7165      7161      7159      7162      7163
      7161      7159      7162      7164      7161      7159      7162      7165
      7162      7165      7168      7169      7162      7165      7168      7170
      7162      7165      7168      7171      7163      7162      7165      7166
      7163      7162      7165      7167      7163      7162      7165      7168
      7164      7162      7165      7166      7164      7162      7165      7167
      7164      7162      7165      7168      7165      7168      7171      7172
      7165      7168      7171      7173      7165      7168      7171      7174
      7166      7165      7168      7169      7166      7165      7168      7170
      7166      7165      7168      7171      7167      7165      7168      7169
      7167      7165      7168      7170      7167      7165      7168      7171
      7168      7171      7174      7175      7168      7171      7174      7176
      7168      7171      7174      7177      7169      7168      7171      7172
      7169      7168      7171      7173      7169      7168      7171      7174
      7170      7168      7171      7172      7170      7168      7171      7173
      7170      7168      7171      7174      7172      7171      7174      7175
      7172      7171      7174      7176      7172      7171      7174      7177
      7173      7171      7174      7175      7173      7171      7174      7176
      7173      7171      7174      7177      7178      7181      7184      7185
      7178      7181      7184      7186      7178      7181      7184      7187
      7179      7178      7181      7182      7179      7178      7181      7183
      7179      7178      7181      7184      7180      7178      7181      7182
      7180      7178      7181      7183      7180      7178      7181      7184
      7181      7184      7187      7188      7181      7184      7187      7189
      7181      7184      7187      7190      7182      7181      7184      7185
      7182      7181      7184      7186      7182      7181      7184      7187
      7183      7181      7184      7185      7183      7181      7184      7186
      7183      7181      7184      7187      7184      7187      7190      7191
      7184      7187      7190      7192      7184      7187      7190      7193
      7185      7184      7187      7188      7185      7184      7187      7189
      7185      7184      7187      7190      7186      7184      7187      7188
      7186      7184      7187      7189      7186      7184      7187      7190
      7187      7190      7193      7194      7187      7190      7193      7195
      7187      7190      7193      7196      7188      7187      7190      7191
      7188      7187      7190      7192      7188      7187      7190      7193
      7189      7187      7190      7191      7189      7187      7190      7192
      7189      7187      7190      7193      7190      7193      7196      7197
      7190      7193      7196      7198      7190      7193      7196      7199
      7191      7190      7193      7194      7191      7190      7193      7195
      7191      7190      7193      7196      7192      7190      7193      7194
      7192      7190      7193      7195      7192      7190      7193      7196
      7193      7196      7199      7200      7193      7196      7199      7201
      7193      7196      7199      7202      7194      7193      7196      7197
      7194      7193      7196      7198      7194      7193      7196      7199
      7195      7193      7196      7197      7195      7193      7196      7198
      7195      7193      7196      7199      7196      7199      7202      7203
      7196      7199      7202      7204      7196      7199      7202      7205
      7197      7196      7199      7200      7197      7196      7199      7201
      7197      7196      7199      7202      7198      7196      7199      7200
      7198      7196      7199      7201      7198      7196      7199      7202
      7199      7202      7205      7206      7199      7202      7205      7207
      7199      7202      7205      7208      7200      7199      7202      7203
      7200      7199      7202      7204      7200      7199      7202      7205
      7201      7199      7202      7203      7201      7199      7202      7204
      7201      7199      7202      7205      7202      7205      7208      7209
      7202      7205      7208      7210      7202      7205      7208      7211
      7203      7202      7205      7206      7203      7202      7205      7207
      7203      7202      7205      7208      7204      7202      7205      7206
      7204      7202      7205      7207      7204      7202      7205      7208
      7205      7208      7211      7212      7205      7208      7211      7213
      7205      7208      7211      7214      7206      7205      7208      7209
      7206      7205      7208      7210      7206      7205      7208      7211
      7207      7205      7208      7209      7207      7205      7208      7210
      7207      7205      7208      7211      7208      7211      7214      7215
      7208      7211      7214      7216      7208      7211      7214      7217
      7209      7208      7211      7212      7209      7208      7211      7213
      7209      7208      7211      7214      7210      7208      7211      7212
      7210      7208      7211      7213      7210      7208      7211      7214
      7211      7214      7217      7218      7211      7214      7217      7219
      7211      7214      7217      7220      7212      7211      7214      7215
      7212      7211      7214      7216      7212      7211      7214      7217
      7213      7211      7214      7215      7213      7211      7214      7216
      7213      7211      7214      7217      7215      7214      7217      7218
      7215      7214      7217      7219      7215      7214      7217      7220
      7216      7214      7217      7218      7216      7214      7217      7219
      7216      7214      7217      7220      7221      7225      7228      7229
      7221      7225      7228      7230      7221      7225      7228      7235
      7222      7221      7225      7226      7222      7221      7225      7227
      7222      7221      7225      7228      7223      7221      7225      7226
      7223      7221      7225      7227      7223      7221      7225      7228
      7224      7221      7225      7226      7224      7221      7225      7227
      7224      7221      7225      7228      7225      7228      7235      7231
      7226      7225      7228      7229      7226      7225      7228      7230
      7226      7225      7228      7235      7227      7225      7228      7229
      7227      7225      7228      7230      7227      7225      7228      7235
      7228      7235      7231      7232      7228      7235      7231      7233
      7228      7235      7231      7234      7229      7228      7235      7231
      7230      7228      7235      7231      7231      7234      7236      7237
      7231      7234      7236      7238      7231      7234      7236      7239
      7232      7231      7234      7236      7233      7231      7234      7236
      7234      7236      7239      7240      7234      7236      7239      7241
      7234      7236      7239      7247      7235      7231      7234      7236
      7236      7239      7241      7242      7236      7239      7247      7248
      7236      7239      7247      7249      7236      7239      7247      7250
      7237      7236      7239      7240      7237      7236      7239      7241
      7237      7236      7239      7247      7238      7236      7239      7240
      7238      7236      7239      7241      7238      7236      7239      7247
      7239      7241      7242      7243      7239      7241      7242      7244
      7239      7247      7250      7251      7240      7239      7241      7242
      7240      7239      7247      7248      7240      7239      7247      7249
      7240      7239      7247      7250      7241      7239      7247      7248
      7241      7239      7247      7249      7241      7239      7247      7250
      7241      7242      7244      7245      7241      7242      7244      7246
      7241      7242      7244      7256      7242      7241      7239      7247
      7242      7244      7256      7257      7242      7244      7256      7258
      7242      7244      7256      7259      7243      7242      7244      7245
      7243      7242      7244      7246      7243      7242      7244      7256
      7244      7256      7259      7260      7244      7256      7259      7261
      7244      7256      7259      7262      7245      7244      7256      7257
      7245      7244      7256      7258      7245      7244      7256      7259
      7246      7244      7256      7257      7246      7244      7256      7258
      7246      7244      7256      7259      7247      7250      7251      7252
      7247      7250      7251      7253      7248      7247      7250      7251
      7249      7247      7250      7251      7250      7251      7253      7254
      7250      7251      7253      7255      7250      7251      7253      7303
      7251      7253      7303      7304      7251      7253      7303      7305
      7251      7253      7303      7306      7252      7251      7253      7254
      7252      7251      7253      7255      7252      7251      7253      7303
      7253      7303      7306      7307      7253      7303      7306      7308
      7253      7303      7306      7309      7254      7253      7303      7304
      7254      7253      7303      7305      7254      7253      7303      7306
      7255      7253      7303      7304      7255      7253      7303      7305
      7255      7253      7303      7306      7256      7259      7262      7263
      7256      7259      7262      7264      7256      7259      7262      7265
      7257      7256      7259      7260      7257      7256      7259      7261
      7257      7256      7259      7262      7258      7256      7259      7260
      7258      7256      7259      7261      7258      7256      7259      7262
      7259      7262      7265      7266      7259      7262      7265      7267
      7259      7262      7265      7268      7260      7259      7262      7263
      7260      7259      7262      7264      7260      7259      7262      7265
      7261      7259      7262      7263      7261      7259      7262      7264
      7261      7259      7262      7265      7262      7265      7268      7269
      7262      7265      7268      7270      7262      7265      7268      7271
      7263      7262      7265      7266      7263      7262      7265      7267
      7263      7262      7265      7268      7264      7262      7265      7266
      7264      7262      7265      7267      7264      7262      7265      7268
      7265      7268      7271      7272      7265      7268      7271      7273
      7265      7268      7271      7274      7266      7265      7268      7269
      7266      7265      7268      7270      7266      7265      7268      7271
      7267      7265      7268      7269      7267      7265      7268      7270
      7267      7265      7268      7271      7268      7271      7274      7275
      7268      7271      7274      7276      7269      7268      7271      7272
      7269      7268      7271      7273      7269      7268      7271      7274
      7270      7268      7271      7272      7270      7268      7271      7273
      7270      7268      7271      7274      7271      7274      7276      7277
      7271      7274      7276      7278      7272      7271      7274      7275
      7272      7271      7274      7276      7273      7271      7274      7275
      7273      7271      7274      7276      7274      7276      7278      7279
      7274      7276      7278      7280      7274      7276      7278      7281
      7275      7274      7276      7277      7275      7274      7276      7278
      7276      7278      7281      7282      7276      7278      7281      7283
      7276      7278      7281      7284      7277      7276      7278      7279
      7277      7276      7278      7280      7277      7276      7278      7281
      7278      7281      7284      7285      7278      7281      7284      7286
      7278      7281      7284      7287      7279      7278      7281      7282
      7279      7278      7281      7283      7279      7278      7281      7284
      7280      7278      7281      7282      7280      7278      7281      7283
      7280      7278      7281      7284      7281      7284      7287      7288
      7281      7284      7287      7289      7281      7284      7287      7290
      7282      7281      7284      7285      7282      7281      7284      7286
      7282      7281      7284      7287      7283      7281      7284      7285
      7283      7281      7284      7286      7283      7281      7284      7287
      7284      7287      7290      7291      7284      7287      7290      7292
      7284      7287      7290      7293      7285      7284      7287      7288
      7285      7284      7287      7289      7285      7284      7287      7290
      7286      7284      7287      7288      7286      7284      7287      7289
      7286      7284      7287      7290      7287      7290      7293      7294
      7287      7290      7293      7295      7287      7290      7293      7296
      7288      7287      7290      7291      7288      7287      7290      7292
      7288      7287      7290      7293      7289      7287      7290      7291
      7289      7287      7290      7292      7289      7287      7290      7293
      7290      7293      7296      7297      7290      7293      7296      7298
      7290      7293      7296      7299      7291      7290      7293      7294
      7291      7290      7293      7295      7291      7290      7293      7296
      7292      7290      7293      7294      7292      7290      7293      7295
      7292      7290      7293      7296      7293      7296      7299      7300
      7293      7296      7299      7301      7293      7296      7299      7302
      7294      7293      7296      7297      7294      7293      7296      7298
      7294      7293      7296      7299      7295      7293      7296      7297
      7295      7293      7296      7298      7295      7293      7296      7299
      7297      7296      7299      7300      7297      7296      7299      7301
      7297      7296      7299      7302      7298      7296      7299      7300
      7298      7296      7299      7301      7298      7296      7299      7302
      7303      7306      7309      7310      7303      7306      7309      7311
      7303      7306      7309      7312      7304      7303      7306      7307
      7304      7303      7306      7308      7304      7303      7306      7309
      7305      7303      7306      7307      7305      7303      7306      7308
      7305      7303      7306      7309      7306      7309      7312      7313
      7306      7309      7312      7314      7306      7309      7312      7315
      7307      7306      7309      7310      7307      7306      7309      7311
      7307      7306      7309      7312      7308      7306      7309      7310
      7308      7306      7309      7311      7308      7306      7309      7312
      7309      7312      7315      7316      7309      7312      7315      7317
      7309      7312      7315      7318      7310      7309      7312      7313
      7310      7309      7312      7314      7310      7309      7312      7315
      7311      7309      7312      7313      7311      7309      7312      7314
      7311      7309      7312      7315      7312      7315      7318      7319
      7312      7315      7318      7320      7312      7315      7318      7321
      7313      7312      7315      7316      7313      7312      7315      7317
      7313      7312      7315      7318      7314      7312      7315      7316
      7314      7312      7315      7317      7314      7312      7315      7318
      7315      7318      7321      7322      7315      7318      7321      7323
      7315      7318      7321      7324      7316      7315      7318      7319
      7316      7315      7318      7320      7316      7315      7318      7321
      7317      7315      7318      7319      7317      7315      7318      7320
      7317      7315      7318      7321      7318      7321      7324      7325
      7318      7321      7324      7326      7318      7321      7324      7327
      7319      7318      7321      7322      7319      7318      7321      7323
      7319      7318      7321      7324      7320      7318      7321      7322
      7320      7318      7321      7323      7320      7318      7321      7324
      7321      7324      7327      7328      7321      7324      7327      7329
      7321      7324      7327      7330      7322      7321      7324      7325
      7322      7321      7324      7326      7322      7321      7324      7327
      7323      7321      7324      7325      7323      7321      7324      7326
      7323      7321      7324      7327      7324      7327      7330      7331
      7324      7327      7330      7332      7324      7327      7330      7333
      7325      7324      7327      7328      7325      7324      7327      7329
      7325      7324      7327      7330      7326      7324      7327      7328
      7326      7324      7327      7329      7326      7324      7327      7330
      7327      7330      7333      7334      7327      7330      7333      7335
      7327      7330      7333      7336      7328      7327      7330      7331
      7328      7327      7330      7332      7328      7327      7330      7333
      7329      7327      7330      7331      7329      7327      7330      7332
      7329      7327      7330      7333      7330      7333      7336      7337
      7330      7333      7336      7338      7330      7333      7336      7339
      7331      7330      7333      7334      7331      7330      7333      7335
      7331      7330      7333      7336      7332      7330      7333      7334
      7332      7330      7333      7335      7332      7330      7333      7336
      7333      7336      7339      7340      7333      7336      7339      7341
      7333      7336      7339      7342      7334      7333      7336      7337
      7334      7333      7336      7338      7334      7333      7336      7339
      7335      7333      7336      7337      7335      7333      7336      7338
      7335      7333      7336      7339      7336      7339      7342      7343
      7336      7339      7342      7344      7336      7339      7342      7345
      7337      7336      7339      7340      7337      7336      7339      7341
      7337      7336      7339      7342      7338      7336      7339      7340
      7338      7336      7339      7341      7338      7336      7339      7342
      7340      7339      7342      7343      7340      7339      7342      7344
      7340      7339      7342      7345      7341      7339      7342      7343
      7341      7339      7342      7344      7341      7339      7342      7345
     20519     20520     20535     20536     20519     20520     20535     20537
     20519     20520     20535     20541     20520     20519     20523     20524
     20520     20519     20523     20525     20520     20519     20523     20526
     20520     20519     20527     20528     20520     20519     20527     20529
     20520     20519     20527     20530     20520     20519     20531     20532
     20520     20519     20531     20533     20520     20519     20531     20534
     20520     20535     20541     20538     20521     20520     20519     20523
     20521     20520     20519     20527     20521     20520     20519     20531
     20521     20520     20535     20536     20521     20520     20535     20537
     20521     20520     20535     20541     20522     20520     20519     20523
     20522     20520     20519     20527     20522     20520     20519     20531
     20522     20520     20535     20536     20522     20520     20535     20537
     20522     20520     20535     20541     20523     20519     20520     20535
     20523     20519     20527     20528     20523     20519     20527     20529
     20523     20519     20527     20530     20523     20519     20531     20532
     20523     20519     20531     20533     20523     20519     20531     20534
     20524     20523     20519     20527     20524     20523     20519     20531
     20525     20523     20519     20527     20525     20523     20519     20531
     20526     20523     20519     20527     20526     20523     20519     20531
     20527     20519     20520     20535     20527     20519     20531     20532
     20527     20519     20531     20533     20527     20519     20531     20534
     20528     20527     20519     20531     20529     20527     20519     20531
     20530     20527     20519     20531     20531     20519     20520     20535
     20535     20541     20538     20539     20535     20541     20538     20540
     20535     20541     20538     20542     20536     20535     20541     20538
     20537     20535     20541     20538     20538     20542     20543     20544
     20538     20542     20543     20545     20538     20542     20543     20546
     20539     20538     20542     20543     20540     20538     20542     20543
     20541     20538     20542     20543     20542     20543     20546     20547
     20542     20543     20546     20548     20542     20543     20546     20554
     20543     20546     20548     20549     20543     20546     20554     20555
     20543     20546     20554     20556     20543     20546     20554     20557
     20544     20543     20546     20547     20544     20543     20546     20548
     20544     20543     20546     20554     20545     20543     20546     20547
     20545     20543     20546     20548     20545     20543     20546     20554
     20546     20548     20549     20550     20546     20548     20549     20551
     20546     20554     20557     20558     20547     20546     20548     20549
     20547     20546     20554     20555     20547     20546     20554     20556
     20547     20546     20554     20557     20548     20546     20554     20555
     20548     20546     20554     20556     20548     20546     20554     20557
     20548     20549     20551     20552     20548     20549     20551     20553
     20548     20549     20551     20563     20549     20548     20546     20554
     20549     20551     20563     20564     20549     20551     20563     20565
     20549     20551     20563     20566     20550     20549     20551     20552
     20550     20549     20551     20553     20550     20549     20551     20563
     20551     20563     20566     20567     20551     20563     20566     20568
     20551     20563     20566     20569     20552     20551     20563     20564
     20552     20551     20563     20565     20552     20551     20563     20566
     20553     20551     20563     20564     20553     20551     20563     20565
     20553     20551     20563     20566     20554     20557     20558     20559
     20554     20557     20558     20560     20555     20554     20557     20558
     20556     20554     20557     20558     20557     20558     20560     20561
     20557     20558     20560     20562     20557     20558     20560     20610
     20558     20560     20610     20611     20558     20560     20610     20612
     20558     20560     20610     20613     20559     20558     20560     20561
     20559     20558     20560     20562     20559     20558     20560     20610
     20560     20610     20613     20614     20560     20610     20613     20615
     20560     20610     20613     20616     20561     20560     20610     20611
     20561     20560     20610     20612     20561     20560     20610     20613
     20562     20560     20610     20611     20562     20560     20610     20612
     20562     20560     20610     20613     20563     20566     20569     20570
     20563     20566     20569     20571     20563     20566     20569     20572
     20564     20563     20566     20567     20564     20563     20566     20568
     20564     20563     20566     20569     20565     20563     20566     20567
     20565     20563     20566     20568     20565     20563     20566     20569
     20566     20569     20572     20573     20566     20569     20572     20574
     20566     20569     20572     20575     20567     20566     20569     20570
     20567     20566     20569     20571     20567     20566     20569     20572
     20568     20566     20569     20570     20568     20566     20569     20571
     20568     20566     20569     20572     20569     20572     20575     20576
     20569     20572     20575     20577     20569     20572     20575     20578
     20570     20569     20572     20573     20570     20569     20572     20574
     20570     20569     20572     20575     20571     20569     20572     20573
     20571     20569     20572     20574     20571     20569     20572     20575
     20572     20575     20578     20579     20572     20575     20578     20580
     20572     20575     20578     20581     20573     20572     20575     20576
     20573     20572     20575     20577     20573     20572     20575     20578
     20574     20572     20575     20576     20574     20572     20575     20577
     20574     20572     20575     20578     20575     20578     20581     20582
     20575     20578     20581     20583     20576     20575     20578     20579
     20576     20575     20578     20580     20576     20575     20578     20581
     20577     20575     20578     20579     20577     20575     20578     20580
     20577     20575     20578     20581     20578     20581     20583     20584
     20578     20581     20583     20585     20579     20578     20581     20582
     20579     20578     20581     20583     20580     20578     20581     20582
     20580     20578     20581     20583     20581     20583     20585     20586
     20581     20583     20585     20587     20581     20583     20585     20588
     20582     20581     20583     20584     20582     20581     20583     20585
     20583     20585     20588     20589     20583     20585     20588     20590
     20583     20585     20588     20591     20584     20583     20585     20586
     20584     20583     20585     20587     20584     20583     20585     20588
     20585     20588     20591     20592     20585     20588     20591     20593
     20585     20588     20591     20594     20586     20585     20588     20589
     20586     20585     20588     20590     20586     20585     20588     20591
     20587     20585     20588     20589     20587     20585     20588     20590
     20587     20585     20588     20591     20588     20591     20594     20595
     20588     20591     20594     20596     20588     20591     20594     20597
     20589     20588     20591     20592     20589     20588     20591     20593
     20589     20588     20591     20594     20590     20588     20591     20592
     20590     20588     20591     20593     20590     20588     20591     20594
     20591     20594     20597     20598     20591     20594     20597     20599
     20591     20594     20597     20600     20592     20591     20594     20595
     20592     20591     20594     20596     20592     20591     20594     20597
     20593     20591     20594     20595     20593     20591     20594     20596
     20593     20591     20594     20597     20594     20597     20600     20601
     20594     20597     20600     20602     20594     20597     20600     20603
     20595     20594     20597     20598     20595     20594     20597     20599
     20595     20594     20597     20600     20596     20594     20597     20598
     20596     20594     20597     20599     20596     20594     20597     20600
     20597     20600     20603     20604     20597     20600     20603     20605
     20597     20600     20603     20606     20598     20597     20600     20601
     20598     20597     20600     20602     20598     20597     20600     20603
     20599     20597     20600     20601     20599     20597     20600     20602
     20599     20597     20600     20603     20600     20603     20606     20607
     20600     20603     20606     20608     20600     20603     20606     20609
     20601     20600     20603     20604     20601     20600     20603     20605
     20601     20600     20603     20606     20602     20600     20603     20604
     20602     20600     20603     20605     20602     20600     20603     20606
     20604     20603     20606     20607     20604     20603     20606     20608
     20604     20603     20606     20609     20605     20603     20606     20607
     20605     20603     20606     20608     20605     20603     20606     20609
     20610     20613     20616     20617     20610     20613     20616     20618
     20610     20613     20616     20619     20611     20610     20613     20614
     20611     20610     20613     20615     20611     20610     20613     20616
     20612     20610     20613     20614     20612     20610     20613     20615
     20612     20610     20613     20616     20613     20616     20619     20620
     20613     20616     20619     20621     20613     20616     20619     20622
     20614     20613     20616     20617     20614     20613     20616     20618
     20614     20613     20616     20619     20615     20613     20616     20617
     20615     20613     20616     20618     20615     20613     20616     20619
     20616     20619     20622     20623     20616     20619     20622     20624
     20616     20619     20622     20625     20617     20616     20619     20620
     20617     20616     20619     20621     20617     20616     20619     20622
     20618     20616     20619     20620     20618     20616     20619     20621
     20618     20616     20619     20622     20619     20622     20625     20626
     20619     20622     20625     20627     20619     20622     20625     20628
     20620     20619     20622     20623     20620     20619     20622     20624
     20620     20619     20622     20625     20621     20619     20622     20623
     20621     20619     20622     20624     20621     20619     20622     20625
     20622     20625     20628     20629     20622     20625     20628     20630
     20622     20625     20628     20631     20623     20622     20625     20626
     20623     20622     20625     20627     20623     20622     20625     20628
     20624     20622     20625     20626     20624     20622     20625     20627
     20624     20622     20625     20628     20625     20628     20631     20632
     20625     20628     20631     20633     20625     20628     20631     20634
     20626     20625     20628     20629     20626     20625     20628     20630
     20626     20625     20628     20631     20627     20625     20628     20629
     20627     20625     20628     20630     20627     20625     20628     20631
     20628     20631     20634     20635     20628     20631     20634     20636
     20628     20631     20634     20637     20629     20628     20631     20632
     20629     20628     20631     20633     20629     20628     20631     20634
     20630     20628     20631     20632     20630     20628     20631     20633
     20630     20628     20631     20634     20631     20634     20637     20638
     20631     20634     20637     20639     20631     20634     20637     20640
     20632     20631     20634     20635     20632     20631     20634     20636
     20632     20631     20634     20637     20633     20631     20634     20635
     20633     20631     20634     20636     20633     20631     20634     20637
     20634     20637     20640     20641     20634     20637     20640     20642
     20634     20637     20640     20643     20635     20634     20637     20638
     20635     20634     20637     20639     20635     20634     20637     20640
     20636     20634     20637     20638     20636     20634     20637     20639
     20636     20634     20637     20640     20637     20640     20643     20644
     20637     20640     20643     20645     20637     20640     20643     20646
     20638     20637     20640     20641     20638     20637     20640     20642
     20638     20637     20640     20643     20639     20637     20640     20641
     20639     20637     20640     20642     20639     20637     20640     20643
     20640     20643     20646     20647     20640     20643     20646     20648
     20640     20643     20646     20649     20641     20640     20643     20644
     20641     20640     20643     20645     20641     20640     20643     20646
     20642     20640     20643     20644     20642     20640     20643     20645
     20642     20640     20643     20646     20643     20646     20649     20650
     20643     20646     20649     20651     20643     20646     20649     20652
     20644     20643     20646     20647     20644     20643     20646     20648
     20644     20643     20646     20649     20645     20643     20646     20647
     20645     20643     20646     20648     20645     20643     20646     20649
     20647     20646     20649     20650     20647     20646     20649     20651
     20647     20646     20649     20652     20648     20646     20649     20650
     20648     20646     20649     20651     20648     20646     20649     20652
      7346      7350      7353      7354      7346      7350      7353      7355
      7346      7350      7353      7360      7347      7346      7350      7351
      7347      7346      7350      7352      7347      7346      7350      7353
      7348      7346      7350      7351      7348      7346      7350      7352
      7348      7346      7350      7353      7349      7346      7350      7351
      7349      7346      7350      7352      7349      7346      7350      7353
      7350      7353      7360      7356      7351      7350      7353      7354
      7351      7350      7353      7355      7351      7350      7353      7360
      7352      7350      7353      7354      7352      7350      7353      7355
      7352      7350      7353      7360      7353      7360      7356      7357
      7353      7360      7356      7358      7353      7360      7356      7359
      7354      7353      7360      7356      7355      7353      7360      7356
      7356      7359      7361      7362      7356      7359      7361      7363
      7356      7359      7361      7364      7357      7356      7359      7361
      7358      7356      7359      7361      7359      7361      7364      7365
      7359      7361      7364      7366      7359      7361      7364      7372
      7360      7356      7359      7361      7361      7364      7366      7367
      7361      7364      7372      7373      7361      7364      7372      7374
      7361      7364      7372      7375      7362      7361      7364      7365
      7362      7361      7364      7366      7362      7361      7364      7372
      7363      7361      7364      7365      7363      7361      7364      7366
      7363      7361      7364      7372      7364      7366      7367      7368
      7364      7366      7367      7369      7364      7372      7375      7376
      7365      7364      7366      7367      7365      7364      7372      7373
      7365      7364      7372      7374      7365      7364      7372      7375
      7366      7364      7372      7373      7366      7364      7372      7374
      7366      7364      7372      7375      7366      7367      7369      7370
      7366      7367      7369      7371      7366      7367      7369      7381
      7367      7366      7364      7372      7367      7369      7381      7382
      7367      7369      7381      7383      7367      7369      7381      7384
      7368      7367      7369      7370      7368      7367      7369      7371
      7368      7367      7369      7381      7369      7381      7384      7385
      7369      7381      7384      7386      7369      7381      7384      7387
      7370      7369      7381      7382      7370      7369      7381      7383
      7370      7369      7381      7384      7371      7369      7381      7382
      7371      7369      7381      7383      7371      7369      7381      7384
      7372      7375      7376      7377      7372      7375      7376      7378
      7373      7372      7375      7376      7374      7372      7375      7376
      7375      7376      7378      7379      7375      7376      7378      7380
      7375      7376      7378      7428      7376      7378      7428      7429
      7376      7378      7428      7430      7376      7378      7428      7431
      7377      7376      7378      7379      7377      7376      7378      7380
      7377      7376      7378      7428      7378      7428      7431      7432
      7378      7428      7431      7433      7378      7428      7431      7434
      7379      7378      7428      7429      7379      7378      7428      7430
      7379      7378      7428      7431      7380      7378      7428      7429
      7380      7378      7428      7430      7380      7378      7428      7431
      7381      7384      7387      7388      7381      7384      7387      7389
      7381      7384      7387      7390      7382      7381      7384      7385
      7382      7381      7384      7386      7382      7381      7384      7387
      7383      7381      7384      7385      7383      7381      7384      7386
      7383      7381      7384      7387      7384      7387      7390      7391
      7384      7387      7390      7392      7384      7387      7390      7393
      7385      7384      7387      7388      7385      7384      7387      7389
      7385      7384      7387      7390      7386      7384      7387      7388
      7386      7384      7387      7389      7386      7384      7387      7390
      7387      7390      7393      7394      7387      7390      7393      7395
      7387      7390      7393      7396      7388      7387      7390      7391
      7388      7387      7390      7392      7388      7387      7390      7393
      7389      7387      7390      7391      7389      7387      7390      7392
      7389      7387      7390      7393      7390      7393      7396      7397
      7390      7393      7396      7398      7390      7393      7396      7399
      7391      7390      7393      7394      7391      7390      7393      7395
      7391      7390      7393      7396      7392      7390      7393      7394
      7392      7390      7393      7395      7392      7390      7393      7396
      7393      7396      7399      7400      7393      7396      7399      7401
      7394      7393      7396      7397      7394      7393      7396      7398
      7394      7393      7396      7399      7395      7393      7396      7397
      7395      7393      7396      7398      7395      7393      7396      7399
      7396      7399      7401      7402      7396      7399      7401      7403
      7397      7396      7399      7400      7397      7396      7399      7401
      7398      7396      7399      7400      7398      7396      7399      7401
      7399      7401      7403      7404      7399      7401      7403      7405
      7399      7401      7403      7406      7400      7399      7401      7402
      7400      7399      7401      7403      7401      7403      7406      7407
      7401      7403      7406      7408      7401      7403      7406      7409
      7402      7401      7403      7404      7402      7401      7403      7405
      7402      7401      7403      7406      7403      7406      7409      7410
      7403      7406      7409      7411      7403      7406      7409      7412
      7404      7403      7406      7407      7404      7403      7406      7408
      7404      7403      7406      7409      7405      7403      7406      7407
      7405      7403      7406      7408      7405      7403      7406      7409
      7406      7409      7412      7413      7406      7409      7412      7414
      7406      7409      7412      7415      7407      7406      7409      7410
      7407      7406      7409      7411      7407      7406      7409      7412
      7408      7406      7409      7410      7408      7406      7409      7411
      7408      7406      7409      7412      7409      7412      7415      7416
      7409      7412      7415      7417      7409      7412      7415      7418
      7410      7409      7412      7413      7410      7409      7412      7414
      7410      7409      7412      7415      7411      7409      7412      7413
      7411      7409      7412      7414      7411      7409      7412      7415
      7412      7415      7418      7419      7412      7415      7418      7420
      7412      7415      7418      7421      7413      7412      7415      7416
      7413      7412      7415      7417      7413      7412      7415      7418
      7414      7412      7415      7416      7414      7412      7415      7417
      7414      7412      7415      7418      7415      7418      7421      7422
      7415      7418      7421      7423      7415      7418      7421      7424
      7416      7415      7418      7419      7416      7415      7418      7420
      7416      7415      7418      7421      7417      7415      7418      7419
      7417      7415      7418      7420      7417      7415      7418      7421
      7418      7421      7424      7425      7418      7421      7424      7426
      7418      7421      7424      7427      7419      7418      7421      7422
      7419      7418      7421      7423      7419      7418      7421      7424
      7420      7418      7421      7422      7420      7418      7421      7423
      7420      7418      7421      7424      7422      7421      7424      7425
      7422      7421      7424      7426      7422      7421      7424      7427
      7423      7421      7424      7425      7423      7421      7424      7426
      7423      7421      7424      7427      7428      7431      7434      7435
      7428      7431      7434      7436      7428      7431      7434      7437
      7429      7428      7431      7432      7429      7428      7431      7433
      7429      7428      7431      7434      7430      7428      7431      7432
      7430      7428      7431      7433      7430      7428      7431      7434
      7431      7434      7437      7438      7431      7434      7437      7439
      7431      7434      7437      7440      7432      7431      7434      7435
      7432      7431      7434      7436      7432      7431      7434      7437
      7433      7431      7434      7435      7433      7431      7434      7436
      7433      7431      7434      7437      7434      7437      7440      7441
      7434      7437      7440      7442      7434      7437      7440      7443
      7435      7434      7437      7438      7435      7434      7437      7439
      7435      7434      7437      7440      7436      7434      7437      7438
      7436      7434      7437      7439      7436      7434      7437      7440
      7437      7440      7443      7444      7437      7440      7443      7445
      7437      7440      7443      7446      7438      7437      7440      7441
      7438      7437      7440      7442      7438      7437      7440      7443
      7439      7437      7440      7441      7439      7437      7440      7442
      7439      7437      7440      7443      7440      7443      7446      7447
      7440      7443      7446      7448      7440      7443      7446      7449
      7441      7440      7443      7444      7441      7440      7443      7445
      7441      7440      7443      7446      7442      7440      7443      7444
      7442      7440      7443      7445      7442      7440      7443      7446
      7443      7446      7449      7450      7443      7446      7449      7451
      7443      7446      7449      7452      7444      7443      7446      7447
      7444      7443      7446      7448      7444      7443      7446      7449
      7445      7443      7446      7447      7445      7443      7446      7448
      7445      7443      7446      7449      7446      7449      7452      7453
      7446      7449      7452      7454      7446      7449      7452      7455
      7447      7446      7449      7450      7447      7446      7449      7451
      7447      7446      7449      7452      7448      7446      7449      7450
      7448      7446      7449      7451      7448      7446      7449      7452
      7449      7452      7455      7456      7449      7452      7455      7457
      7449      7452      7455      7458      7450      7449      7452      7453
      7450      7449      7452      7454      7450      7449      7452      7455
      7451      7449      7452      7453      7451      7449      7452      7454
      7451      7449      7452      7455      7452      7455      7458      7459
      7452      7455      7458      7460      7452      7455      7458      7461
      7453      7452      7455      7456      7453      7452      7455      7457
      7453      7452      7455      7458      7454      7452      7455      7456
      7454      7452      7455      7457      7454      7452      7455      7458
      7455      7458      7461      7462      7455      7458      7461      7463
      7455      7458      7461      7464      7456      7455      7458      7459
      7456      7455      7458      7460      7456      7455      7458      7461
      7457      7455      7458      7459      7457      7455      7458      7460
      7457      7455      7458      7461      7458      7461      7464      7465
      7458      7461      7464      7466      7458      7461      7464      7467
      7459      7458      7461      7462      7459      7458      7461      7463
      7459      7458      7461      7464      7460      7458      7461      7462
      7460      7458      7461      7463      7460      7458      7461      7464
      7461      7464      7467      7468      7461      7464      7467      7469
      7461      7464      7467      7470      7462      7461      7464      7465
      7462      7461      7464      7466      7462      7461      7464      7467
      7463      7461      7464      7465      7463      7461      7464      7466
      7463      7461      7464      7467      7465      7464      7467      7468
      7465      7464      7467      7469      7465      7464      7467      7470
      7466      7464      7467      7468      7466      7464      7467      7469
      7466      7464      7467      7470     12916     12920     12922     12923
     12916     12920     12922     12924     12916     12920     12925     12926
     12916     12920     12925     12927     12916     12920     12925     12931
     12917     12916     12920     12921     12917     12916     12920     12922
     12917     12916     12920     12925     12918     12916     12920     12921
     12918     12916     12920     12922     12918     12916     12920     12925
     12919     12916     12920     12921     12919     12916     12920     12922
     12919     12916     12920     12925     12920     12925     12931     12928
     12921     12920     12922     12923     12921     12920     12922     12924
     12921     12920     12925     12926     12921     12920     12925     12927
     12921     12920     12925     12931     12922     12920     12925     12926
     12922     12920     12925     12927     12922     12920     12925     12931
     12923     12922     12920     12925     12924     12922     12920     12925
     12925     12931     12928     12929     12925     12931     12928     12930
     12925     12931     12928     12932     12926     12925     12931     12928
     12927     12925     12931     12928     12928     12932     12933     12934
     12928     12932     12933     12935     12928     12932     12933     12936
     12929     12928     12932     12933     12930     12928     12932     12933
     12931     12928     12932     12933     12932     12933     12936     12937
     12932     12933     12936     12938     12932     12933     12936     12944
     12933     12936     12938     12939     12933     12936     12944     12945
     12933     12936     12944     12946     12933     12936     12944     12947
     12934     12933     12936     12937     12934     12933     12936     12938
     12934     12933     12936     12944     12935     12933     12936     12937
     12935     12933     12936     12938     12935     12933     12936     12944
     12936     12938     12939     12940     12936     12938     12939     12941
     12936     12944     12947     12948     12937     12936     12938     12939
     12937     12936     12944     12945     12937     12936     12944     12946
     12937     12936     12944     12947     12938     12936     12944     12945
     12938     12936     12944     12946     12938     12936     12944     12947
     12938     12939     12941     12942     12938     12939     12941     12943
     12938     12939     12941     12953     12939     12938     12936     12944
     12939     12941     12953     12954     12939     12941     12953     12955
     12939     12941     12953     12956     12940     12939     12941     12942
     12940     12939     12941     12943     12940     12939     12941     12953
     12941     12953     12956     12957     12941     12953     12956     12958
     12941     12953     12956     12959     12942     12941     12953     12954
     12942     12941     12953     12955     12942     12941     12953     12956
     12943     12941     12953     12954     12943     12941     12953     12955
     12943     12941     12953     12956     12944     12947     12948     12949
     12944     12947     12948     12950     12945     12944     12947     12948
     12946     12944     12947     12948     12947     12948     12950     12951
     12947     12948     12950     12952     12947     12948     12950     13000
     12948     12950     13000     13001     12948     12950     13000     13002
     12948     12950     13000     13003     12949     12948     12950     12951
     12949     12948     12950     12952     12949     12948     12950     13000
     12950     13000     13003     13004     12950     13000     13003     13005
     12950     13000     13003     13006     12951     12950     13000     13001
     12951     12950     13000     13002     12951     12950     13000     13003
     12952     12950     13000     13001     12952     12950     13000     13002
     12952     12950     13000     13003     12953     12956     12959     12960
     12953     12956     12959     12961     12953     12956     12959     12962
     12954     12953     12956     12957     12954     12953     12956     12958
     12954     12953     12956     12959     12955     12953     12956     12957
     12955     12953     12956     12958     12955     12953     12956     12959
     12956     12959     12962     12963     12956     12959     12962     12964
     12956     12959     12962     12965     12957     12956     12959     12960
     12957     12956     12959     12961     12957     12956     12959     12962
     12958     12956     12959     12960     12958     12956     12959     12961
     12958     12956     12959     12962     12959     12962     12965     12966
     12959     12962     12965     12967     12959     12962     12965     12968
     12960     12959     12962     12963     12960     12959     12962     12964
     12960     12959     12962     12965     12961     12959     12962     12963
     12961     12959     12962     12964     12961     12959     12962     12965
     12962     12965     12968     12969     12962     12965     12968     12970
     12962     12965     12968     12971     12963     12962     12965     12966
     12963     12962     12965     12967     12963     12962     12965     12968
     12964     12962     12965     12966     12964     12962     12965     12967
     12964     12962     12965     12968     12965     12968     12971     12972
     12965     12968     12971     12973     12966     12965     12968     12969
     12966     12965     12968     12970     12966     12965     12968     12971
     12967     12965     12968     12969     12967     12965     12968     12970
     12967     12965     12968     12971     12968     12971     12973     12974
     12968     12971     12973     12975     12969     12968     12971     12972
     12969     12968     12971     12973     12970     12968     12971     12972
     12970     12968     12971     12973     12971     12973     12975     12976
     12971     12973     12975     12977     12971     12973     12975     12978
     12972     12971     12973     12974     12972     12971     12973     12975
     12973     12975     12978     12979     12973     12975     12978     12980
     12973     12975     12978     12981     12974     12973     12975     12976
     12974     12973     12975     12977     12974     12973     12975     12978
     12975     12978     12981     12982     12975     12978     12981     12983
     12975     12978     12981     12984     12976     12975     12978     12979
     12976     12975     12978     12980     12976     12975     12978     12981
     12977     12975     12978     12979     12977     12975     12978     12980
     12977     12975     12978     12981     12978     12981     12984     12985
     12978     12981     12984     12986     12978     12981     12984     12987
     12979     12978     12981     12982     12979     12978     12981     12983
     12979     12978     12981     12984     12980     12978     12981     12982
     12980     12978     12981     12983     12980     12978     12981     12984
     12981     12984     12987     12988     12981     12984     12987     12989
     12981     12984     12987     12990     12982     12981     12984     12985
     12982     12981     12984     12986     12982     12981     12984     12987
     12983     12981     12984     12985     12983     12981     12984     12986
     12983     12981     12984     12987     12984     12987     12990     12991
     12984     12987     12990     12992     12984     12987     12990     12993
     12985     12984     12987     12988     12985     12984     12987     12989
     12985     12984     12987     12990     12986     12984     12987     12988
     12986     12984     12987     12989     12986     12984     12987     12990
     12987     12990     12993     12994     12987     12990     12993     12995
     12987     12990     12993     12996     12988     12987     12990     12991
     12988     12987     12990     12992     12988     12987     12990     12993
     12989     12987     12990     12991     12989     12987     12990     12992
     12989     12987     12990     12993     12990     12993     12996     12997
     12990     12993     12996     12998     12990     12993     12996     12999
     12991     12990     12993     12994     12991     12990     12993     12995
     12991     12990     12993     12996     12992     12990     12993     12994
     12992     12990     12993     12995     12992     12990     12993     12996
     12994     12993     12996     12997     12994     12993     12996     12998
     12994     12993     12996     12999     12995     12993     12996     12997
     12995     12993     12996     12998     12995     12993     12996     12999
     13000     13003     13006     13007     13000     13003     13006     13008
     13000     13003     13006     13009     13001     13000     13003     13004
     13001     13000     13003     13005     13001     13000     13003     13006
     13002     13000     13003     13004     13002     13000     13003     13005
     13002     13000     13003     13006     13003     13006     13009     13010
     13003     13006     13009     13011     13003     13006     13009     13012
     13004     13003     13006     13007     13004     13003     13006     13008
     13004     13003     13006     13009     13005     13003     13006     13007
     13005     13003     13006     13008     13005     13003     13006     13009
     13006     13009     13012     13013     13006     13009     13012     13014
     13006     13009     13012     13015     13007     13006     13009     13010
     13007     13006     13009     13011     13007     13006     13009     13012
     13008     13006     13009     13010     13008     13006     13009     13011
     13008     13006     13009     13012     13009     13012     13015     13016
     13009     13012     13015     13017     13009     13012     13015     13018
     13010     13009     13012     13013     13010     13009     13012     13014
     13010     13009     13012     13015     13011     13009     13012     13013
     13011     13009     13012     13014     13011     13009     13012     13015
     13012     13015     13018     13019     13012     13015     13018     13020
     13012     13015     13018     13021     13013     13012     13015     13016
     13013     13012     13015     13017     13013     13012     13015     13018
     13014     13012     13015     13016     13014     13012     13015     13017
     13014     13012     13015     13018     13015     13018     13021     13022
     13015     13018     13021     13023     13015     13018     13021     13024
     13016     13015     13018     13019     13016     13015     13018     13020
     13016     13015     13018     13021     13017     13015     13018     13019
     13017     13015     13018     13020     13017     13015     13018     13021
     13018     13021     13024     13025     13018     13021     13024     13026
     13018     13021     13024     13027     13019     13018     13021     13022
     13019     13018     13021     13023     13019     13018     13021     13024
     13020     13018     13021     13022     13020     13018     13021     13023
     13020     13018     13021     13024     13021     13024     13027     13028
     13021     13024     13027     13029     13021     13024     13027     13030
     13022     13021     13024     13025     13022     13021     13024     13026
     13022     13021     13024     13027     13023     13021     13024     13025
     13023     13021     13024     13026     13023     13021     13024     13027
     13024     13027     13030     13031     13024     13027     13030     13032
     13024     13027     13030     13033     13025     13024     13027     13028
     13025     13024     13027     13029     13025     13024     13027     13030
     13026     13024     13027     13028     13026     13024     13027     13029
     13026     13024     13027     13030     13027     13030     13033     13034
     13027     13030     13033     13035     13027     13030     13033     13036
     13028     13027     13030     13031     13028     13027     13030     13032
     13028     13027     13030     13033     13029     13027     13030     13031
     13029     13027     13030     13032     13029     13027     13030     13033
     13030     13033     13036     13037     13030     13033     13036     13038
     13030     13033     13036     13039     13031     13030     13033     13034
     13031     13030     13033     13035     13031     13030     13033     13036
     13032     13030     13033     13034     13032     13030     13033     13035
     13032     13030     13033     13036     13033     13036     13039     13040
     13033     13036     13039     13041     13033     13036     13039     13042
     13034     13033     13036     13037     13034     13033     13036     13038
     13034     13033     13036     13039     13035     13033     13036     13037
     13035     13033     13036     13038     13035     13033     13036     13039
     13037     13036     13039     13040     13037     13036     13039     13041
     13037     13036     13039     13042     13038     13036     13039     13040
     13038     13036     13039     13041     13038     13036     13039     13042
      7471      7475      7478      7479      7471      7475      7478      7480
      7471      7475      7478      7485      7472      7471      7475      7476
      7472      7471      7475      7477      7472      7471      7475      7478
      7473      7471      7475      7476      7473      7471      7475      7477
      7473      7471      7475      7478      7474      7471      7475      7476
      7474      7471      7475      7477      7474      7471      7475      7478
      7475      7478      7485      7481      7476      7475      7478      7479
      7476      7475      7478      7480      7476      7475      7478      7485
      7477      7475      7478      7479      7477      7475      7478      7480
      7477      7475      7478      7485      7478      7485      7481      7482
      7478      7485      7481      7483      7478      7485      7481      7484
      7479      7478      7485      7481      7480      7478      7485      7481
      7481      7484      7486      7487      7481      7484      7486      7488
      7481      7484      7486      7489      7482      7481      7484      7486
      7483      7481      7484      7486      7484      7486      7489      7490
      7484      7486      7489      7491      7484      7486      7489      7497
      7485      7481      7484      7486      7486      7489      7491      7492
      7486      7489      7497      7498      7486      7489      7497      7499
      7486      7489      7497      7500      7487      7486      7489      7490
      7487      7486      7489      7491      7487      7486      7489      7497
      7488      7486      7489      7490      7488      7486      7489      7491
      7488      7486      7489      7497      7489      7491      7492      7493
      7489      7491      7492      7494      7489      7497      7500      7501
      7490      7489      7491      7492      7490      7489      7497      7498
      7490      7489      7497      7499      7490      7489      7497      7500
      7491      7489      7497      7498      7491      7489      7497      7499
      7491      7489      7497      7500      7491      7492      7494      7495
      7491      7492      7494      7496      7491      7492      7494      7506
      7492      7491      7489      7497      7492      7494      7506      7507
      7492      7494      7506      7508      7492      7494      7506      7509
      7493      7492      7494      7495      7493      7492      7494      7496
      7493      7492      7494      7506      7494      7506      7509      7510
      7494      7506      7509      7511      7494      7506      7509      7512
      7495      7494      7506      7507      7495      7494      7506      7508
      7495      7494      7506      7509      7496      7494      7506      7507
      7496      7494      7506      7508      7496      7494      7506      7509
      7497      7500      7501      7502      7497      7500      7501      7503
      7498      7497      7500      7501      7499      7497      7500      7501
      7500      7501      7503      7504      7500      7501      7503      7505
      7500      7501      7503      7553      7501      7503      7553      7554
      7501      7503      7553      7555      7501      7503      7553      7556
      7502      7501      7503      7504      7502      7501      7503      7505
      7502      7501      7503      7553      7503      7553      7556      7557
      7503      7553      7556      7558      7503      7553      7556      7559
      7504      7503      7553      7554      7504      7503      7553      7555
      7504      7503      7553      7556      7505      7503      7553      7554
      7505      7503      7553      7555      7505      7503      7553      7556
      7506      7509      7512      7513      7506      7509      7512      7514
      7506      7509      7512      7515      7507      7506      7509      7510
      7507      7506      7509      7511      7507      7506      7509      7512
      7508      7506      7509      7510      7508      7506      7509      7511
      7508      7506      7509      7512      7509      7512      7515      7516
      7509      7512      7515      7517      7509      7512      7515      7518
      7510      7509      7512      7513      7510      7509      7512      7514
      7510      7509      7512      7515      7511      7509      7512      7513
      7511      7509      7512      7514      7511      7509      7512      7515
      7512      7515      7518      7519      7512      7515      7518      7520
      7512      7515      7518      7521      7513      7512      7515      7516
      7513      7512      7515      7517      7513      7512      7515      7518
      7514      7512      7515      7516      7514      7512      7515      7517
      7514      7512      7515      7518      7515      7518      7521      7522
      7515      7518      7521      7523      7515      7518      7521      7524
      7516      7515      7518      7519      7516      7515      7518      7520
      7516      7515      7518      7521      7517      7515      7518      7519
      7517      7515      7518      7520      7517      7515      7518      7521
      7518      7521      7524      7525      7518      7521      7524      7526
      7519      7518      7521      7522      7519      7518      7521      7523
      7519      7518      7521      7524      7520      7518      7521      7522
      7520      7518      7521      7523      7520      7518      7521      7524
      7521      7524      7526      7527      7521      7524      7526      7528
      7522      7521      7524      7525      7522      7521      7524      7526
      7523      7521      7524      7525      7523      7521      7524      7526
      7524      7526      7528      7529      7524      7526      7528      7530
      7524      7526      7528      7531      7525      7524      7526      7527
      7525      7524      7526      7528      7526      7528      7531      7532
      7526      7528      7531      7533      7526      7528      7531      7534
      7527      7526      7528      7529      7527      7526      7528      7530
      7527      7526      7528      7531      7528      7531      7534      7535
      7528      7531      7534      7536      7528      7531      7534      7537
      7529      7528      7531      7532      7529      7528      7531      7533
      7529      7528      7531      7534      7530      7528      7531      7532
      7530      7528      7531      7533      7530      7528      7531      7534
      7531      7534      7537      7538      7531      7534      7537      7539
      7531      7534      7537      7540      7532      7531      7534      7535
      7532      7531      7534      7536      7532      7531      7534      7537
      7533      7531      7534      7535      7533      7531      7534      7536
      7533      7531      7534      7537      7534      7537      7540      7541
      7534      7537      7540      7542      7534      7537      7540      7543
      7535      7534      7537      7538      7535      7534      7537      7539
      7535      7534      7537      7540      7536      7534      7537      7538
      7536      7534      7537      7539      7536      7534      7537      7540
      7537      7540      7543      7544      7537      7540      7543      7545
      7537      7540      7543      7546      7538      7537      7540      7541
      7538      7537      7540      7542      7538      7537      7540      7543
      7539      7537      7540      7541      7539      7537      7540      7542
      7539      7537      7540      7543      7540      7543      7546      7547
      7540      7543      7546      7548      7540      7543      7546      7549
      7541      7540      7543      7544      7541      7540      7543      7545
      7541      7540      7543      7546      7542      7540      7543      7544
      7542      7540      7543      7545      7542      7540      7543      7546
      7543      7546      7549      7550      7543      7546      7549      7551
      7543      7546      7549      7552      7544      7543      7546      7547
      7544      7543      7546      7548      7544      7543      7546      7549
      7545      7543      7546      7547      7545      7543      7546      7548
      7545      7543      7546      7549      7547      7546      7549      7550
      7547      7546      7549      7551      7547      7546      7549      7552
      7548      7546      7549      7550      7548      7546      7549      7551
      7548      7546      7549      7552      7553      7556      7559      7560
      7553      7556      7559      7561      7553      7556      7559      7562
      7554      7553      7556      7557      7554      7553      7556      7558
      7554      7553      7556      7559      7555      7553      7556      7557
      7555      7553      7556      7558      7555      7553      7556      7559
      7556      7559      7562      7563      7556      7559      7562      7564
      7556      7559      7562      7565      7557      7556      7559      7560
      7557      7556      7559      7561      7557      7556      7559      7562
      7558      7556      7559      7560      7558      7556      7559      7561
      7558      7556      7559      7562      7559      7562      7565      7566
      7559      7562      7565      7567      7559      7562      7565      7568
      7560      7559      7562      7563      7560      7559      7562      7564
      7560      7559      7562      7565      7561      7559      7562      7563
      7561      7559      7562      7564      7561      7559      7562      7565
      7562      7565      7568      7569      7562      7565      7568      7570
      7562      7565      7568      7571      7563      7562      7565      7566
      7563      7562      7565      7567      7563      7562      7565      7568
      7564      7562      7565      7566      7564      7562      7565      7567
      7564      7562      7565      7568      7565      7568      7571      7572
      7565      7568      7571      7573      7565      7568      7571      7574
      7566      7565      7568      7569      7566      7565      7568      7570
      7566      7565      7568      7571      7567      7565      7568      7569
      7567      7565      7568      7570      7567      7565      7568      7571
      7568      7571      7574      7575      7568      7571      7574      7576
      7568      7571      7574      7577      7569      7568      7571      7572
      7569      7568      7571      7573      7569      7568      7571      7574
      7570      7568      7571      7572      7570      7568      7571      7573
      7570      7568      7571      7574      7571      7574      7577      7578
      7571      7574      7577      7579      7571      7574      7577      7580
      7572      7571      7574      7575      7572      7571      7574      7576
      7572      7571      7574      7577      7573      7571      7574      7575
      7573      7571      7574      7576      7573      7571      7574      7577
      7574      7577      7580      7581      7574      7577      7580      7582
      7574      7577      7580      7583      7575      7574      7577      7578
      7575      7574      7577      7579      7575      7574      7577      7580
      7576      7574      7577      7578      7576      7574      7577      7579
      7576      7574      7577      7580      7577      7580      7583      7584
      7577      7580      7583      7585      7577      7580      7583      7586
      7578      7577      7580      7581      7578      7577      7580      7582
      7578      7577      7580      7583      7579      7577      7580      7581
      7579      7577      7580      7582      7579      7577      7580      7583
      7580      7583      7586      7587      7580      7583      7586      7588
      7580      7583      7586      7589      7581      7580      7583      7584
      7581      7580      7583      7585      7581      7580      7583      7586
      7582      7580      7583      7584      7582      7580      7583      7585
      7582      7580      7583      7586      7583      7586      7589      7590
      7583      7586      7589      7591      7583      7586      7589      7592
      7584      7583      7586      7587      7584      7583      7586      7588
      7584      7583      7586      7589      7585      7583      7586      7587
      7585      7583      7586      7588      7585      7583      7586      7589
      7586      7589      7592      7593      7586      7589      7592      7594
      7586      7589      7592      7595      7587      7586      7589      7590
      7587      7586      7589      7591      7587      7586      7589      7592
      7588      7586      7589      7590      7588      7586      7589      7591
      7588      7586      7589      7592      7590      7589      7592      7593
      7590      7589      7592      7594      7590      7589      7592      7595
      7591      7589      7592      7593      7591      7589      7592      7594
      7591      7589      7592      7595     13043     13047     13049     13050
     13043     13047     13049     13051     13043     13047     13052     13053
     13043     13047     13052     13054     13043     13047     13052     13058
     13044     13043     13047     13048     13044     13043     13047     13049
     13044     13043     13047     13052     13045     13043     13047     13048
     13045     13043     13047     13049     13045     13043     13047     13052
     13046     13043     13047     13048     13046     13043     13047     13049
     13046     13043     13047     13052     13047     13052     13058     13055
     13048     13047     13049     13050     13048     13047     13049     13051
     13048     13047     13052     13053     13048     13047     13052     13054
     13048     13047     13052     13058     13049     13047     13052     13053
     13049     13047     13052     13054     13049     13047     13052     13058
     13050     13049     13047     13052     13051     13049     13047     13052
     13052     13058     13055     13056     13052     13058     13055     13057
     13052     13058     13055     13059     13053     13052     13058     13055
     13054     13052     13058     13055     13055     13059     13060     13061
     13055     13059     13060     13062     13055     13059     13060     13063
     13056     13055     13059     13060     13057     13055     13059     13060
     13058     13055     13059     13060     13059     13060     13063     13064
     13059     13060     13063     13065     13059     13060     13063     13071
     13060     13063     13065     13066     13060     13063     13071     13072
     13060     13063     13071     13073     13060     13063     13071     13074
     13061     13060     13063     13064     13061     13060     13063     13065
     13061     13060     13063     13071     13062     13060     13063     13064
     13062     13060     13063     13065     13062     13060     13063     13071
     13063     13065     13066     13067     13063     13065     13066     13068
     13063     13071     13074     13075     13064     13063     13065     13066
     13064     13063     13071     13072     13064     13063     13071     13073
     13064     13063     13071     13074     13065     13063     13071     13072
     13065     13063     13071     13073     13065     13063     13071     13074
     13065     13066     13068     13069     13065     13066     13068     13070
     13065     13066     13068     13080     13066     13065     13063     13071
     13066     13068     13080     13081     13066     13068     13080     13082
     13066     13068     13080     13083     13067     13066     13068     13069
     13067     13066     13068     13070     13067     13066     13068     13080
     13068     13080     13083     13084     13068     13080     13083     13085
     13068     13080     13083     13086     13069     13068     13080     13081
     13069     13068     13080     13082     13069     13068     13080     13083
     13070     13068     13080     13081     13070     13068     13080     13082
     13070     13068     13080     13083     13071     13074     13075     13076
     13071     13074     13075     13077     13072     13071     13074     13075
     13073     13071     13074     13075     13074     13075     13077     13078
     13074     13075     13077     13079     13074     13075     13077     13127
     13075     13077     13127     13128     13075     13077     13127     13129
     13075     13077     13127     13130     13076     13075     13077     13078
     13076     13075     13077     13079     13076     13075     13077     13127
     13077     13127     13130     13131     13077     13127     13130     13132
     13077     13127     13130     13133     13078     13077     13127     13128
     13078     13077     13127     13129     13078     13077     13127     13130
     13079     13077     13127     13128     13079     13077     13127     13129
     13079     13077     13127     13130     13080     13083     13086     13087
     13080     13083     13086     13088     13080     13083     13086     13089
     13081     13080     13083     13084     13081     13080     13083     13085
     13081     13080     13083     13086     13082     13080     13083     13084
     13082     13080     13083     13085     13082     13080     13083     13086
     13083     13086     13089     13090     13083     13086     13089     13091
     13083     13086     13089     13092     13084     13083     13086     13087
     13084     13083     13086     13088     13084     13083     13086     13089
     13085     13083     13086     13087     13085     13083     13086     13088
     13085     13083     13086     13089     13086     13089     13092     13093
     13086     13089     13092     13094     13086     13089     13092     13095
     13087     13086     13089     13090     13087     13086     13089     13091
     13087     13086     13089     13092     13088     13086     13089     13090
     13088     13086     13089     13091     13088     13086     13089     13092
     13089     13092     13095     13096     13089     13092     13095     13097
     13089     13092     13095     13098     13090     13089     13092     13093
     13090     13089     13092     13094     13090     13089     13092     13095
     13091     13089     13092     13093     13091     13089     13092     13094
     13091     13089     13092     13095     13092     13095     13098     13099
     13092     13095     13098     13100     13093     13092     13095     13096
     13093     13092     13095     13097     13093     13092     13095     13098
     13094     13092     13095     13096     13094     13092     13095     13097
     13094     13092     13095     13098     13095     13098     13100     13101
     13095     13098     13100     13102     13096     13095     13098     13099
     13096     13095     13098     13100     13097     13095     13098     13099
     13097     13095     13098     13100     13098     13100     13102     13103
     13098     13100     13102     13104     13098     13100     13102     13105
     13099     13098     13100     13101     13099     13098     13100     13102
     13100     13102     13105     13106     13100     13102     13105     13107
     13100     13102     13105     13108     13101     13100     13102     13103
     13101     13100     13102     13104     13101     13100     13102     13105
     13102     13105     13108     13109     13102     13105     13108     13110
     13102     13105     13108     13111     13103     13102     13105     13106
     13103     13102     13105     13107     13103     13102     13105     13108
     13104     13102     13105     13106     13104     13102     13105     13107
     13104     13102     13105     13108     13105     13108     13111     13112
     13105     13108     13111     13113     13105     13108     13111     13114
     13106     13105     13108     13109     13106     13105     13108     13110
     13106     13105     13108     13111     13107     13105     13108     13109
     13107     13105     13108     13110     13107     13105     13108     13111
     13108     13111     13114     13115     13108     13111     13114     13116
     13108     13111     13114     13117     13109     13108     13111     13112
     13109     13108     13111     13113     13109     13108     13111     13114
     13110     13108     13111     13112     13110     13108     13111     13113
     13110     13108     13111     13114     13111     13114     13117     13118
     13111     13114     13117     13119     13111     13114     13117     13120
     13112     13111     13114     13115     13112     13111     13114     13116
     13112     13111     13114     13117     13113     13111     13114     13115
     13113     13111     13114     13116     13113     13111     13114     13117
     13114     13117     13120     13121     13114     13117     13120     13122
     13114     13117     13120     13123     13115     13114     13117     13118
     13115     13114     13117     13119     13115     13114     13117     13120
     13116     13114     13117     13118     13116     13114     13117     13119
     13116     13114     13117     13120     13117     13120     13123     13124
     13117     13120     13123     13125     13117     13120     13123     13126
     13118     13117     13120     13121     13118     13117     13120     13122
     13118     13117     13120     13123     13119     13117     13120     13121
     13119     13117     13120     13122     13119     13117     13120     13123
     13121     13120     13123     13124     13121     13120     13123     13125
     13121     13120     13123     13126     13122     13120     13123     13124
     13122     13120     13123     13125     13122     13120     13123     13126
     13127     13130     13133     13134     13127     13130     13133     13135
     13127     13130     13133     13136     13128     13127     13130     13131
     13128     13127     13130     13132     13128     13127     13130     13133
     13129     13127     13130     13131     13129     13127     13130     13132
     13129     13127     13130     13133     13130     13133     13136     13137
     13130     13133     13136     13138     13130     13133     13136     13139
     13131     13130     13133     13134     13131     13130     13133     13135
     13131     13130     13133     13136     13132     13130     13133     13134
     13132     13130     13133     13135     13132     13130     13133     13136
     13133     13136     13139     13140     13133     13136     13139     13141
     13133     13136     13139     13142     13134     13133     13136     13137
     13134     13133     13136     13138     13134     13133     13136     13139
     13135     13133     13136     13137     13135     13133     13136     13138
     13135     13133     13136     13139     13136     13139     13142     13143
     13136     13139     13142     13144     13136     13139     13142     13145
     13137     13136     13139     13140     13137     13136     13139     13141
     13137     13136     13139     13142     13138     13136     13139     13140
     13138     13136     13139     13141     13138     13136     13139     13142
     13139     13142     13145     13146     13139     13142     13145     13147
     13139     13142     13145     13148     13140     13139     13142     13143
     13140     13139     13142     13144     13140     13139     13142     13145
     13141     13139     13142     13143     13141     13139     13142     13144
     13141     13139     13142     13145     13142     13145     13148     13149
     13142     13145     13148     13150     13142     13145     13148     13151
     13143     13142     13145     13146     13143     13142     13145     13147
     13143     13142     13145     13148     13144     13142     13145     13146
     13144     13142     13145     13147     13144     13142     13145     13148
     13145     13148     13151     13152     13145     13148     13151     13153
     13145     13148     13151     13154     13146     13145     13148     13149
     13146     13145     13148     13150     13146     13145     13148     13151
     13147     13145     13148     13149     13147     13145     13148     13150
     13147     13145     13148     13151     13148     13151     13154     13155
     13148     13151     13154     13156     13148     13151     13154     13157
     13149     13148     13151     13152     13149     13148     13151     13153
     13149     13148     13151     13154     13150     13148     13151     13152
     13150     13148     13151     13153     13150     13148     13151     13154
     13151     13154     13157     13158     13151     13154     13157     13159
     13151     13154     13157     13160     13152     13151     13154     13155
     13152     13151     13154     13156     13152     13151     13154     13157
     13153     13151     13154     13155     13153     13151     13154     13156
     13153     13151     13154     13157     13154     13157     13160     13161
     13154     13157     13160     13162     13154     13157     13160     13163
     13155     13154     13157     13158     13155     13154     13157     13159
     13155     13154     13157     13160     13156     13154     13157     13158
     13156     13154     13157     13159     13156     13154     13157     13160
     13157     13160     13163     13164     13157     13160     13163     13165
     13157     13160     13163     13166     13158     13157     13160     13161
     13158     13157     13160     13162     13158     13157     13160     13163
     13159     13157     13160     13161     13159     13157     13160     13162
     13159     13157     13160     13163     13160     13163     13166     13167
     13160     13163     13166     13168     13160     13163     13166     13169
     13161     13160     13163     13164     13161     13160     13163     13165
     13161     13160     13163     13166     13162     13160     13163     13164
     13162     13160     13163     13165     13162     13160     13163     13166
     13164     13163     13166     13167     13164     13163     13166     13168
     13164     13163     13166     13169     13165     13163     13166     13167
     13165     13163     13166     13168     13165     13163     13166     13169
      7596      7600      7603      7604      7596      7600      7603      7605
      7596      7600      7603      7610      7597      7596      7600      7601
      7597      7596      7600      7602      7597      7596      7600      7603
      7598      7596      7600      7601      7598      7596      7600      7602
      7598      7596      7600      7603      7599      7596      7600      7601
      7599      7596      7600      7602      7599      7596      7600      7603
      7600      7603      7610      7606      7601      7600      7603      7604
      7601      7600      7603      7605      7601      7600      7603      7610
      7602      7600      7603      7604      7602      7600      7603      7605
      7602      7600      7603      7610      7603      7610      7606      7607
      7603      7610      7606      7608      7603      7610      7606      7609
      7604      7603      7610      7606      7605      7603      7610      7606
      7606      7609      7611      7612      7606      7609      7611      7613
      7606      7609      7611      7614      7607      7606      7609      7611
      7608      7606      7609      7611      7609      7611      7614      7615
      7609      7611      7614      7616      7609      7611      7614      7622
      7610      7606      7609      7611      7611      7614      7616      7617
      7611      7614      7622      7623      7611      7614      7622      7624
      7611      7614      7622      7625      7612      7611      7614      7615
      7612      7611      7614      7616      7612      7611      7614      7622
      7613      7611      7614      7615      7613      7611      7614      7616
      7613      7611      7614      7622      7614      7616      7617      7618
      7614      7616      7617      7619      7614      7622      7625      7626
      7615      7614      7616      7617      7615      7614      7622      7623
      7615      7614      7622      7624      7615      7614      7622      7625
      7616      7614      7622      7623      7616      7614      7622      7624
      7616      7614      7622      7625      7616      7617      7619      7620
      7616      7617      7619      7621      7616      7617      7619      7631
      7617      7616      7614      7622      7617      7619      7631      7632
      7617      7619      7631      7633      7617      7619      7631      7634
      7618      7617      7619      7620      7618      7617      7619      7621
      7618      7617      7619      7631      7619      7631      7634      7635
      7619      7631      7634      7636      7619      7631      7634      7637
      7620      7619      7631      7632      7620      7619      7631      7633
      7620      7619      7631      7634      7621      7619      7631      7632
      7621      7619      7631      7633      7621      7619      7631      7634
      7622      7625      7626      7627      7622      7625      7626      7628
      7623      7622      7625      7626      7624      7622      7625      7626
      7625      7626      7628      7629      7625      7626      7628      7630
      7625      7626      7628      7678      7626      7628      7678      7679
      7626      7628      7678      7680      7626      7628      7678      7681
      7627      7626      7628      7629      7627      7626      7628      7630
      7627      7626      7628      7678      7628      7678      7681      7682
      7628      7678      7681      7683      7628      7678      7681      7684
      7629      7628      7678      7679      7629      7628      7678      7680
      7629      7628      7678      7681      7630      7628      7678      7679
      7630      7628      7678      7680      7630      7628      7678      7681
      7631      7634      7637      7638      7631      7634      7637      7639
      7631      7634      7637      7640      7632      7631      7634      7635
      7632      7631      7634      7636      7632      7631      7634      7637
      7633      7631      7634      7635      7633      7631      7634      7636
      7633      7631      7634      7637      7634      7637      7640      7641
      7634      7637      7640      7642      7634      7637      7640      7643
      7635      7634      7637      7638      7635      7634      7637      7639
      7635      7634      7637      7640      7636      7634      7637      7638
      7636      7634      7637      7639      7636      7634      7637      7640
      7637      7640      7643      7644      7637      7640      7643      7645
      7637      7640      7643      7646      7638      7637      7640      7641
      7638      7637      7640      7642      7638      7637      7640      7643
      7639      7637      7640      7641      7639      7637      7640      7642
      7639      7637      7640      7643      7640      7643      7646      7647
      7640      7643      7646      7648      7640      7643      7646      7649
      7641      7640      7643      7644      7641      7640      7643      7645
      7641      7640      7643      7646      7642      7640      7643      7644
      7642      7640      7643      7645      7642      7640      7643      7646
      7643      7646      7649      7650      7643      7646      7649      7651
      7644      7643      7646      7647      7644      7643      7646      7648
      7644      7643      7646      7649      7645      7643      7646      7647
      7645      7643      7646      7648      7645      7643      7646      7649
      7646      7649      7651      7652      7646      7649      7651      7653
      7647      7646      7649      7650      7647      7646      7649      7651
      7648      7646      7649      7650      7648      7646      7649      7651
      7649      7651      7653      7654      7649      7651      7653      7655
      7649      7651      7653      7656      7650      7649      7651      7652
      7650      7649      7651      7653      7651      7653      7656      7657
      7651      7653      7656      7658      7651      7653      7656      7659
      7652      7651      7653      7654      7652      7651      7653      7655
      7652      7651      7653      7656      7653      7656      7659      7660
      7653      7656      7659      7661      7653      7656      7659      7662
      7654      7653      7656      7657      7654      7653      7656      7658
      7654      7653      7656      7659      7655      7653      7656      7657
      7655      7653      7656      7658      7655      7653      7656      7659
      7656      7659      7662      7663      7656      7659      7662      7664
      7656      7659      7662      7665      7657      7656      7659      7660
      7657      7656      7659      7661      7657      7656      7659      7662
      7658      7656      7659      7660      7658      7656      7659      7661
      7658      7656      7659      7662      7659      7662      7665      7666
      7659      7662      7665      7667      7659      7662      7665      7668
      7660      7659      7662      7663      7660      7659      7662      7664
      7660      7659      7662      7665      7661      7659      7662      7663
      7661      7659      7662      7664      7661      7659      7662      7665
      7662      7665      7668      7669      7662      7665      7668      7670
      7662      7665      7668      7671      7663      7662      7665      7666
      7663      7662      7665      7667      7663      7662      7665      7668
      7664      7662      7665      7666      7664      7662      7665      7667
      7664      7662      7665      7668      7665      7668      7671      7672
      7665      7668      7671      7673      7665      7668      7671      7674
      7666      7665      7668      7669      7666      7665      7668      7670
      7666      7665      7668      7671      7667      7665      7668      7669
      7667      7665      7668      7670      7667      7665      7668      7671
      7668      7671      7674      7675      7668      7671      7674      7676
      7668      7671      7674      7677      7669      7668      7671      7672
      7669      7668      7671      7673      7669      7668      7671      7674
      7670      7668      7671      7672      7670      7668      7671      7673
      7670      7668      7671      7674      7672      7671      7674      7675
      7672      7671      7674      7676      7672      7671      7674      7677
      7673      7671      7674      7675      7673      7671      7674      7676
      7673      7671      7674      7677      7678      7681      7684      7685
      7678      7681      7684      7686      7678      7681      7684      7687
      7679      7678      7681      7682      7679      7678      7681      7683
      7679      7678      7681      7684      7680      7678      7681      7682
      7680      7678      7681      7683      7680      7678      7681      7684
      7681      7684      7687      7688      7681      7684      7687      7689
      7681      7684      7687      7690      7682      7681      7684      7685
      7682      7681      7684      7686      7682      7681      7684      7687
      7683      7681      7684      7685      7683      7681      7684      7686
      7683      7681      7684      7687      7684      7687      7690      7691
      7684      7687      7690      7692      7684      7687      7690      7693
      7685      7684      7687      7688      7685      7684      7687      7689
      7685      7684      7687      7690      7686      7684      7687      7688
      7686      7684      7687      7689      7686      7684      7687      7690
      7687      7690      7693      7694      7687      7690      7693      7695
      7687      7690      7693      7696      7688      7687      7690      7691
      7688      7687      7690      7692      7688      7687      7690      7693
      7689      7687      7690      7691      7689      7687      7690      7692
      7689      7687      7690      7693      7690      7693      7696      7697
      7690      7693      7696      7698      7690      7693      7696      7699
      7691      7690      7693      7694      7691      7690      7693      7695
      7691      7690      7693      7696      7692      7690      7693      7694
      7692      7690      7693      7695      7692      7690      7693      7696
      7693      7696      7699      7700      7693      7696      7699      7701
      7693      7696      7699      7702      7694      7693      7696      7697
      7694      7693      7696      7698      7694      7693      7696      7699
      7695      7693      7696      7697      7695      7693      7696      7698
      7695      7693      7696      7699      7696      7699      7702      7703
      7696      7699      7702      7704      7696      7699      7702      7705
      7697      7696      7699      7700      7697      7696      7699      7701
      7697      7696      7699      7702      7698      7696      7699      7700
      7698      7696      7699      7701      7698      7696      7699      7702
      7699      7702      7705      7706      7699      7702      7705      7707
      7699      7702      7705      7708      7700      7699      7702      7703
      7700      7699      7702      7704      7700      7699      7702      7705
      7701      7699      7702      7703      7701      7699      7702      7704
      7701      7699      7702      7705      7702      7705      7708      7709
      7702      7705      7708      7710      7702      7705      7708      7711
      7703      7702      7705      7706      7703      7702      7705      7707
      7703      7702      7705      7708      7704      7702      7705      7706
      7704      7702      7705      7707      7704      7702      7705      7708
      7705      7708      7711      7712      7705      7708      7711      7713
      7705      7708      7711      7714      7706      7705      7708      7709
      7706      7705      7708      7710      7706      7705      7708      7711
      7707      7705      7708      7709      7707      7705      7708      7710
      7707      7705      7708      7711      7708      7711      7714      7715
      7708      7711      7714      7716      7708      7711      7714      7717
      7709      7708      7711      7712      7709      7708      7711      7713
      7709      7708      7711      7714      7710      7708      7711      7712
      7710      7708      7711      7713      7710      7708      7711      7714
      7711      7714      7717      7718      7711      7714      7717      7719
      7711      7714      7717      7720      7712      7711      7714      7715
      7712      7711      7714      7716      7712      7711      7714      7717
      7713      7711      7714      7715      7713      7711      7714      7716
      7713      7711      7714      7717      7715      7714      7717      7718
      7715      7714      7717      7719      7715      7714      7717      7720
      7716      7714      7717      7718      7716      7714      7717      7719
      7716      7714      7717      7720     20653     20654     20669     20670
     20653     20654     20669     20671     20653     20654     20669     20675
     20654     20653     20657     20658     20654     20653     20657     20659
     20654     20653     20657     20660     20654     20653     20661     20662
     20654     20653     20661     20663     20654     20653     20661     20664
     20654     20653     20665     20666     20654     20653     20665     20667
     20654     20653     20665     20668     20654     20669     20675     20672
     20655     20654     20653     20657     20655     20654     20653     20661
     20655     20654     20653     20665     20655     20654     20669     20670
     20655     20654     20669     20671     20655     20654     20669     20675
     20656     20654     20653     20657     20656     20654     20653     20661
     20656     20654     20653     20665     20656     20654     20669     20670
     20656     20654     20669     20671     20656     20654     20669     20675
     20657     20653     20654     20669     20657     20653     20661     20662
     20657     20653     20661     20663     20657     20653     20661     20664
     20657     20653     20665     20666     20657     20653     20665     20667
     20657     20653     20665     20668     20658     20657     20653     20661
     20658     20657     20653     20665     20659     20657     20653     20661
     20659     20657     20653     20665     20660     20657     20653     20661
     20660     20657     20653     20665     20661     20653     20654     20669
     20661     20653     20665     20666     20661     20653     20665     20667
     20661     20653     20665     20668     20662     20661     20653     20665
     20663     20661     20653     20665     20664     20661     20653     20665
     20665     20653     20654     20669     20669     20675     20672     20673
     20669     20675     20672     20674     20669     20675     20672     20676
     20670     20669     20675     20672     20671     20669     20675     20672
     20672     20676     20677     20678     20672     20676     20677     20679
     20672     20676     20677     20680     20673     20672     20676     20677
     20674     20672     20676     20677     20675     20672     20676     20677
     20676     20677     20680     20681     20676     20677     20680     20682
     20676     20677     20680     20688     20677     20680     20682     20683
     20677     20680     20688     20689     20677     20680     20688     20690
     20677     20680     20688     20691     20678     20677     20680     20681
     20678     20677     20680     20682     20678     20677     20680     20688
     20679     20677     20680     20681     20679     20677     20680     20682
     20679     20677     20680     20688     20680     20682     20683     20684
     20680     20682     20683     20685     20680     20688     20691     20692
     20681     20680     20682     20683     20681     20680     20688     20689
     20681     20680     20688     20690     20681     20680     20688     20691
     20682     20680     20688     20689     20682     20680     20688     20690
     20682     20680     20688     20691     20682     20683     20685     20686
     20682     20683     20685     20687     20682     20683     20685     20697
     20683     20682     20680     20688     20683     20685     20697     20698
     20683     20685     20697     20699     20683     20685     20697     20700
     20684     20683     20685     20686     20684     20683     20685     20687
     20684     20683     20685     20697     20685     20697     20700     20701
     20685     20697     20700     20702     20685     20697     20700     20703
     20686     20685     20697     20698     20686     20685     20697     20699
     20686     20685     20697     20700     20687     20685     20697     20698
     20687     20685     20697     20699     20687     20685     20697     20700
     20688     20691     20692     20693     20688     20691     20692     20694
     20689     20688     20691     20692     20690     20688     20691     20692
     20691     20692     20694     20695     20691     20692     20694     20696
     20691     20692     20694     20744     20692     20694     20744     20745
     20692     20694     20744     20746     20692     20694     20744     20747
     20693     20692     20694     20695     20693     20692     20694     20696
     20693     20692     20694     20744     20694     20744     20747     20748
     20694     20744     20747     20749     20694     20744     20747     20750
     20695     20694     20744     20745     20695     20694     20744     20746
     20695     20694     20744     20747     20696     20694     20744     20745
     20696     20694     20744     20746     20696     20694     20744     20747
     20697     20700     20703     20704     20697     20700     20703     20705
     20697     20700     20703     20706     20698     20697     20700     20701
     20698     20697     20700     20702     20698     20697     20700     20703
     20699     20697     20700     20701     20699     20697     20700     20702
     20699     20697     20700     20703     20700     20703     20706     20707
     20700     20703     20706     20708     20700     20703     20706     20709
     20701     20700     20703     20704     20701     20700     20703     20705
     20701     20700     20703     20706     20702     20700     20703     20704
     20702     20700     20703     20705     20702     20700     20703     20706
     20703     20706     20709     20710     20703     20706     20709     20711
     20703     20706     20709     20712     20704     20703     20706     20707
     20704     20703     20706     20708     20704     20703     20706     20709
     20705     20703     20706     20707     20705     20703     20706     20708
     20705     20703     20706     20709     20706     20709     20712     20713
     20706     20709     20712     20714     20706     20709     20712     20715
     20707     20706     20709     20710     20707     20706     20709     20711
     20707     20706     20709     20712     20708     20706     20709     20710
     20708     20706     20709     20711     20708     20706     20709     20712
     20709     20712     20715     20716     20709     20712     20715     20717
     20710     20709     20712     20713     20710     20709     20712     20714
     20710     20709     20712     20715     20711     20709     20712     20713
     20711     20709     20712     20714     20711     20709     20712     20715
     20712     20715     20717     20718     20712     20715     20717     20719
     20713     20712     20715     20716     20713     20712     20715     20717
     20714     20712     20715     20716     20714     20712     20715     20717
     20715     20717     20719     20720     20715     20717     20719     20721
     20715     20717     20719     20722     20716     20715     20717     20718
     20716     20715     20717     20719     20717     20719     20722     20723
     20717     20719     20722     20724     20717     20719     20722     20725
     20718     20717     20719     20720     20718     20717     20719     20721
     20718     20717     20719     20722     20719     20722     20725     20726
     20719     20722     20725     20727     20719     20722     20725     20728
     20720     20719     20722     20723     20720     20719     20722     20724
     20720     20719     20722     20725     20721     20719     20722     20723
     20721     20719     20722     20724     20721     20719     20722     20725
     20722     20725     20728     20729     20722     20725     20728     20730
     20722     20725     20728     20731     20723     20722     20725     20726
     20723     20722     20725     20727     20723     20722     20725     20728
     20724     20722     20725     20726     20724     20722     20725     20727
     20724     20722     20725     20728     20725     20728     20731     20732
     20725     20728     20731     20733     20725     20728     20731     20734
     20726     20725     20728     20729     20726     20725     20728     20730
     20726     20725     20728     20731     20727     20725     20728     20729
     20727     20725     20728     20730     20727     20725     20728     20731
     20728     20731     20734     20735     20728     20731     20734     20736
     20728     20731     20734     20737     20729     20728     20731     20732
     20729     20728     20731     20733     20729     20728     20731     20734
     20730     20728     20731     20732     20730     20728     20731     20733
     20730     20728     20731     20734     20731     20734     20737     20738
     20731     20734     20737     20739     20731     20734     20737     20740
     20732     20731     20734     20735     20732     20731     20734     20736
     20732     20731     20734     20737     20733     20731     20734     20735
     20733     20731     20734     20736     20733     20731     20734     20737
     20734     20737     20740     20741     20734     20737     20740     20742
     20734     20737     20740     20743     20735     20734     20737     20738
     20735     20734     20737     20739     20735     20734     20737     20740
     20736     20734     20737     20738     20736     20734     20737     20739
     20736     20734     20737     20740     20738     20737     20740     20741
     20738     20737     20740     20742     20738     20737     20740     20743
     20739     20737     20740     20741     20739     20737     20740     20742
     20739     20737     20740     20743     20744     20747     20750     20751
     20744     20747     20750     20752     20744     20747     20750     20753
     20745     20744     20747     20748     20745     20744     20747     20749
     20745     20744     20747     20750     20746     20744     20747     20748
     20746     20744     20747     20749     20746     20744     20747     20750
     20747     20750     20753     20754     20747     20750     20753     20755
     20747     20750     20753     20756     20748     20747     20750     20751
     20748     20747     20750     20752     20748     20747     20750     20753
     20749     20747     20750     20751     20749     20747     20750     20752
     20749     20747     20750     20753     20750     20753     20756     20757
     20750     20753     20756     20758     20750     20753     20756     20759
     20751     20750     20753     20754     20751     20750     20753     20755
     20751     20750     20753     20756     20752     20750     20753     20754
     20752     20750     20753     20755     20752     20750     20753     20756
     20753     20756     20759     20760     20753     20756     20759     20761
     20753     20756     20759     20762     20754     20753     20756     20757
     20754     20753     20756     20758     20754     20753     20756     20759
     20755     20753     20756     20757     20755     20753     20756     20758
     20755     20753     20756     20759     20756     20759     20762     20763
     20756     20759     20762     20764     20756     20759     20762     20765
     20757     20756     20759     20760     20757     20756     20759     20761
     20757     20756     20759     20762     20758     20756     20759     20760
     20758     20756     20759     20761     20758     20756     20759     20762
     20759     20762     20765     20766     20759     20762     20765     20767
     20759     20762     20765     20768     20760     20759     20762     20763
     20760     20759     20762     20764     20760     20759     20762     20765
     20761     20759     20762     20763     20761     20759     20762     20764
     20761     20759     20762     20765     20762     20765     20768     20769
     20762     20765     20768     20770     20762     20765     20768     20771
     20763     20762     20765     20766     20763     20762     20765     20767
     20763     20762     20765     20768     20764     20762     20765     20766
     20764     20762     20765     20767     20764     20762     20765     20768
     20765     20768     20771     20772     20765     20768     20771     20773
     20765     20768     20771     20774     20766     20765     20768     20769
     20766     20765     20768     20770     20766     20765     20768     20771
     20767     20765     20768     20769     20767     20765     20768     20770
     20767     20765     20768     20771     20768     20771     20774     20775
     20768     20771     20774     20776     20768     20771     20774     20777
     20769     20768     20771     20772     20769     20768     20771     20773
     20769     20768     20771     20774     20770     20768     20771     20772
     20770     20768     20771     20773     20770     20768     20771     20774
     20771     20774     20777     20778     20771     20774     20777     20779
     20771     20774     20777     20780     20772     20771     20774     20775
     20772     20771     20774     20776     20772     20771     20774     20777
     20773     20771     20774     20775     20773     20771     20774     20776
     20773     20771     20774     20777     20774     20777     20780     20781
     20774     20777     20780     20782     20774     20777     20780     20783
     20775     20774     20777     20778     20775     20774     20777     20779
     20775     20774     20777     20780     20776     20774     20777     20778
     20776     20774     20777     20779     20776     20774     20777     20780
     20777     20780     20783     20784     20777     20780     20783     20785
     20777     20780     20783     20786     20778     20777     20780     20781
     20778     20777     20780     20782     20778     20777     20780     20783
     20779     20777     20780     20781     20779     20777     20780     20782
     20779     20777     20780     20783     20781     20780     20783     20784
     20781     20780     20783     20785     20781     20780     20783     20786
     20782     20780     20783     20784     20782     20780     20783     20785
     20782     20780     20783     20786     20787     20788     20803     20804
     20787     20788     20803     20805     20787     20788     20803     20809
     20788     20787     20791     20792     20788     20787     20791     20793
     20788     20787     20791     20794     20788     20787     20795     20796
     20788     20787     20795     20797     20788     20787     20795     20798
     20788     20787     20799     20800     20788     20787     20799     20801
     20788     20787     20799     20802     20788     20803     20809     20806
     20789     20788     20787     20791     20789     20788     20787     20795
     20789     20788     20787     20799     20789     20788     20803     20804
     20789     20788     20803     20805     20789     20788     20803     20809
     20790     20788     20787     20791     20790     20788     20787     20795
     20790     20788     20787     20799     20790     20788     20803     20804
     20790     20788     20803     20805     20790     20788     20803     20809
     20791     20787     20788     20803     20791     20787     20795     20796
     20791     20787     20795     20797     20791     20787     20795     20798
     20791     20787     20799     20800     20791     20787     20799     20801
     20791     20787     20799     20802     20792     20791     20787     20795
     20792     20791     20787     20799     20793     20791     20787     20795
     20793     20791     20787     20799     20794     20791     20787     20795
     20794     20791     20787     20799     20795     20787     20788     20803
     20795     20787     20799     20800     20795     20787     20799     20801
     20795     20787     20799     20802     20796     20795     20787     20799
     20797     20795     20787     20799     20798     20795     20787     20799
     20799     20787     20788     20803     20803     20809     20806     20807
     20803     20809     20806     20808     20803     20809     20806     20810
     20804     20803     20809     20806     20805     20803     20809     20806
     20806     20810     20811     20812     20806     20810     20811     20813
     20806     20810     20811     20814     20807     20806     20810     20811
     20808     20806     20810     20811     20809     20806     20810     20811
     20810     20811     20814     20815     20810     20811     20814     20816
     20810     20811     20814     20822     20811     20814     20816     20817
     20811     20814     20822     20823     20811     20814     20822     20824
     20811     20814     20822     20825     20812     20811     20814     20815
     20812     20811     20814     20816     20812     20811     20814     20822
     20813     20811     20814     20815     20813     20811     20814     20816
     20813     20811     20814     20822     20814     20816     20817     20818
     20814     20816     20817     20819     20814     20822     20825     20826
     20815     20814     20816     20817     20815     20814     20822     20823
     20815     20814     20822     20824     20815     20814     20822     20825
     20816     20814     20822     20823     20816     20814     20822     20824
     20816     20814     20822     20825     20816     20817     20819     20820
     20816     20817     20819     20821     20816     20817     20819     20831
     20817     20816     20814     20822     20817     20819     20831     20832
     20817     20819     20831     20833     20817     20819     20831     20834
     20818     20817     20819     20820     20818     20817     20819     20821
     20818     20817     20819     20831     20819     20831     20834     20835
     20819     20831     20834     20836     20819     20831     20834     20837
     20820     20819     20831     20832     20820     20819     20831     20833
     20820     20819     20831     20834     20821     20819     20831     20832
     20821     20819     20831     20833     20821     20819     20831     20834
     20822     20825     20826     20827     20822     20825     20826     20828
     20823     20822     20825     20826     20824     20822     20825     20826
     20825     20826     20828     20829     20825     20826     20828     20830
     20825     20826     20828     20878     20826     20828     20878     20879
     20826     20828     20878     20880     20826     20828     20878     20881
     20827     20826     20828     20829     20827     20826     20828     20830
     20827     20826     20828     20878     20828     20878     20881     20882
     20828     20878     20881     20883     20828     20878     20881     20884
     20829     20828     20878     20879     20829     20828     20878     20880
     20829     20828     20878     20881     20830     20828     20878     20879
     20830     20828     20878     20880     20830     20828     20878     20881
     20831     20834     20837     20838     20831     20834     20837     20839
     20831     20834     20837     20840     20832     20831     20834     20835
     20832     20831     20834     20836     20832     20831     20834     20837
     20833     20831     20834     20835     20833     20831     20834     20836
     20833     20831     20834     20837     20834     20837     20840     20841
     20834     20837     20840     20842     20834     20837     20840     20843
     20835     20834     20837     20838     20835     20834     20837     20839
     20835     20834     20837     20840     20836     20834     20837     20838
     20836     20834     20837     20839     20836     20834     20837     20840
     20837     20840     20843     20844     20837     20840     20843     20845
     20837     20840     20843     20846     20838     20837     20840     20841
     20838     20837     20840     20842     20838     20837     20840     20843
     20839     20837     20840     20841     20839     20837     20840     20842
     20839     20837     20840     20843     20840     20843     20846     20847
     20840     20843     20846     20848     20840     20843     20846     20849
     20841     20840     20843     20844     20841     20840     20843     20845
     20841     20840     20843     20846     20842     20840     20843     20844
     20842     20840     20843     20845     20842     20840     20843     20846
     20843     20846     20849     20850     20843     20846     20849     20851
     20844     20843     20846     20847     20844     20843     20846     20848
     20844     20843     20846     20849     20845     20843     20846     20847
     20845     20843     20846     20848     20845     20843     20846     20849
     20846     20849     20851     20852     20846     20849     20851     20853
     20847     20846     20849     20850     20847     20846     20849     20851
     20848     20846     20849     20850     20848     20846     20849     20851
     20849     20851     20853     20854     20849     20851     20853     20855
     20849     20851     20853     20856     20850     20849     20851     20852
     20850     20849     20851     20853     20851     20853     20856     20857
     20851     20853     20856     20858     20851     20853     20856     20859
     20852     20851     20853     20854     20852     20851     20853     20855
     20852     20851     20853     20856     20853     20856     20859     20860
     20853     20856     20859     20861     20853     20856     20859     20862
     20854     20853     20856     20857     20854     20853     20856     20858
     20854     20853     20856     20859     20855     20853     20856     20857
     20855     20853     20856     20858     20855     20853     20856     20859
     20856     20859     20862     20863     20856     20859     20862     20864
     20856     20859     20862     20865     20857     20856     20859     20860
     20857     20856     20859     20861     20857     20856     20859     20862
     20858     20856     20859     20860     20858     20856     20859     20861
     20858     20856     20859     20862     20859     20862     20865     20866
     20859     20862     20865     20867     20859     20862     20865     20868
     20860     20859     20862     20863     20860     20859     20862     20864
     20860     20859     20862     20865     20861     20859     20862     20863
     20861     20859     20862     20864     20861     20859     20862     20865
     20862     20865     20868     20869     20862     20865     20868     20870
     20862     20865     20868     20871     20863     20862     20865     20866
     20863     20862     20865     20867     20863     20862     20865     20868
     20864     20862     20865     20866     20864     20862     20865     20867
     20864     20862     20865     20868     20865     20868     20871     20872
     20865     20868     20871     20873     20865     20868     20871     20874
     20866     20865     20868     20869     20866     20865     20868     20870
     20866     20865     20868     20871     20867     20865     20868     20869
     20867     20865     20868     20870     20867     20865     20868     20871
     20868     20871     20874     20875     20868     20871     20874     20876
     20868     20871     20874     20877     20869     20868     20871     20872
     20869     20868     20871     20873     20869     20868     20871     20874
     20870     20868     20871     20872     20870     20868     20871     20873
     20870     20868     20871     20874     20872     20871     20874     20875
     20872     20871     20874     20876     20872     20871     20874     20877
     20873     20871     20874     20875     20873     20871     20874     20876
     20873     20871     20874     20877     20878     20881     20884     20885
     20878     20881     20884     20886     20878     20881     20884     20887
     20879     20878     20881     20882     20879     20878     20881     20883
     20879     20878     20881     20884     20880     20878     20881     20882
     20880     20878     20881     20883     20880     20878     20881     20884
     20881     20884     20887     20888     20881     20884     20887     20889
     20881     20884     20887     20890     20882     20881     20884     20885
     20882     20881     20884     20886     20882     20881     20884     20887
     20883     20881     20884     20885     20883     20881     20884     20886
     20883     20881     20884     20887     20884     20887     20890     20891
     20884     20887     20890     20892     20884     20887     20890     20893
     20885     20884     20887     20888     20885     20884     20887     20889
     20885     20884     20887     20890     20886     20884     20887     20888
     20886     20884     20887     20889     20886     20884     20887     20890
     20887     20890     20893     20894     20887     20890     20893     20895
     20887     20890     20893     20896     20888     20887     20890     20891
     20888     20887     20890     20892     20888     20887     20890     20893
     20889     20887     20890     20891     20889     20887     20890     20892
     20889     20887     20890     20893     20890     20893     20896     20897
     20890     20893     20896     20898     20890     20893     20896     20899
     20891     20890     20893     20894     20891     20890     20893     20895
     20891     20890     20893     20896     20892     20890     20893     20894
     20892     20890     20893     20895     20892     20890     20893     20896
     20893     20896     20899     20900     20893     20896     20899     20901
     20893     20896     20899     20902     20894     20893     20896     20897
     20894     20893     20896     20898     20894     20893     20896     20899
     20895     20893     20896     20897     20895     20893     20896     20898
     20895     20893     20896     20899     20896     20899     20902     20903
     20896     20899     20902     20904     20896     20899     20902     20905
     20897     20896     20899     20900     20897     20896     20899     20901
     20897     20896     20899     20902     20898     20896     20899     20900
     20898     20896     20899     20901     20898     20896     20899     20902
     20899     20902     20905     20906     20899     20902     20905     20907
     20899     20902     20905     20908     20900     20899     20902     20903
     20900     20899     20902     20904     20900     20899     20902     20905
     20901     20899     20902     20903     20901     20899     20902     20904
     20901     20899     20902     20905     20902     20905     20908     20909
     20902     20905     20908     20910     20902     20905     20908     20911
     20903     20902     20905     20906     20903     20902     20905     20907
     20903     20902     20905     20908     20904     20902     20905     20906
     20904     20902     20905     20907     20904     20902     20905     20908
     20905     20908     20911     20912     20905     20908     20911     20913
     20905     20908     20911     20914     20906     20905     20908     20909
     20906     20905     20908     20910     20906     20905     20908     20911
     20907     20905     20908     20909     20907     20905     20908     20910
     20907     20905     20908     20911     20908     20911     20914     20915
     20908     20911     20914     20916     20908     20911     20914     20917
     20909     20908     20911     20912     20909     20908     20911     20913
     20909     20908     20911     20914     20910     20908     20911     20912
     20910     20908     20911     20913     20910     20908     20911     20914
     20911     20914     20917     20918     20911     20914     20917     20919
     20911     20914     20917     20920     20912     20911     20914     20915
     20912     20911     20914     20916     20912     20911     20914     20917
     20913     20911     20914     20915     20913     20911     20914     20916
     20913     20911     20914     20917     20915     20914     20917     20918
     20915     20914     20917     20919     20915     20914     20917     20920
     20916     20914     20917     20918     20916     20914     20917     20919
     20916     20914     20917     20920      7721      7725      7728      7729
      7721      7725      7728      7730      7721      7725      7728      7735
      7722      7721      7725      7726      7722      7721      7725      7727
      7722      7721      7725      7728      7723      7721      7725      7726
      7723      7721      7725      7727      7723      7721      7725      7728
      7724      7721      7725      7726      7724      7721      7725      7727
      7724      7721      7725      7728      7725      7728      7735      7731
      7726      7725      7728      7729      7726      7725      7728      7730
      7726      7725      7728      7735      7727      7725      7728      7729
      7727      7725      7728      7730      7727      7725      7728      7735
      7728      7735      7731      7732      7728      7735      7731      7733
      7728      7735      7731      7734      7729      7728      7735      7731
      7730      7728      7735      7731      7731      7734      7736      7737
      7731      7734      7736      7738      7731      7734      7736      7739
      7732      7731      7734      7736      7733      7731      7734      7736
      7734      7736      7739      7740      7734      7736      7739      7741
      7734      7736      7739      7747      7735      7731      7734      7736
      7736      7739      7741      7742      7736      7739      7747      7748
      7736      7739      7747      7749      7736      7739      7747      7750
      7737      7736      7739      7740      7737      7736      7739      7741
      7737      7736      7739      7747      7738      7736      7739      7740
      7738      7736      7739      7741      7738      7736      7739      7747
      7739      7741      7742      7743      7739      7741      7742      7744
      7739      7747      7750      7751      7740      7739      7741      7742
      7740      7739      7747      7748      7740      7739      7747      7749
      7740      7739      7747      7750      7741      7739      7747      7748
      7741      7739      7747      7749      7741      7739      7747      7750
      7741      7742      7744      7745      7741      7742      7744      7746
      7741      7742      7744      7756      7742      7741      7739      7747
      7742      7744      7756      7757      7742      7744      7756      7758
      7742      7744      7756      7759      7743      7742      7744      7745
      7743      7742      7744      7746      7743      7742      7744      7756
      7744      7756      7759      7760      7744      7756      7759      7761
      7744      7756      7759      7762      7745      7744      7756      7757
      7745      7744      7756      7758      7745      7744      7756      7759
      7746      7744      7756      7757      7746      7744      7756      7758
      7746      7744      7756      7759      7747      7750      7751      7752
      7747      7750      7751      7753      7748      7747      7750      7751
      7749      7747      7750      7751      7750      7751      7753      7754
      7750      7751      7753      7755      7750      7751      7753      7803
      7751      7753      7803      7804      7751      7753      7803      7805
      7751      7753      7803      7806      7752      7751      7753      7754
      7752      7751      7753      7755      7752      7751      7753      7803
      7753      7803      7806      7807      7753      7803      7806      7808
      7753      7803      7806      7809      7754      7753      7803      7804
      7754      7753      7803      7805      7754      7753      7803      7806
      7755      7753      7803      7804      7755      7753      7803      7805
      7755      7753      7803      7806      7756      7759      7762      7763
      7756      7759      7762      7764      7756      7759      7762      7765
      7757      7756      7759      7760      7757      7756      7759      7761
      7757      7756      7759      7762      7758      7756      7759      7760
      7758      7756      7759      7761      7758      7756      7759      7762
      7759      7762      7765      7766      7759      7762      7765      7767
      7759      7762      7765      7768      7760      7759      7762      7763
      7760      7759      7762      7764      7760      7759      7762      7765
      7761      7759      7762      7763      7761      7759      7762      7764
      7761      7759      7762      7765      7762      7765      7768      7769
      7762      7765      7768      7770      7762      7765      7768      7771
      7763      7762      7765      7766      7763      7762      7765      7767
      7763      7762      7765      7768      7764      7762      7765      7766
      7764      7762      7765      7767      7764      7762      7765      7768
      7765      7768      7771      7772      7765      7768      7771      7773
      7765      7768      7771      7774      7766      7765      7768      7769
      7766      7765      7768      7770      7766      7765      7768      7771
      7767      7765      7768      7769      7767      7765      7768      7770
      7767      7765      7768      7771      7768      7771      7774      7775
      7768      7771      7774      7776      7769      7768      7771      7772
      7769      7768      7771      7773      7769      7768      7771      7774
      7770      7768      7771      7772      7770      7768      7771      7773
      7770      7768      7771      7774      7771      7774      7776      7777
      7771      7774      7776      7778      7772      7771      7774      7775
      7772      7771      7774      7776      7773      7771      7774      7775
      7773      7771      7774      7776      7774      7776      7778      7779
      7774      7776      7778      7780      7774      7776      7778      7781
      7775      7774      7776      7777      7775      7774      7776      7778
      7776      7778      7781      7782      7776      7778      7781      7783
      7776      7778      7781      7784      7777      7776      7778      7779
      7777      7776      7778      7780      7777      7776      7778      7781
      7778      7781      7784      7785      7778      7781      7784      7786
      7778      7781      7784      7787      7779      7778      7781      7782
      7779      7778      7781      7783      7779      7778      7781      7784
      7780      7778      7781      7782      7780      7778      7781      7783
      7780      7778      7781      7784      7781      7784      7787      7788
      7781      7784      7787      7789      7781      7784      7787      7790
      7782      7781      7784      7785      7782      7781      7784      7786
      7782      7781      7784      7787      7783      7781      7784      7785
      7783      7781      7784      7786      7783      7781      7784      7787
      7784      7787      7790      7791      7784      7787      7790      7792
      7784      7787      7790      7793      7785      7784      7787      7788
      7785      7784      7787      7789      7785      7784      7787      7790
      7786      7784      7787      7788      7786      7784      7787      7789
      7786      7784      7787      7790      7787      7790      7793      7794
      7787      7790      7793      7795      7787      7790      7793      7796
      7788      7787      7790      7791      7788      7787      7790      7792
      7788      7787      7790      7793      7789      7787      7790      7791
      7789      7787      7790      7792      7789      7787      7790      7793
      7790      7793      7796      7797      7790      7793      7796      7798
      7790      7793      7796      7799      7791      7790      7793      7794
      7791      7790      7793      7795      7791      7790      7793      7796
      7792      7790      7793      7794      7792      7790      7793      7795
      7792      7790      7793      7796      7793      7796      7799      7800
      7793      7796      7799      7801      7793      7796      7799      7802
      7794      7793      7796      7797      7794      7793      7796      7798
      7794      7793      7796      7799      7795      7793      7796      7797
      7795      7793      7796      7798      7795      7793      7796      7799
      7797      7796      7799      7800      7797      7796      7799      7801
      7797      7796      7799      7802      7798      7796      7799      7800
      7798      7796      7799      7801      7798      7796      7799      7802
      7803      7806      7809      7810      7803      7806      7809      7811
      7803      7806      7809      7812      7804      7803      7806      7807
      7804      7803      7806      7808      7804      7803      7806      7809
      7805      7803      7806      7807      7805      7803      7806      7808
      7805      7803      7806      7809      7806      7809      7812      7813
      7806      7809      7812      7814      7806      7809      7812      7815
      7807      7806      7809      7810      7807      7806      7809      7811
      7807      7806      7809      7812      7808      7806      7809      7810
      7808      7806      7809      7811      7808      7806      7809      7812
      7809      7812      7815      7816      7809      7812      7815      7817
      7809      7812      7815      7818      7810      7809      7812      7813
      7810      7809      7812      7814      7810      7809      7812      7815
      7811      7809      7812      7813      7811      7809      7812      7814
      7811      7809      7812      7815      7812      7815      7818      7819
      7812      7815      7818      7820      7812      7815      7818      7821
      7813      7812      7815      7816      7813      7812      7815      7817
      7813      7812      7815      7818      7814      7812      7815      7816
      7814      7812      7815      7817      7814      7812      7815      7818
      7815      7818      7821      7822      7815      7818      7821      7823
      7815      7818      7821      7824      7816      7815      7818      7819
      7816      7815      7818      7820      7816      7815      7818      7821
      7817      7815      7818      7819      7817      7815      7818      7820
      7817      7815      7818      7821      7818      7821      7824      7825
      7818      7821      7824      7826      7818      7821      7824      7827
      7819      7818      7821      7822      7819      7818      7821      7823
      7819      7818      7821      7824      7820      7818      7821      7822
      7820      7818      7821      7823      7820      7818      7821      7824
      7821      7824      7827      7828      7821      7824      7827      7829
      7821      7824      7827      7830      7822      7821      7824      7825
      7822      7821      7824      7826      7822      7821      7824      7827
      7823      7821      7824      7825      7823      7821      7824      7826
      7823      7821      7824      7827      7824      7827      7830      7831
      7824      7827      7830      7832      7824      7827      7830      7833
      7825      7824      7827      7828      7825      7824      7827      7829
      7825      7824      7827      7830      7826      7824      7827      7828
      7826      7824      7827      7829      7826      7824      7827      7830
      7827      7830      7833      7834      7827      7830      7833      7835
      7827      7830      7833      7836      7828      7827      7830      7831
      7828      7827      7830      7832      7828      7827      7830      7833
      7829      7827      7830      7831      7829      7827      7830      7832
      7829      7827      7830      7833      7830      7833      7836      7837
      7830      7833      7836      7838      7830      7833      7836      7839
      7831      7830      7833      7834      7831      7830      7833      7835
      7831      7830      7833      7836      7832      7830      7833      7834
      7832      7830      7833      7835      7832      7830      7833      7836
      7833      7836      7839      7840      7833      7836      7839      7841
      7833      7836      7839      7842      7834      7833      7836      7837
      7834      7833      7836      7838      7834      7833      7836      7839
      7835      7833      7836      7837      7835      7833      7836      7838
      7835      7833      7836      7839      7836      7839      7842      7843
      7836      7839      7842      7844      7836      7839      7842      7845
      7837      7836      7839      7840      7837      7836      7839      7841
      7837      7836      7839      7842      7838      7836      7839      7840
      7838      7836      7839      7841      7838      7836      7839      7842
      7840      7839      7842      7843      7840      7839      7842      7844
      7840      7839      7842      7845      7841      7839      7842      7843
      7841      7839      7842      7844      7841      7839      7842      7845
     20921     20922     20937     20938     20921     20922     20937     20939
     20921     20922     20937     20943     20922     20921     20925     20926
     20922     20921     20925     20927     20922     20921     20925     20928
     20922     20921     20929     20930     20922     20921     20929     20931
     20922     20921     20929     20932     20922     20921     20933     20934
     20922     20921     20933     20935     20922     20921     20933     20936
     20922     20937     20943     20940     20923     20922     20921     20925
     20923     20922     20921     20929     20923     20922     20921     20933
     20923     20922     20937     20938     20923     20922     20937     20939
     20923     20922     20937     20943     20924     20922     20921     20925
     20924     20922     20921     20929     20924     20922     20921     20933
     20924     20922     20937     20938     20924     20922     20937     20939
     20924     20922     20937     20943     20925     20921     20922     20937
     20925     20921     20929     20930     20925     20921     20929     20931
     20925     20921     20929     20932     20925     20921     20933     20934
     20925     20921     20933     20935     20925     20921     20933     20936
     20926     20925     20921     20929     20926     20925     20921     20933
     20927     20925     20921     20929     20927     20925     20921     20933
     20928     20925     20921     20929     20928     20925     20921     20933
     20929     20921     20922     20937     20929     20921     20933     20934
     20929     20921     20933     20935     20929     20921     20933     20936
     20930     20929     20921     20933     20931     20929     20921     20933
     20932     20929     20921     20933     20933     20921     20922     20937
     20937     20943     20940     20941     20937     20943     20940     20942
     20937     20943     20940     20944     20938     20937     20943     20940
     20939     20937     20943     20940     20940     20944     20945     20946
     20940     20944     20945     20947     20940     20944     20945     20948
     20941     20940     20944     20945     20942     20940     20944     20945
     20943     20940     20944     20945     20944     20945     20948     20949
     20944     20945     20948     20950     20944     20945     20948     20956
     20945     20948     20950     20951     20945     20948     20956     20957
     20945     20948     20956     20958     20945     20948     20956     20959
     20946     20945     20948     20949     20946     20945     20948     20950
     20946     20945     20948     20956     20947     20945     20948     20949
     20947     20945     20948     20950     20947     20945     20948     20956
     20948     20950     20951     20952     20948     20950     20951     20953
     20948     20956     20959     20960     20949     20948     20950     20951
     20949     20948     20956     20957     20949     20948     20956     20958
     20949     20948     20956     20959     20950     20948     20956     20957
     20950     20948     20956     20958     20950     20948     20956     20959
     20950     20951     20953     20954     20950     20951     20953     20955
     20950     20951     20953     20965     20951     20950     20948     20956
     20951     20953     20965     20966     20951     20953     20965     20967
     20951     20953     20965     20968     20952     20951     20953     20954
     20952     20951     20953     20955     20952     20951     20953     20965
     20953     20965     20968     20969     20953     20965     20968     20970
     20953     20965     20968     20971     20954     20953     20965     20966
     20954     20953     20965     20967     20954     20953     20965     20968
     20955     20953     20965     20966     20955     20953     20965     20967
     20955     20953     20965     20968     20956     20959     20960     20961
     20956     20959     20960     20962     20957     20956     20959     20960
     20958     20956     20959     20960     20959     20960     20962     20963
     20959     20960     20962     20964     20959     20960     20962     21012
     20960     20962     21012     21013     20960     20962     21012     21014
     20960     20962     21012     21015     20961     20960     20962     20963
     20961     20960     20962     20964     20961     20960     20962     21012
     20962     21012     21015     21016     20962     21012     21015     21017
     20962     21012     21015     21018     20963     20962     21012     21013
     20963     20962     21012     21014     20963     20962     21012     21015
     20964     20962     21012     21013     20964     20962     21012     21014
     20964     20962     21012     21015     20965     20968     20971     20972
     20965     20968     20971     20973     20965     20968     20971     20974
     20966     20965     20968     20969     20966     20965     20968     20970
     20966     20965     20968     20971     20967     20965     20968     20969
     20967     20965     20968     20970     20967     20965     20968     20971
     20968     20971     20974     20975     20968     20971     20974     20976
     20968     20971     20974     20977     20969     20968     20971     20972
     20969     20968     20971     20973     20969     20968     20971     20974
     20970     20968     20971     20972     20970     20968     20971     20973
     20970     20968     20971     20974     20971     20974     20977     20978
     20971     20974     20977     20979     20971     20974     20977     20980
     20972     20971     20974     20975     20972     20971     20974     20976
     20972     20971     20974     20977     20973     20971     20974     20975
     20973     20971     20974     20976     20973     20971     20974     20977
     20974     20977     20980     20981     20974     20977     20980     20982
     20974     20977     20980     20983     20975     20974     20977     20978
     20975     20974     20977     20979     20975     20974     20977     20980
     20976     20974     20977     20978     20976     20974     20977     20979
     20976     20974     20977     20980     20977     20980     20983     20984
     20977     20980     20983     20985     20978     20977     20980     20981
     20978     20977     20980     20982     20978     20977     20980     20983
     20979     20977     20980     20981     20979     20977     20980     20982
     20979     20977     20980     20983     20980     20983     20985     20986
     20980     20983     20985     20987     20981     20980     20983     20984
     20981     20980     20983     20985     20982     20980     20983     20984
     20982     20980     20983     20985     20983     20985     20987     20988
     20983     20985     20987     20989     20983     20985     20987     20990
     20984     20983     20985     20986     20984     20983     20985     20987
     20985     20987     20990     20991     20985     20987     20990     20992
     20985     20987     20990     20993     20986     20985     20987     20988
     20986     20985     20987     20989     20986     20985     20987     20990
     20987     20990     20993     20994     20987     20990     20993     20995
     20987     20990     20993     20996     20988     20987     20990     20991
     20988     20987     20990     20992     20988     20987     20990     20993
     20989     20987     20990     20991     20989     20987     20990     20992
     20989     20987     20990     20993     20990     20993     20996     20997
     20990     20993     20996     20998     20990     20993     20996     20999
     20991     20990     20993     20994     20991     20990     20993     20995
     20991     20990     20993     20996     20992     20990     20993     20994
     20992     20990     20993     20995     20992     20990     20993     20996
     20993     20996     20999     21000     20993     20996     20999     21001
     20993     20996     20999     21002     20994     20993     20996     20997
     20994     20993     20996     20998     20994     20993     20996     20999
     20995     20993     20996     20997     20995     20993     20996     20998
     20995     20993     20996     20999     20996     20999     21002     21003
     20996     20999     21002     21004     20996     20999     21002     21005
     20997     20996     20999     21000     20997     20996     20999     21001
     20997     20996     20999     21002     20998     20996     20999     21000
     20998     20996     20999     21001     20998     20996     20999     21002
     20999     21002     21005     21006     20999     21002     21005     21007
     20999     21002     21005     21008     21000     20999     21002     21003
     21000     20999     21002     21004     21000     20999     21002     21005
     21001     20999     21002     21003     21001     20999     21002     21004
     21001     20999     21002     21005     21002     21005     21008     21009
     21002     21005     21008     21010     21002     21005     21008     21011
     21003     21002     21005     21006     21003     21002     21005     21007
     21003     21002     21005     21008     21004     21002     21005     21006
     21004     21002     21005     21007     21004     21002     21005     21008
     21006     21005     21008     21009     21006     21005     21008     21010
     21006     21005     21008     21011     21007     21005     21008     21009
     21007     21005     21008     21010     21007     21005     21008     21011
     21012     21015     21018     21019     21012     21015     21018     21020
     21012     21015     21018     21021     21013     21012     21015     21016
     21013     21012     21015     21017     21013     21012     21015     21018
     21014     21012     21015     21016     21014     21012     21015     21017
     21014     21012     21015     21018     21015     21018     21021     21022
     21015     21018     21021     21023     21015     21018     21021     21024
     21016     21015     21018     21019     21016     21015     21018     21020
     21016     21015     21018     21021     21017     21015     21018     21019
     21017     21015     21018     21020     21017     21015     21018     21021
     21018     21021     21024     21025     21018     21021     21024     21026
     21018     21021     21024     21027     21019     21018     21021     21022
     21019     21018     21021     21023     21019     21018     21021     21024
     21020     21018     21021     21022     21020     21018     21021     21023
     21020     21018     21021     21024     21021     21024     21027     21028
     21021     21024     21027     21029     21021     21024     21027     21030
     21022     21021     21024     21025     21022     21021     21024     21026
     21022     21021     21024     21027     21023     21021     21024     21025
     21023     21021     21024     21026     21023     21021     21024     21027
     21024     21027     21030     21031     21024     21027     21030     21032
     21024     21027     21030     21033     21025     21024     21027     21028
     21025     21024     21027     21029     21025     21024     21027     21030
     21026     21024     21027     21028     21026     21024     21027     21029
     21026     21024     21027     21030     21027     21030     21033     21034
     21027     21030     21033     21035     21027     21030     21033     21036
     21028     21027     21030     21031     21028     21027     21030     21032
     21028     21027     21030     21033     21029     21027     21030     21031
     21029     21027     21030     21032     21029     21027     21030     21033
     21030     21033     21036     21037     21030     21033     21036     21038
     21030     21033     21036     21039     21031     21030     21033     21034
     21031     21030     21033     21035     21031     21030     21033     21036
     21032     21030     21033     21034     21032     21030     21033     21035
     21032     21030     21033     21036     21033     21036     21039     21040
     21033     21036     21039     21041     21033     21036     21039     21042
     21034     21033     21036     21037     21034     21033     21036     21038
     21034     21033     21036     21039     21035     21033     21036     21037
     21035     21033     21036     21038     21035     21033     21036     21039
     21036     21039     21042     21043     21036     21039     21042     21044
     21036     21039     21042     21045     21037     21036     21039     21040
     21037     21036     21039     21041     21037     21036     21039     21042
     21038     21036     21039     21040     21038     21036     21039     21041
     21038     21036     21039     21042     21039     21042     21045     21046
     21039     21042     21045     21047     21039     21042     21045     21048
     21040     21039     21042     21043     21040     21039     21042     21044
     21040     21039     21042     21045     21041     21039     21042     21043
     21041     21039     21042     21044     21041     21039     21042     21045
     21042     21045     21048     21049     21042     21045     21048     21050
     21042     21045     21048     21051     21043     21042     21045     21046
     21043     21042     21045     21047     21043     21042     21045     21048
     21044     21042     21045     21046     21044     21042     21045     21047
     21044     21042     21045     21048     21045     21048     21051     21052
     21045     21048     21051     21053     21045     21048     21051     21054
     21046     21045     21048     21049     21046     21045     21048     21050
     21046     21045     21048     21051     21047     21045     21048     21049
     21047     21045     21048     21050     21047     21045     21048     21051
     21049     21048     21051     21052     21049     21048     21051     21053
     21049     21048     21051     21054     21050     21048     21051     21052
     21050     21048     21051     21053     21050     21048     21051     21054
     13170     13174     13176     13177     13170     13174     13176     13178
     13170     13174     13179     13180     13170     13174     13179     13181
     13170     13174     13179     13185     13171     13170     13174     13175
     13171     13170     13174     13176     13171     13170     13174     13179
     13172     13170     13174     13175     13172     13170     13174     13176
     13172     13170     13174     13179     13173     13170     13174     13175
     13173     13170     13174     13176     13173     13170     13174     13179
     13174     13179     13185     13182     13175     13174     13176     13177
     13175     13174     13176     13178     13175     13174     13179     13180
     13175     13174     13179     13181     13175     13174     13179     13185
     13176     13174     13179     13180     13176     13174     13179     13181
     13176     13174     13179     13185     13177     13176     13174     13179
     13178     13176     13174     13179     13179     13185     13182     13183
     13179     13185     13182     13184     13179     13185     13182     13186
     13180     13179     13185     13182     13181     13179     13185     13182
     13182     13186     13187     13188     13182     13186     13187     13189
     13182     13186     13187     13190     13183     13182     13186     13187
     13184     13182     13186     13187     13185     13182     13186     13187
     13186     13187     13190     13191     13186     13187     13190     13192
     13186     13187     13190     13198     13187     13190     13192     13193
     13187     13190     13198     13199     13187     13190     13198     13200
     13187     13190     13198     13201     13188     13187     13190     13191
     13188     13187     13190     13192     13188     13187     13190     13198
     13189     13187     13190     13191     13189     13187     13190     13192
     13189     13187     13190     13198     13190     13192     13193     13194
     13190     13192     13193     13195     13190     13198     13201     13202
     13191     13190     13192     13193     13191     13190     13198     13199
     13191     13190     13198     13200     13191     13190     13198     13201
     13192     13190     13198     13199     13192     13190     13198     13200
     13192     13190     13198     13201     13192     13193     13195     13196
     13192     13193     13195     13197     13192     13193     13195     13207
     13193     13192     13190     13198     13193     13195     13207     13208
     13193     13195     13207     13209     13193     13195     13207     13210
     13194     13193     13195     13196     13194     13193     13195     13197
     13194     13193     13195     13207     13195     13207     13210     13211
     13195     13207     13210     13212     13195     13207     13210     13213
     13196     13195     13207     13208     13196     13195     13207     13209
     13196     13195     13207     13210     13197     13195     13207     13208
     13197     13195     13207     13209     13197     13195     13207     13210
     13198     13201     13202     13203     13198     13201     13202     13204
     13199     13198     13201     13202     13200     13198     13201     13202
     13201     13202     13204     13205     13201     13202     13204     13206
     13201     13202     13204     13254     13202     13204     13254     13255
     13202     13204     13254     13256     13202     13204     13254     13257
     13203     13202     13204     13205     13203     13202     13204     13206
     13203     13202     13204     13254     13204     13254     13257     13258
     13204     13254     13257     13259     13204     13254     13257     13260
     13205     13204     13254     13255     13205     13204     13254     13256
     13205     13204     13254     13257     13206     13204     13254     13255
     13206     13204     13254     13256     13206     13204     13254     13257
     13207     13210     13213     13214     13207     13210     13213     13215
     13207     13210     13213     13216     13208     13207     13210     13211
     13208     13207     13210     13212     13208     13207     13210     13213
     13209     13207     13210     13211     13209     13207     13210     13212
     13209     13207     13210     13213     13210     13213     13216     13217
     13210     13213     13216     13218     13210     13213     13216     13219
     13211     13210     13213     13214     13211     13210     13213     13215
     13211     13210     13213     13216     13212     13210     13213     13214
     13212     13210     13213     13215     13212     13210     13213     13216
     13213     13216     13219     13220     13213     13216     13219     13221
     13213     13216     13219     13222     13214     13213     13216     13217
     13214     13213     13216     13218     13214     13213     13216     13219
     13215     13213     13216     13217     13215     13213     13216     13218
     13215     13213     13216     13219     13216     13219     13222     13223
     13216     13219     13222     13224     13216     13219     13222     13225
     13217     13216     13219     13220     13217     13216     13219     13221
     13217     13216     13219     13222     13218     13216     13219     13220
     13218     13216     13219     13221     13218     13216     13219     13222
     13219     13222     13225     13226     13219     13222     13225     13227
     13220     13219     13222     13223     13220     13219     13222     13224
     13220     13219     13222     13225     13221     13219     13222     13223
     13221     13219     13222     13224     13221     13219     13222     13225
     13222     13225     13227     13228     13222     13225     13227     13229
     13223     13222     13225     13226     13223     13222     13225     13227
     13224     13222     13225     13226     13224     13222     13225     13227
     13225     13227     13229     13230     13225     13227     13229     13231
     13225     13227     13229     13232     13226     13225     13227     13228
     13226     13225     13227     13229     13227     13229     13232     13233
     13227     13229     13232     13234     13227     13229     13232     13235
     13228     13227     13229     13230     13228     13227     13229     13231
     13228     13227     13229     13232     13229     13232     13235     13236
     13229     13232     13235     13237     13229     13232     13235     13238
     13230     13229     13232     13233     13230     13229     13232     13234
     13230     13229     13232     13235     13231     13229     13232     13233
     13231     13229     13232     13234     13231     13229     13232     13235
     13232     13235     13238     13239     13232     13235     13238     13240
     13232     13235     13238     13241     13233     13232     13235     13236
     13233     13232     13235     13237     13233     13232     13235     13238
     13234     13232     13235     13236     13234     13232     13235     13237
     13234     13232     13235     13238     13235     13238     13241     13242
     13235     13238     13241     13243     13235     13238     13241     13244
     13236     13235     13238     13239     13236     13235     13238     13240
     13236     13235     13238     13241     13237     13235     13238     13239
     13237     13235     13238     13240     13237     13235     13238     13241
     13238     13241     13244     13245     13238     13241     13244     13246
     13238     13241     13244     13247     13239     13238     13241     13242
     13239     13238     13241     13243     13239     13238     13241     13244
     13240     13238     13241     13242     13240     13238     13241     13243
     13240     13238     13241     13244     13241     13244     13247     13248
     13241     13244     13247     13249     13241     13244     13247     13250
     13242     13241     13244     13245     13242     13241     13244     13246
     13242     13241     13244     13247     13243     13241     13244     13245
     13243     13241     13244     13246     13243     13241     13244     13247
     13244     13247     13250     13251     13244     13247     13250     13252
     13244     13247     13250     13253     13245     13244     13247     13248
     13245     13244     13247     13249     13245     13244     13247     13250
     13246     13244     13247     13248     13246     13244     13247     13249
     13246     13244     13247     13250     13248     13247     13250     13251
     13248     13247     13250     13252     13248     13247     13250     13253
     13249     13247     13250     13251     13249     13247     13250     13252
     13249     13247     13250     13253     13254     13257     13260     13261
     13254     13257     13260     13262     13254     13257     13260     13263
     13255     13254     13257     13258     13255     13254     13257     13259
     13255     13254     13257     13260     13256     13254     13257     13258
     13256     13254     13257     13259     13256     13254     13257     13260
     13257     13260     13263     13264     13257     13260     13263     13265
     13257     13260     13263     13266     13258     13257     13260     13261
     13258     13257     13260     13262     13258     13257     13260     13263
     13259     13257     13260     13261     13259     13257     13260     13262
     13259     13257     13260     13263     13260     13263     13266     13267
     13260     13263     13266     13268     13260     13263     13266     13269
     13261     13260     13263     13264     13261     13260     13263     13265
     13261     13260     13263     13266     13262     13260     13263     13264
     13262     13260     13263     13265     13262     13260     13263     13266
     13263     13266     13269     13270     13263     13266     13269     13271
     13263     13266     13269     13272     13264     13263     13266     13267
     13264     13263     13266     13268     13264     13263     13266     13269
     13265     13263     13266     13267     13265     13263     13266     13268
     13265     13263     13266     13269     13266     13269     13272     13273
     13266     13269     13272     13274     13266     13269     13272     13275
     13267     13266     13269     13270     13267     13266     13269     13271
     13267     13266     13269     13272     13268     13266     13269     13270
     13268     13266     13269     13271     13268     13266     13269     13272
     13269     13272     13275     13276     13269     13272     13275     13277
     13269     13272     13275     13278     13270     13269     13272     13273
     13270     13269     13272     13274     13270     13269     13272     13275
     13271     13269     13272     13273     13271     13269     13272     13274
     13271     13269     13272     13275     13272     13275     13278     13279
     13272     13275     13278     13280     13272     13275     13278     13281
     13273     13272     13275     13276     13273     13272     13275     13277
     13273     13272     13275     13278     13274     13272     13275     13276
     13274     13272     13275     13277     13274     13272     13275     13278
     13275     13278     13281     13282     13275     13278     13281     13283
     13275     13278     13281     13284     13276     13275     13278     13279
     13276     13275     13278     13280     13276     13275     13278     13281
     13277     13275     13278     13279     13277     13275     13278     13280
     13277     13275     13278     13281     13278     13281     13284     13285
     13278     13281     13284     13286     13278     13281     13284     13287
     13279     13278     13281     13282     13279     13278     13281     13283
     13279     13278     13281     13284     13280     13278     13281     13282
     13280     13278     13281     13283     13280     13278     13281     13284
     13281     13284     13287     13288     13281     13284     13287     13289
     13281     13284     13287     13290     13282     13281     13284     13285
     13282     13281     13284     13286     13282     13281     13284     13287
     13283     13281     13284     13285     13283     13281     13284     13286
     13283     13281     13284     13287     13284     13287     13290     13291
     13284     13287     13290     13292     13284     13287     13290     13293
     13285     13284     13287     13288     13285     13284     13287     13289
     13285     13284     13287     13290     13286     13284     13287     13288
     13286     13284     13287     13289     13286     13284     13287     13290
     13287     13290     13293     13294     13287     13290     13293     13295
     13287     13290     13293     13296     13288     13287     13290     13291
     13288     13287     13290     13292     13288     13287     13290     13293
     13289     13287     13290     13291     13289     13287     13290     13292
     13289     13287     13290     13293     13291     13290     13293     13294
     13291     13290     13293     13295     13291     13290     13293     13296
     13292     13290     13293     13294     13292     13290     13293     13295
     13292     13290     13293     13296     21055     21056     21071     21072
     21055     21056     21071     21073     21055     21056     21071     21077
     21056     21055     21059     21060     21056     21055     21059     21061
     21056     21055     21059     21062     21056     21055     21063     21064
     21056     21055     21063     21065     21056     21055     21063     21066
     21056     21055     21067     21068     21056     21055     21067     21069
     21056     21055     21067     21070     21056     21071     21077     21074
     21057     21056     21055     21059     21057     21056     21055     21063
     21057     21056     21055     21067     21057     21056     21071     21072
     21057     21056     21071     21073     21057     21056     21071     21077
     21058     21056     21055     21059     21058     21056     21055     21063
     21058     21056     21055     21067     21058     21056     21071     21072
     21058     21056     21071     21073     21058     21056     21071     21077
     21059     21055     21056     21071     21059     21055     21063     21064
     21059     21055     21063     21065     21059     21055     21063     21066
     21059     21055     21067     21068     21059     21055     21067     21069
     21059     21055     21067     21070     21060     21059     21055     21063
     21060     21059     21055     21067     21061     21059     21055     21063
     21061     21059     21055     21067     21062     21059     21055     21063
     21062     21059     21055     21067     21063     21055     21056     21071
     21063     21055     21067     21068     21063     21055     21067     21069
     21063     21055     21067     21070     21064     21063     21055     21067
     21065     21063     21055     21067     21066     21063     21055     21067
     21067     21055     21056     21071     21071     21077     21074     21075
     21071     21077     21074     21076     21071     21077     21074     21078
     21072     21071     21077     21074     21073     21071     21077     21074
     21074     21078     21079     21080     21074     21078     21079     21081
     21074     21078     21079     21082     21075     21074     21078     21079
     21076     21074     21078     21079     21077     21074     21078     21079
     21078     21079     21082     21083     21078     21079     21082     21084
     21078     21079     21082     21090     21079     21082     21084     21085
     21079     21082     21090     21091     21079     21082     21090     21092
     21079     21082     21090     21093     21080     21079     21082     21083
     21080     21079     21082     21084     21080     21079     21082     21090
     21081     21079     21082     21083     21081     21079     21082     21084
     21081     21079     21082     21090     21082     21084     21085     21086
     21082     21084     21085     21087     21082     21090     21093     21094
     21083     21082     21084     21085     21083     21082     21090     21091
     21083     21082     21090     21092     21083     21082     21090     21093
     21084     21082     21090     21091     21084     21082     21090     21092
     21084     21082     21090     21093     21084     21085     21087     21088
     21084     21085     21087     21089     21084     21085     21087     21099
     21085     21084     21082     21090     21085     21087     21099     21100
     21085     21087     21099     21101     21085     21087     21099     21102
     21086     21085     21087     21088     21086     21085     21087     21089
     21086     21085     21087     21099     21087     21099     21102     21103
     21087     21099     21102     21104     21087     21099     21102     21105
     21088     21087     21099     21100     21088     21087     21099     21101
     21088     21087     21099     21102     21089     21087     21099     21100
     21089     21087     21099     21101     21089     21087     21099     21102
     21090     21093     21094     21095     21090     21093     21094     21096
     21091     21090     21093     21094     21092     21090     21093     21094
     21093     21094     21096     21097     21093     21094     21096     21098
     21093     21094     21096     21146     21094     21096     21146     21147
     21094     21096     21146     21148     21094     21096     21146     21149
     21095     21094     21096     21097     21095     21094     21096     21098
     21095     21094     21096     21146     21096     21146     21149     21150
     21096     21146     21149     21151     21096     21146     21149     21152
     21097     21096     21146     21147     21097     21096     21146     21148
     21097     21096     21146     21149     21098     21096     21146     21147
     21098     21096     21146     21148     21098     21096     21146     21149
     21099     21102     21105     21106     21099     21102     21105     21107
     21099     21102     21105     21108     21100     21099     21102     21103
     21100     21099     21102     21104     21100     21099     21102     21105
     21101     21099     21102     21103     21101     21099     21102     21104
     21101     21099     21102     21105     21102     21105     21108     21109
     21102     21105     21108     21110     21102     21105     21108     21111
     21103     21102     21105     21106     21103     21102     21105     21107
     21103     21102     21105     21108     21104     21102     21105     21106
     21104     21102     21105     21107     21104     21102     21105     21108
     21105     21108     21111     21112     21105     21108     21111     21113
     21105     21108     21111     21114     21106     21105     21108     21109
     21106     21105     21108     21110     21106     21105     21108     21111
     21107     21105     21108     21109     21107     21105     21108     21110
     21107     21105     21108     21111     21108     21111     21114     21115
     21108     21111     21114     21116     21108     21111     21114     21117
     21109     21108     21111     21112     21109     21108     21111     21113
     21109     21108     21111     21114     21110     21108     21111     21112
     21110     21108     21111     21113     21110     21108     21111     21114
     21111     21114     21117     21118     21111     21114     21117     21119
     21112     21111     21114     21115     21112     21111     21114     21116
     21112     21111     21114     21117     21113     21111     21114     21115
     21113     21111     21114     21116     21113     21111     21114     21117
     21114     21117     21119     21120     21114     21117     21119     21121
     21115     21114     21117     21118     21115     21114     21117     21119
     21116     21114     21117     21118     21116     21114     21117     21119
     21117     21119     21121     21122     21117     21119     21121     21123
     21117     21119     21121     21124     21118     21117     21119     21120
     21118     21117     21119     21121     21119     21121     21124     21125
     21119     21121     21124     21126     21119     21121     21124     21127
     21120     21119     21121     21122     21120     21119     21121     21123
     21120     21119     21121     21124     21121     21124     21127     21128
     21121     21124     21127     21129     21121     21124     21127     21130
     21122     21121     21124     21125     21122     21121     21124     21126
     21122     21121     21124     21127     21123     21121     21124     21125
     21123     21121     21124     21126     21123     21121     21124     21127
     21124     21127     21130     21131     21124     21127     21130     21132
     21124     21127     21130     21133     21125     21124     21127     21128
     21125     21124     21127     21129     21125     21124     21127     21130
     21126     21124     21127     21128     21126     21124     21127     21129
     21126     21124     21127     21130     21127     21130     21133     21134
     21127     21130     21133     21135     21127     21130     21133     21136
     21128     21127     21130     21131     21128     21127     21130     21132
     21128     21127     21130     21133     21129     21127     21130     21131
     21129     21127     21130     21132     21129     21127     21130     21133
     21130     21133     21136     21137     21130     21133     21136     21138
     21130     21133     21136     21139     21131     21130     21133     21134
     21131     21130     21133     21135     21131     21130     21133     21136
     21132     21130     21133     21134     21132     21130     21133     21135
     21132     21130     21133     21136     21133     21136     21139     21140
     21133     21136     21139     21141     21133     21136     21139     21142
     21134     21133     21136     21137     21134     21133     21136     21138
     21134     21133     21136     21139     21135     21133     21136     21137
     21135     21133     21136     21138     21135     21133     21136     21139
     21136     21139     21142     21143     21136     21139     21142     21144
     21136     21139     21142     21145     21137     21136     21139     21140
     21137     21136     21139     21141     21137     21136     21139     21142
     21138     21136     21139     21140     21138     21136     21139     21141
     21138     21136     21139     21142     21140     21139     21142     21143
     21140     21139     21142     21144     21140     21139     21142     21145
     21141     21139     21142     21143     21141     21139     21142     21144
     21141     21139     21142     21145     21146     21149     21152     21153
     21146     21149     21152     21154     21146     21149     21152     21155
     21147     21146     21149     21150     21147     21146     21149     21151
     21147     21146     21149     21152     21148     21146     21149     21150
     21148     21146     21149     21151     21148     21146     21149     21152
     21149     21152     21155     21156     21149     21152     21155     21157
     21149     21152     21155     21158     21150     21149     21152     21153
     21150     21149     21152     21154     21150     21149     21152     21155
     21151     21149     21152     21153     21151     21149     21152     21154
     21151     21149     21152     21155     21152     21155     21158     21159
     21152     21155     21158     21160     21152     21155     21158     21161
     21153     21152     21155     21156     21153     21152     21155     21157
     21153     21152     21155     21158     21154     21152     21155     21156
     21154     21152     21155     21157     21154     21152     21155     21158
     21155     21158     21161     21162     21155     21158     21161     21163
     21155     21158     21161     21164     21156     21155     21158     21159
     21156     21155     21158     21160     21156     21155     21158     21161
     21157     21155     21158     21159     21157     21155     21158     21160
     21157     21155     21158     21161     21158     21161     21164     21165
     21158     21161     21164     21166     21158     21161     21164     21167
     21159     21158     21161     21162     21159     21158     21161     21163
     21159     21158     21161     21164     21160     21158     21161     21162
     21160     21158     21161     21163     21160     21158     21161     21164
     21161     21164     21167     21168     21161     21164     21167     21169
     21161     21164     21167     21170     21162     21161     21164     21165
     21162     21161     21164     21166     21162     21161     21164     21167
     21163     21161     21164     21165     21163     21161     21164     21166
     21163     21161     21164     21167     21164     21167     21170     21171
     21164     21167     21170     21172     21164     21167     21170     21173
     21165     21164     21167     21168     21165     21164     21167     21169
     21165     21164     21167     21170     21166     21164     21167     21168
     21166     21164     21167     21169     21166     21164     21167     21170
     21167     21170     21173     21174     21167     21170     21173     21175
     21167     21170     21173     21176     21168     21167     21170     21171
     21168     21167     21170     21172     21168     21167     21170     21173
     21169     21167     21170     21171     21169     21167     21170     21172
     21169     21167     21170     21173     21170     21173     21176     21177
     21170     21173     21176     21178     21170     21173     21176     21179
     21171     21170     21173     21174     21171     21170     21173     21175
     21171     21170     21173     21176     21172     21170     21173     21174
     21172     21170     21173     21175     21172     21170     21173     21176
     21173     21176     21179     21180     21173     21176     21179     21181
     21173     21176     21179     21182     21174     21173     21176     21177
     21174     21173     21176     21178     21174     21173     21176     21179
     21175     21173     21176     21177     21175     21173     21176     21178
     21175     21173     21176     21179     21176     21179     21182     21183
     21176     21179     21182     21184     21176     21179     21182     21185
     21177     21176     21179     21180     21177     21176     21179     21181
     21177     21176     21179     21182     21178     21176     21179     21180
     21178     21176     21179     21181     21178     21176     21179     21182
     21179     21182     21185     21186     21179     21182     21185     21187
     21179     21182     21185     21188     21180     21179     21182     21183
     21180     21179     21182     21184     21180     21179     21182     21185
     21181     21179     21182     21183     21181     21179     21182     21184
     21181     21179     21182     21185     21183     21182     21185     21186
     21183     21182     21185     21187     21183     21182     21185     21188
     21184     21182     21185     21186     21184     21182     21185     21187
     21184     21182     21185     21188      7846      7850      7853      7854
      7846      7850      7853      7855      7846      7850      7853      7860
      7847      7846      7850      7851      7847      7846      7850      7852
      7847      7846      7850      7853      7848      7846      7850      7851
      7848      7846      7850      7852      7848      7846      7850      7853
      7849      7846      7850      7851      7849      7846      7850      7852
      7849      7846      7850      7853      7850      7853      7860      7856
      7851      7850      7853      7854      7851      7850      7853      7855
      7851      7850      7853      7860      7852      7850      7853      7854
      7852      7850      7853      7855      7852      7850      7853      7860
      7853      7860      7856      7857      7853      7860      7856      7858
      7853      7860      7856      7859      7854      7853      7860      7856
      7855      7853      7860      7856      7856      7859      7861      7862
      7856      7859      7861      7863      7856      7859      7861      7864
      7857      7856      7859      7861      7858      7856      7859      7861
      7859      7861      7864      7865      7859      7861      7864      7866
      7859      7861      7864      7872      7860      7856      7859      7861
      7861      7864      7866      7867      7861      7864      7872      7873
      7861      7864      7872      7874      7861      7864      7872      7875
      7862      7861      7864      7865      7862      7861      7864      7866
      7862      7861      7864      7872      7863      7861      7864      7865
      7863      7861      7864      7866      7863      7861      7864      7872
      7864      7866      7867      7868      7864      7866      7867      7869
      7864      7872      7875      7876      7865      7864      7866      7867
      7865      7864      7872      7873      7865      7864      7872      7874
      7865      7864      7872      7875      7866      7864      7872      7873
      7866      7864      7872      7874      7866      7864      7872      7875
      7866      7867      7869      7870      7866      7867      7869      7871
      7866      7867      7869      7881      7867      7866      7864      7872
      7867      7869      7881      7882      7867      7869      7881      7883
      7867      7869      7881      7884      7868      7867      7869      7870
      7868      7867      7869      7871      7868      7867      7869      7881
      7869      7881      7884      7885      7869      7881      7884      7886
      7869      7881      7884      7887      7870      7869      7881      7882
      7870      7869      7881      7883      7870      7869      7881      7884
      7871      7869      7881      7882      7871      7869      7881      7883
      7871      7869      7881      7884      7872      7875      7876      7877
      7872      7875      7876      7878      7873      7872      7875      7876
      7874      7872      7875      7876      7875      7876      7878      7879
      7875      7876      7878      7880      7875      7876      7878      7928
      7876      7878      7928      7929      7876      7878      7928      7930
      7876      7878      7928      7931      7877      7876      7878      7879
      7877      7876      7878      7880      7877      7876      7878      7928
      7878      7928      7931      7932      7878      7928      7931      7933
      7878      7928      7931      7934      7879      7878      7928      7929
      7879      7878      7928      7930      7879      7878      7928      7931
      7880      7878      7928      7929      7880      7878      7928      7930
      7880      7878      7928      7931      7881      7884      7887      7888
      7881      7884      7887      7889      7881      7884      7887      7890
      7882      7881      7884      7885      7882      7881      7884      7886
      7882      7881      7884      7887      7883      7881      7884      7885
      7883      7881      7884      7886      7883      7881      7884      7887
      7884      7887      7890      7891      7884      7887      7890      7892
      7884      7887      7890      7893      7885      7884      7887      7888
      7885      7884      7887      7889      7885      7884      7887      7890
      7886      7884      7887      7888      7886      7884      7887      7889
      7886      7884      7887      7890      7887      7890      7893      7894
      7887      7890      7893      7895      7887      7890      7893      7896
      7888      7887      7890      7891      7888      7887      7890      7892
      7888      7887      7890      7893      7889      7887      7890      7891
      7889      7887      7890      7892      7889      7887      7890      7893
      7890      7893      7896      7897      7890      7893      7896      7898
      7890      7893      7896      7899      7891      7890      7893      7894
      7891      7890      7893      7895      7891      7890      7893      7896
      7892      7890      7893      7894      7892      7890      7893      7895
      7892      7890      7893      7896      7893      7896      7899      7900
      7893      7896      7899      7901      7894      7893      7896      7897
      7894      7893      7896      7898      7894      7893      7896      7899
      7895      7893      7896      7897      7895      7893      7896      7898
      7895      7893      7896      7899      7896      7899      7901      7902
      7896      7899      7901      7903      7897      7896      7899      7900
      7897      7896      7899      7901      7898      7896      7899      7900
      7898      7896      7899      7901      7899      7901      7903      7904
      7899      7901      7903      7905      7899      7901      7903      7906
      7900      7899      7901      7902      7900      7899      7901      7903
      7901      7903      7906      7907      7901      7903      7906      7908
      7901      7903      7906      7909      7902      7901      7903      7904
      7902      7901      7903      7905      7902      7901      7903      7906
      7903      7906      7909      7910      7903      7906      7909      7911
      7903      7906      7909      7912      7904      7903      7906      7907
      7904      7903      7906      7908      7904      7903      7906      7909
      7905      7903      7906      7907      7905      7903      7906      7908
      7905      7903      7906      7909      7906      7909      7912      7913
      7906      7909      7912      7914      7906      7909      7912      7915
      7907      7906      7909      7910      7907      7906      7909      7911
      7907      7906      7909      7912      7908      7906      7909      7910
      7908      7906      7909      7911      7908      7906      7909      7912
      7909      7912      7915      7916      7909      7912      7915      7917
      7909      7912      7915      7918      7910      7909      7912      7913
      7910      7909      7912      7914      7910      7909      7912      7915
      7911      7909      7912      7913      7911      7909      7912      7914
      7911      7909      7912      7915      7912      7915      7918      7919
      7912      7915      7918      7920      7912      7915      7918      7921
      7913      7912      7915      7916      7913      7912      7915      7917
      7913      7912      7915      7918      7914      7912      7915      7916
      7914      7912      7915      7917      7914      7912      7915      7918
      7915      7918      7921      7922      7915      7918      7921      7923
      7915      7918      7921      7924      7916      7915      7918      7919
      7916      7915      7918      7920      7916      7915      7918      7921
      7917      7915      7918      7919      7917      7915      7918      7920
      7917      7915      7918      7921      7918      7921      7924      7925
      7918      7921      7924      7926      7918      7921      7924      7927
      7919      7918      7921      7922      7919      7918      7921      7923
      7919      7918      7921      7924      7920      7918      7921      7922
      7920      7918      7921      7923      7920      7918      7921      7924
      7922      7921      7924      7925      7922      7921      7924      7926
      7922      7921      7924      7927      7923      7921      7924      7925
      7923      7921      7924      7926      7923      7921      7924      7927
      7928      7931      7934      7935      7928      7931      7934      7936
      7928      7931      7934      7937      7929      7928      7931      7932
      7929      7928      7931      7933      7929      7928      7931      7934
      7930      7928      7931      7932      7930      7928      7931      7933
      7930      7928      7931      7934      7931      7934      7937      7938
      7931      7934      7937      7939      7931      7934      7937      7940
      7932      7931      7934      7935      7932      7931      7934      7936
      7932      7931      7934      7937      7933      7931      7934      7935
      7933      7931      7934      7936      7933      7931      7934      7937
      7934      7937      7940      7941      7934      7937      7940      7942
      7934      7937      7940      7943      7935      7934      7937      7938
      7935      7934      7937      7939      7935      7934      7937      7940
      7936      7934      7937      7938      7936      7934      7937      7939
      7936      7934      7937      7940      7937      7940      7943      7944
      7937      7940      7943      7945      7937      7940      7943      7946
      7938      7937      7940      7941      7938      7937      7940      7942
      7938      7937      7940      7943      7939      7937      7940      7941
      7939      7937      7940      7942      7939      7937      7940      7943
      7940      7943      7946      7947      7940      7943      7946      7948
      7940      7943      7946      7949      7941      7940      7943      7944
      7941      7940      7943      7945      7941      7940      7943      7946
      7942      7940      7943      7944      7942      7940      7943      7945
      7942      7940      7943      7946      7943      7946      7949      7950
      7943      7946      7949      7951      7943      7946      7949      7952
      7944      7943      7946      7947      7944      7943      7946      7948
      7944      7943      7946      7949      7945      7943      7946      7947
      7945      7943      7946      7948      7945      7943      7946      7949
      7946      7949      7952      7953      7946      7949      7952      7954
      7946      7949      7952      7955      7947      7946      7949      7950
      7947      7946      7949      7951      7947      7946      7949      7952
      7948      7946      7949      7950      7948      7946      7949      7951
      7948      7946      7949      7952      7949      7952      7955      7956
      7949      7952      7955      7957      7949      7952      7955      7958
      7950      7949      7952      7953      7950      7949      7952      7954
      7950      7949      7952      7955      7951      7949      7952      7953
      7951      7949      7952      7954      7951      7949      7952      7955
      7952      7955      7958      7959      7952      7955      7958      7960
      7952      7955      7958      7961      7953      7952      7955      7956
      7953      7952      7955      7957      7953      7952      7955      7958
      7954      7952      7955      7956      7954      7952      7955      7957
      7954      7952      7955      7958      7955      7958      7961      7962
      7955      7958      7961      7963      7955      7958      7961      7964
      7956      7955      7958      7959      7956      7955      7958      7960
      7956      7955      7958      7961      7957      7955      7958      7959
      7957      7955      7958      7960      7957      7955      7958      7961
      7958      7961      7964      7965      7958      7961      7964      7966
      7958      7961      7964      7967      7959      7958      7961      7962
      7959      7958      7961      7963      7959      7958      7961      7964
      7960      7958      7961      7962      7960      7958      7961      7963
      7960      7958      7961      7964      7961      7964      7967      7968
      7961      7964      7967      7969      7961      7964      7967      7970
      7962      7961      7964      7965      7962      7961      7964      7966
      7962      7961      7964      7967      7963      7961      7964      7965
      7963      7961      7964      7966      7963      7961      7964      7967
      7965      7964      7967      7968      7965      7964      7967      7969
      7965      7964      7967      7970      7966      7964      7967      7968
      7966      7964      7967      7969      7966      7964      7967      7970
     21189     21190     21205     21206     21189     21190     21205     21207
     21189     21190     21205     21211     21190     21189     21193     21194
     21190     21189     21193     21195     21190     21189     21193     21196
     21190     21189     21197     21198     21190     21189     21197     21199
     21190     21189     21197     21200     21190     21189     21201     21202
     21190     21189     21201     21203     21190     21189     21201     21204
     21190     21205     21211     21208     21191     21190     21189     21193
     21191     21190     21189     21197     21191     21190     21189     21201
     21191     21190     21205     21206     21191     21190     21205     21207
     21191     21190     21205     21211     21192     21190     21189     21193
     21192     21190     21189     21197     21192     21190     21189     21201
     21192     21190     21205     21206     21192     21190     21205     21207
     21192     21190     21205     21211     21193     21189     21190     21205
     21193     21189     21197     21198     21193     21189     21197     21199
     21193     21189     21197     21200     21193     21189     21201     21202
     21193     21189     21201     21203     21193     21189     21201     21204
     21194     21193     21189     21197     21194     21193     21189     21201
     21195     21193     21189     21197     21195     21193     21189     21201
     21196     21193     21189     21197     21196     21193     21189     21201
     21197     21189     21190     21205     21197     21189     21201     21202
     21197     21189     21201     21203     21197     21189     21201     21204
     21198     21197     21189     21201     21199     21197     21189     21201
     21200     21197     21189     21201     21201     21189     21190     21205
     21205     21211     21208     21209     21205     21211     21208     21210
     21205     21211     21208     21212     21206     21205     21211     21208
     21207     21205     21211     21208     21208     21212     21213     21214
     21208     21212     21213     21215     21208     21212     21213     21216
     21209     21208     21212     21213     21210     21208     21212     21213
     21211     21208     21212     21213     21212     21213     21216     21217
     21212     21213     21216     21218     21212     21213     21216     21224
     21213     21216     21218     21219     21213     21216     21224     21225
     21213     21216     21224     21226     21213     21216     21224     21227
     21214     21213     21216     21217     21214     21213     21216     21218
     21214     21213     21216     21224     21215     21213     21216     21217
     21215     21213     21216     21218     21215     21213     21216     21224
     21216     21218     21219     21220     21216     21218     21219     21221
     21216     21224     21227     21228     21217     21216     21218     21219
     21217     21216     21224     21225     21217     21216     21224     21226
     21217     21216     21224     21227     21218     21216     21224     21225
     21218     21216     21224     21226     21218     21216     21224     21227
     21218     21219     21221     21222     21218     21219     21221     21223
     21218     21219     21221     21233     21219     21218     21216     21224
     21219     21221     21233     21234     21219     21221     21233     21235
     21219     21221     21233     21236     21220     21219     21221     21222
     21220     21219     21221     21223     21220     21219     21221     21233
     21221     21233     21236     21237     21221     21233     21236     21238
     21221     21233     21236     21239     21222     21221     21233     21234
     21222     21221     21233     21235     21222     21221     21233     21236
     21223     21221     21233     21234     21223     21221     21233     21235
     21223     21221     21233     21236     21224     21227     21228     21229
     21224     21227     21228     21230     21225     21224     21227     21228
     21226     21224     21227     21228     21227     21228     21230     21231
     21227     21228     21230     21232     21227     21228     21230     21280
     21228     21230     21280     21281     21228     21230     21280     21282
     21228     21230     21280     21283     21229     21228     21230     21231
     21229     21228     21230     21232     21229     21228     21230     21280
     21230     21280     21283     21284     21230     21280     21283     21285
     21230     21280     21283     21286     21231     21230     21280     21281
     21231     21230     21280     21282     21231     21230     21280     21283
     21232     21230     21280     21281     21232     21230     21280     21282
     21232     21230     21280     21283     21233     21236     21239     21240
     21233     21236     21239     21241     21233     21236     21239     21242
     21234     21233     21236     21237     21234     21233     21236     21238
     21234     21233     21236     21239     21235     21233     21236     21237
     21235     21233     21236     21238     21235     21233     21236     21239
     21236     21239     21242     21243     21236     21239     21242     21244
     21236     21239     21242     21245     21237     21236     21239     21240
     21237     21236     21239     21241     21237     21236     21239     21242
     21238     21236     21239     21240     21238     21236     21239     21241
     21238     21236     21239     21242     21239     21242     21245     21246
     21239     21242     21245     21247     21239     21242     21245     21248
     21240     21239     21242     21243     21240     21239     21242     21244
     21240     21239     21242     21245     21241     21239     21242     21243
     21241     21239     21242     21244     21241     21239     21242     21245
     21242     21245     21248     21249     21242     21245     21248     21250
     21242     21245     21248     21251     21243     21242     21245     21246
     21243     21242     21245     21247     21243     21242     21245     21248
     21244     21242     21245     21246     21244     21242     21245     21247
     21244     21242     21245     21248     21245     21248     21251     21252
     21245     21248     21251     21253     21246     21245     21248     21249
     21246     21245     21248     21250     21246     21245     21248     21251
     21247     21245     21248     21249     21247     21245     21248     21250
     21247     21245     21248     21251     21248     21251     21253     21254
     21248     21251     21253     21255     21249     21248     21251     21252
     21249     21248     21251     21253     21250     21248     21251     21252
     21250     21248     21251     21253     21251     21253     21255     21256
     21251     21253     21255     21257     21251     21253     21255     21258
     21252     21251     21253     21254     21252     21251     21253     21255
     21253     21255     21258     21259     21253     21255     21258     21260
     21253     21255     21258     21261     21254     21253     21255     21256
     21254     21253     21255     21257     21254     21253     21255     21258
     21255     21258     21261     21262     21255     21258     21261     21263
     21255     21258     21261     21264     21256     21255     21258     21259
     21256     21255     21258     21260     21256     21255     21258     21261
     21257     21255     21258     21259     21257     21255     21258     21260
     21257     21255     21258     21261     21258     21261     21264     21265
     21258     21261     21264     21266     21258     21261     21264     21267
     21259     21258     21261     21262     21259     21258     21261     21263
     21259     21258     21261     21264     21260     21258     21261     21262
     21260     21258     21261     21263     21260     21258     21261     21264
     21261     21264     21267     21268     21261     21264     21267     21269
     21261     21264     21267     21270     21262     21261     21264     21265
     21262     21261     21264     21266     21262     21261     21264     21267
     21263     21261     21264     21265     21263     21261     21264     21266
     21263     21261     21264     21267     21264     21267     21270     21271
     21264     21267     21270     21272     21264     21267     21270     21273
     21265     21264     21267     21268     21265     21264     21267     21269
     21265     21264     21267     21270     21266     21264     21267     21268
     21266     21264     21267     21269     21266     21264     21267     21270
     21267     21270     21273     21274     21267     21270     21273     21275
     21267     21270     21273     21276     21268     21267     21270     21271
     21268     21267     21270     21272     21268     21267     21270     21273
     21269     21267     21270     21271     21269     21267     21270     21272
     21269     21267     21270     21273     21270     21273     21276     21277
     21270     21273     21276     21278     21270     21273     21276     21279
     21271     21270     21273     21274     21271     21270     21273     21275
     21271     21270     21273     21276     21272     21270     21273     21274
     21272     21270     21273     21275     21272     21270     21273     21276
     21274     21273     21276     21277     21274     21273     21276     21278
     21274     21273     21276     21279     21275     21273     21276     21277
     21275     21273     21276     21278     21275     21273     21276     21279
     21280     21283     21286     21287     21280     21283     21286     21288
     21280     21283     21286     21289     21281     21280     21283     21284
     21281     21280     21283     21285     21281     21280     21283     21286
     21282     21280     21283     21284     21282     21280     21283     21285
     21282     21280     21283     21286     21283     21286     21289     21290
     21283     21286     21289     21291     21283     21286     21289     21292
     21284     21283     21286     21287     21284     21283     21286     21288
     21284     21283     21286     21289     21285     21283     21286     21287
     21285     21283     21286     21288     21285     21283     21286     21289
     21286     21289     21292     21293     21286     21289     21292     21294
     21286     21289     21292     21295     21287     21286     21289     21290
     21287     21286     21289     21291     21287     21286     21289     21292
     21288     21286     21289     21290     21288     21286     21289     21291
     21288     21286     21289     21292     21289     21292     21295     21296
     21289     21292     21295     21297     21289     21292     21295     21298
     21290     21289     21292     21293     21290     21289     21292     21294
     21290     21289     21292     21295     21291     21289     21292     21293
     21291     21289     21292     21294     21291     21289     21292     21295
     21292     21295     21298     21299     21292     21295     21298     21300
     21292     21295     21298     21301     21293     21292     21295     21296
     21293     21292     21295     21297     21293     21292     21295     21298
     21294     21292     21295     21296     21294     21292     21295     21297
     21294     21292     21295     21298     21295     21298     21301     21302
     21295     21298     21301     21303     21295     21298     21301     21304
     21296     21295     21298     21299     21296     21295     21298     21300
     21296     21295     21298     21301     21297     21295     21298     21299
     21297     21295     21298     21300     21297     21295     21298     21301
     21298     21301     21304     21305     21298     21301     21304     21306
     21298     21301     21304     21307     21299     21298     21301     21302
     21299     21298     21301     21303     21299     21298     21301     21304
     21300     21298     21301     21302     21300     21298     21301     21303
     21300     21298     21301     21304     21301     21304     21307     21308
     21301     21304     21307     21309     21301     21304     21307     21310
     21302     21301     21304     21305     21302     21301     21304     21306
     21302     21301     21304     21307     21303     21301     21304     21305
     21303     21301     21304     21306     21303     21301     21304     21307
     21304     21307     21310     21311     21304     21307     21310     21312
     21304     21307     21310     21313     21305     21304     21307     21308
     21305     21304     21307     21309     21305     21304     21307     21310
     21306     21304     21307     21308     21306     21304     21307     21309
     21306     21304     21307     21310     21307     21310     21313     21314
     21307     21310     21313     21315     21307     21310     21313     21316
     21308     21307     21310     21311     21308     21307     21310     21312
     21308     21307     21310     21313     21309     21307     21310     21311
     21309     21307     21310     21312     21309     21307     21310     21313
     21310     21313     21316     21317     21310     21313     21316     21318
     21310     21313     21316     21319     21311     21310     21313     21314
     21311     21310     21313     21315     21311     21310     21313     21316
     21312     21310     21313     21314     21312     21310     21313     21315
     21312     21310     21313     21316     21313     21316     21319     21320
     21313     21316     21319     21321     21313     21316     21319     21322
     21314     21313     21316     21317     21314     21313     21316     21318
     21314     21313     21316     21319     21315     21313     21316     21317
     21315     21313     21316     21318     21315     21313     21316     21319
     21317     21316     21319     21320     21317     21316     21319     21321
     21317     21316     21319     21322     21318     21316     21319     21320
     21318     21316     21319     21321     21318     21316     21319     21322
      7971      7975      7978      7979      7971      7975      7978      7980
      7971      7975      7978      7985      7972      7971      7975      7976
      7972      7971      7975      7977      7972      7971      7975      7978
      7973      7971      7975      7976      7973      7971      7975      7977
      7973      7971      7975      7978      7974      7971      7975      7976
      7974      7971      7975      7977      7974      7971      7975      7978
      7975      7978      7985      7981      7976      7975      7978      7979
      7976      7975      7978      7980      7976      7975      7978      7985
      7977      7975      7978      7979      7977      7975      7978      7980
      7977      7975      7978      7985      7978      7985      7981      7982
      7978      7985      7981      7983      7978      7985      7981      7984
      7979      7978      7985      7981      7980      7978      7985      7981
      7981      7984      7986      7987      7981      7984      7986      7988
      7981      7984      7986      7989      7982      7981      7984      7986
      7983      7981      7984      7986      7984      7986      7989      7990
      7984      7986      7989      7991      7984      7986      7989      7997
      7985      7981      7984      7986      7986      7989      7991      7992
      7986      7989      7997      7998      7986      7989      7997      7999
      7986      7989      7997      8000      7987      7986      7989      7990
      7987      7986      7989      7991      7987      7986      7989      7997
      7988      7986      7989      7990      7988      7986      7989      7991
      7988      7986      7989      7997      7989      7991      7992      7993
      7989      7991      7992      7994      7989      7997      8000      8001
      7990      7989      7991      7992      7990      7989      7997      7998
      7990      7989      7997      7999      7990      7989      7997      8000
      7991      7989      7997      7998      7991      7989      7997      7999
      7991      7989      7997      8000      7991      7992      7994      7995
      7991      7992      7994      7996      7991      7992      7994      8006
      7992      7991      7989      7997      7992      7994      8006      8007
      7992      7994      8006      8008      7992      7994      8006      8009
      7993      7992      7994      7995      7993      7992      7994      7996
      7993      7992      7994      8006      7994      8006      8009      8010
      7994      8006      8009      8011      7994      8006      8009      8012
      7995      7994      8006      8007      7995      7994      8006      8008
      7995      7994      8006      8009      7996      7994      8006      8007
      7996      7994      8006      8008      7996      7994      8006      8009
      7997      8000      8001      8002      7997      8000      8001      8003
      7998      7997      8000      8001      7999      7997      8000      8001
      8000      8001      8003      8004      8000      8001      8003      8005
      8000      8001      8003      8053      8001      8003      8053      8054
      8001      8003      8053      8055      8001      8003      8053      8056
      8002      8001      8003      8004      8002      8001      8003      8005
      8002      8001      8003      8053      8003      8053      8056      8057
      8003      8053      8056      8058      8003      8053      8056      8059
      8004      8003      8053      8054      8004      8003      8053      8055
      8004      8003      8053      8056      8005      8003      8053      8054
      8005      8003      8053      8055      8005      8003      8053      8056
      8006      8009      8012      8013      8006      8009      8012      8014
      8006      8009      8012      8015      8007      8006      8009      8010
      8007      8006      8009      8011      8007      8006      8009      8012
      8008      8006      8009      8010      8008      8006      8009      8011
      8008      8006      8009      8012      8009      8012      8015      8016
      8009      8012      8015      8017      8009      8012      8015      8018
      8010      8009      8012      8013      8010      8009      8012      8014
      8010      8009      8012      8015      8011      8009      8012      8013
      8011      8009      8012      8014      8011      8009      8012      8015
      8012      8015      8018      8019      8012      8015      8018      8020
      8012      8015      8018      8021      8013      8012      8015      8016
      8013      8012      8015      8017      8013      8012      8015      8018
      8014      8012      8015      8016      8014      8012      8015      8017
      8014      8012      8015      8018      8015      8018      8021      8022
      8015      8018      8021      8023      8015      8018      8021      8024
      8016      8015      8018      8019      8016      8015      8018      8020
      8016      8015      8018      8021      8017      8015      8018      8019
      8017      8015      8018      8020      8017      8015      8018      8021
      8018      8021      8024      8025      8018      8021      8024      8026
      8019      8018      8021      8022      8019      8018      8021      8023
      8019      8018      8021      8024      8020      8018      8021      8022
      8020      8018      8021      8023      8020      8018      8021      8024
      8021      8024      8026      8027      8021      8024      8026      8028
      8022      8021      8024      8025      8022      8021      8024      8026
      8023      8021      8024      8025      8023      8021      8024      8026
      8024      8026      8028      8029      8024      8026      8028      8030
      8024      8026      8028      8031      8025      8024      8026      8027
      8025      8024      8026      8028      8026      8028      8031      8032
      8026      8028      8031      8033      8026      8028      8031      8034
      8027      8026      8028      8029      8027      8026      8028      8030
      8027      8026      8028      8031      8028      8031      8034      8035
      8028      8031      8034      8036      8028      8031      8034      8037
      8029      8028      8031      8032      8029      8028      8031      8033
      8029      8028      8031      8034      8030      8028      8031      8032
      8030      8028      8031      8033      8030      8028      8031      8034
      8031      8034      8037      8038      8031      8034      8037      8039
      8031      8034      8037      8040      8032      8031      8034      8035
      8032      8031      8034      8036      8032      8031      8034      8037
      8033      8031      8034      8035      8033      8031      8034      8036
      8033      8031      8034      8037      8034      8037      8040      8041
      8034      8037      8040      8042      8034      8037      8040      8043
      8035      8034      8037      8038      8035      8034      8037      8039
      8035      8034      8037      8040      8036      8034      8037      8038
      8036      8034      8037      8039      8036      8034      8037      8040
      8037      8040      8043      8044      8037      8040      8043      8045
      8037      8040      8043      8046      8038      8037      8040      8041
      8038      8037      8040      8042      8038      8037      8040      8043
      8039      8037      8040      8041      8039      8037      8040      8042
      8039      8037      8040      8043      8040      8043      8046      8047
      8040      8043      8046      8048      8040      8043      8046      8049
      8041      8040      8043      8044      8041      8040      8043      8045
      8041      8040      8043      8046      8042      8040      8043      8044
      8042      8040      8043      8045      8042      8040      8043      8046
      8043      8046      8049      8050      8043      8046      8049      8051
      8043      8046      8049      8052      8044      8043      8046      8047
      8044      8043      8046      8048      8044      8043      8046      8049
      8045      8043      8046      8047      8045      8043      8046      8048
      8045      8043      8046      8049      8047      8046      8049      8050
      8047      8046      8049      8051      8047      8046      8049      8052
      8048      8046      8049      8050      8048      8046      8049      8051
      8048      8046      8049      8052      8053      8056      8059      8060
      8053      8056      8059      8061      8053      8056      8059      8062
      8054      8053      8056      8057      8054      8053      8056      8058
      8054      8053      8056      8059      8055      8053      8056      8057
      8055      8053      8056      8058      8055      8053      8056      8059
      8056      8059      8062      8063      8056      8059      8062      8064
      8056      8059      8062      8065      8057      8056      8059      8060
      8057      8056      8059      8061      8057      8056      8059      8062
      8058      8056      8059      8060      8058      8056      8059      8061
      8058      8056      8059      8062      8059      8062      8065      8066
      8059      8062      8065      8067      8059      8062      8065      8068
      8060      8059      8062      8063      8060      8059      8062      8064
      8060      8059      8062      8065      8061      8059      8062      8063
      8061      8059      8062      8064      8061      8059      8062      8065
      8062      8065      8068      8069      8062      8065      8068      8070
      8062      8065      8068      8071      8063      8062      8065      8066
      8063      8062      8065      8067      8063      8062      8065      8068
      8064      8062      8065      8066      8064      8062      8065      8067
      8064      8062      8065      8068      8065      8068      8071      8072
      8065      8068      8071      8073      8065      8068      8071      8074
      8066      8065      8068      8069      8066      8065      8068      8070
      8066      8065      8068      8071      8067      8065      8068      8069
      8067      8065      8068      8070      8067      8065      8068      8071
      8068      8071      8074      8075      8068      8071      8074      8076
      8068      8071      8074      8077      8069      8068      8071      8072
      8069      8068      8071      8073      8069      8068      8071      8074
      8070      8068      8071      8072      8070      8068      8071      8073
      8070      8068      8071      8074      8071      8074      8077      8078
      8071      8074      8077      8079      8071      8074      8077      8080
      8072      8071      8074      8075      8072      8071      8074      8076
      8072      8071      8074      8077      8073      8071      8074      8075
      8073      8071      8074      8076      8073      8071      8074      8077
      8074      8077      8080      8081      8074      8077      8080      8082
      8074      8077      8080      8083      8075      8074      8077      8078
      8075      8074      8077      8079      8075      8074      8077      8080
      8076      8074      8077      8078      8076      8074      8077      8079
      8076      8074      8077      8080      8077      8080      8083      8084
      8077      8080      8083      8085      8077      8080      8083      8086
      8078      8077      8080      8081      8078      8077      8080      8082
      8078      8077      8080      8083      8079      8077      8080      8081
      8079      8077      8080      8082      8079      8077      8080      8083
      8080      8083      8086      8087      8080      8083      8086      8088
      8080      8083      8086      8089      8081      8080      8083      8084
      8081      8080      8083      8085      8081      8080      8083      8086
      8082      8080      8083      8084      8082      8080      8083      8085
      8082      8080      8083      8086      8083      8086      8089      8090
      8083      8086      8089      8091      8083      8086      8089      8092
      8084      8083      8086      8087      8084      8083      8086      8088
      8084      8083      8086      8089      8085      8083      8086      8087
      8085      8083      8086      8088      8085      8083      8086      8089
      8086      8089      8092      8093      8086      8089      8092      8094
      8086      8089      8092      8095      8087      8086      8089      8090
      8087      8086      8089      8091      8087      8086      8089      8092
      8088      8086      8089      8090      8088      8086      8089      8091
      8088      8086      8089      8092      8090      8089      8092      8093
      8090      8089      8092      8094      8090      8089      8092      8095
      8091      8089      8092      8093      8091      8089      8092      8094
      8091      8089      8092      8095     22687     22691     22693     22694
     22687     22691     22695     22696     22687     22691     22695     22697
     22687     22691     22695     22699     22687     22707     22703     22699
     22687     22707     22703     22704     22687     22707     22703     22705
     22687     22707     22712     22709     22688     22687     22689     22690
     22688     22687     22691     22692     22688     22687     22691     22693
     22688     22687     22691     22695     22688     22687     22707     22703
     22688     22687     22707     22708     22688     22687     22707     22712
     22689     22687     22691     22692     22689     22687     22691     22693
     22689     22687     22691     22695     22689     22687     22707     22703
     22689     22687     22707     22708     22689     22687     22707     22712
     22690     22689     22687     22691     22690     22689     22687     22707
     22691     22687     22707     22703     22691     22687     22707     22708
     22691     22687     22707     22712     22691     22695     22697     22698
     22691     22695     22699     22700     22691     22695     22699     22701
     22691     22695     22699     22703     22692     22691     22687     22707
     22692     22691     22693     22694     22692     22691     22695     22696
     22692     22691     22695     22697     22692     22691     22695     22699
     22693     22691     22687     22707     22693     22691     22695     22696
     22693     22691     22695     22697     22693     22691     22695     22699
     22694     22693     22691     22695     22695     22691     22687     22707
     22695     22699     22701     22702     22695     22699     22703     22704
     22695     22699     22703     22705     22695     22699     22703     22707
     22696     22695     22697     22698     22696     22695     22699     22700
     22696     22695     22699     22701     22696     22695     22699     22703
     22697     22695     22699     22700     22697     22695     22699     22701
     22697     22695     22699     22703     22698     22697     22695     22699
     22699     22703     22705     22706     22699     22703     22707     22708
     22699     22703     22707     22712     22700     22699     22701     22702
     22700     22699     22703     22704     22700     22699     22703     22705
     22700     22699     22703     22707     22701     22699     22703     22704
     22701     22699     22703     22705     22701     22699     22703     22707
     22702     22701     22699     22703     22703     22707     22712     22709
     22704     22703     22705     22706     22704     22703     22707     22708
     22704     22703     22707     22712     22705     22703     22707     22708
     22705     22703     22707     22712     22706     22705     22703     22707
     22707     22712     22709     22710     22707     22712     22709     22711
     22707     22712     22709     22713     22708     22707     22712     22709
     22709     22713     22714     22715     22709     22713     22714     22716
     22709     22713     22714     22717     22710     22709     22713     22714
     22711     22709     22713     22714     22712     22709     22713     22714
     22713     22714     22717     22718     22713     22714     22717     22719
     22713     22714     22717     22725     22714     22717     22719     22720
     22714     22717     22725     22726     22714     22717     22725     22727
     22714     22717     22725     22728     22715     22714     22717     22718
     22715     22714     22717     22719     22715     22714     22717     22725
     22716     22714     22717     22718     22716     22714     22717     22719
     22716     22714     22717     22725     22717     22719     22720     22721
     22717     22719     22720     22722     22717     22725     22728     22729
     22718     22717     22719     22720     22718     22717     22725     22726
     22718     22717     22725     22727     22718     22717     22725     22728
     22719     22717     22725     22726     22719     22717     22725     22727
     22719     22717     22725     22728     22719     22720     22722     22723
     22719     22720     22722     22724     22719     22720     22722     22734
     22720     22719     22717     22725     22720     22722     22734     22735
     22720     22722     22734     22736     22720     22722     22734     22737
     22721     22720     22722     22723     22721     22720     22722     22724
     22721     22720     22722     22734     22722     22734     22737     22738
     22722     22734     22737     22739     22722     22734     22737     22740
     22723     22722     22734     22735     22723     22722     22734     22736
     22723     22722     22734     22737     22724     22722     22734     22735
     22724     22722     22734     22736     22724     22722     22734     22737
     22725     22728     22729     22730     22725     22728     22729     22731
     22726     22725     22728     22729     22727     22725     22728     22729
     22728     22729     22731     22732     22728     22729     22731     22733
     22728     22729     22731     22781     22729     22731     22781     22782
     22729     22731     22781     22783     22729     22731     22781     22784
     22730     22729     22731     22732     22730     22729     22731     22733
     22730     22729     22731     22781     22731     22781     22784     22785
     22731     22781     22784     22786     22731     22781     22784     22787
     22732     22731     22781     22782     22732     22731     22781     22783
     22732     22731     22781     22784     22733     22731     22781     22782
     22733     22731     22781     22783     22733     22731     22781     22784
     22734     22737     22740     22741     22734     22737     22740     22742
     22734     22737     22740     22743     22735     22734     22737     22738
     22735     22734     22737     22739     22735     22734     22737     22740
     22736     22734     22737     22738     22736     22734     22737     22739
     22736     22734     22737     22740     22737     22740     22743     22744
     22737     22740     22743     22745     22737     22740     22743     22746
     22738     22737     22740     22741     22738     22737     22740     22742
     22738     22737     22740     22743     22739     22737     22740     22741
     22739     22737     22740     22742     22739     22737     22740     22743
     22740     22743     22746     22747     22740     22743     22746     22748
     22740     22743     22746     22749     22741     22740     22743     22744
     22741     22740     22743     22745     22741     22740     22743     22746
     22742     22740     22743     22744     22742     22740     22743     22745
     22742     22740     22743     22746     22743     22746     22749     22750
     22743     22746     22749     22751     22743     22746     22749     22752
     22744     22743     22746     22747     22744     22743     22746     22748
     22744     22743     22746     22749     22745     22743     22746     22747
     22745     22743     22746     22748     22745     22743     22746     22749
     22746     22749     22752     22753     22746     22749     22752     22754
     22747     22746     22749     22750     22747     22746     22749     22751
     22747     22746     22749     22752     22748     22746     22749     22750
     22748     22746     22749     22751     22748     22746     22749     22752
     22749     22752     22754     22755     22749     22752     22754     22756
     22750     22749     22752     22753     22750     22749     22752     22754
     22751     22749     22752     22753     22751     22749     22752     22754
     22752     22754     22756     22757     22752     22754     22756     22758
     22752     22754     22756     22759     22753     22752     22754     22755
     22753     22752     22754     22756     22754     22756     22759     22760
     22754     22756     22759     22761     22754     22756     22759     22762
     22755     22754     22756     22757     22755     22754     22756     22758
     22755     22754     22756     22759     22756     22759     22762     22763
     22756     22759     22762     22764     22756     22759     22762     22765
     22757     22756     22759     22760     22757     22756     22759     22761
     22757     22756     22759     22762     22758     22756     22759     22760
     22758     22756     22759     22761     22758     22756     22759     22762
     22759     22762     22765     22766     22759     22762     22765     22767
     22759     22762     22765     22768     22760     22759     22762     22763
     22760     22759     22762     22764     22760     22759     22762     22765
     22761     22759     22762     22763     22761     22759     22762     22764
     22761     22759     22762     22765     22762     22765     22768     22769
     22762     22765     22768     22770     22762     22765     22768     22771
     22763     22762     22765     22766     22763     22762     22765     22767
     22763     22762     22765     22768     22764     22762     22765     22766
     22764     22762     22765     22767     22764     22762     22765     22768
     22765     22768     22771     22772     22765     22768     22771     22773
     22765     22768     22771     22774     22766     22765     22768     22769
     22766     22765     22768     22770     22766     22765     22768     22771
     22767     22765     22768     22769     22767     22765     22768     22770
     22767     22765     22768     22771     22768     22771     22774     22775
     22768     22771     22774     22776     22768     22771     22774     22777
     22769     22768     22771     22772     22769     22768     22771     22773
     22769     22768     22771     22774     22770     22768     22771     22772
     22770     22768     22771     22773     22770     22768     22771     22774
     22771     22774     22777     22778     22771     22774     22777     22779
     22771     22774     22777     22780     22772     22771     22774     22775
     22772     22771     22774     22776     22772     22771     22774     22777
     22773     22771     22774     22775     22773     22771     22774     22776
     22773     22771     22774     22777     22775     22774     22777     22778
     22775     22774     22777     22779     22775     22774     22777     22780
     22776     22774     22777     22778     22776     22774     22777     22779
     22776     22774     22777     22780     22781     22784     22787     22788
     22781     22784     22787     22789     22781     22784     22787     22790
     22782     22781     22784     22785     22782     22781     22784     22786
     22782     22781     22784     22787     22783     22781     22784     22785
     22783     22781     22784     22786     22783     22781     22784     22787
     22784     22787     22790     22791     22784     22787     22790     22792
     22784     22787     22790     22793     22785     22784     22787     22788
     22785     22784     22787     22789     22785     22784     22787     22790
     22786     22784     22787     22788     22786     22784     22787     22789
     22786     22784     22787     22790     22787     22790     22793     22794
     22787     22790     22793     22795     22787     22790     22793     22796
     22788     22787     22790     22791     22788     22787     22790     22792
     22788     22787     22790     22793     22789     22787     22790     22791
     22789     22787     22790     22792     22789     22787     22790     22793
     22790     22793     22796     22797     22790     22793     22796     22798
     22790     22793     22796     22799     22791     22790     22793     22794
     22791     22790     22793     22795     22791     22790     22793     22796
     22792     22790     22793     22794     22792     22790     22793     22795
     22792     22790     22793     22796     22793     22796     22799     22800
     22793     22796     22799     22801     22793     22796     22799     22802
     22794     22793     22796     22797     22794     22793     22796     22798
     22794     22793     22796     22799     22795     22793     22796     22797
     22795     22793     22796     22798     22795     22793     22796     22799
     22796     22799     22802     22803     22796     22799     22802     22804
     22796     22799     22802     22805     22797     22796     22799     22800
     22797     22796     22799     22801     22797     22796     22799     22802
     22798     22796     22799     22800     22798     22796     22799     22801
     22798     22796     22799     22802     22799     22802     22805     22806
     22799     22802     22805     22807     22799     22802     22805     22808
     22800     22799     22802     22803     22800     22799     22802     22804
     22800     22799     22802     22805     22801     22799     22802     22803
     22801     22799     22802     22804     22801     22799     22802     22805
     22802     22805     22808     22809     22802     22805     22808     22810
     22802     22805     22808     22811     22803     22802     22805     22806
     22803     22802     22805     22807     22803     22802     22805     22808
     22804     22802     22805     22806     22804     22802     22805     22807
     22804     22802     22805     22808     22805     22808     22811     22812
     22805     22808     22811     22813     22805     22808     22811     22814
     22806     22805     22808     22809     22806     22805     22808     22810
     22806     22805     22808     22811     22807     22805     22808     22809
     22807     22805     22808     22810     22807     22805     22808     22811
     22808     22811     22814     22815     22808     22811     22814     22816
     22808     22811     22814     22817     22809     22808     22811     22812
     22809     22808     22811     22813     22809     22808     22811     22814
     22810     22808     22811     22812     22810     22808     22811     22813
     22810     22808     22811     22814     22811     22814     22817     22818
     22811     22814     22817     22819     22811     22814     22817     22820
     22812     22811     22814     22815     22812     22811     22814     22816
     22812     22811     22814     22817     22813     22811     22814     22815
     22813     22811     22814     22816     22813     22811     22814     22817
     22814     22817     22820     22821     22814     22817     22820     22822
     22814     22817     22820     22823     22815     22814     22817     22818
     22815     22814     22817     22819     22815     22814     22817     22820
     22816     22814     22817     22818     22816     22814     22817     22819
     22816     22814     22817     22820     22818     22817     22820     22821
     22818     22817     22820     22822     22818     22817     22820     22823
     22819     22817     22820     22821     22819     22817     22820     22822
     22819     22817     22820     22823      8096      8100      8103      8104
      8096      8100      8103      8105      8096      8100      8103      8110
      8097      8096      8100      8101      8097      8096      8100      8102
      8097      8096      8100      8103      8098      8096      8100      8101
      8098      8096      8100      8102      8098      8096      8100      8103
      8099      8096      8100      8101      8099      8096      8100      8102
      8099      8096      8100      8103      8100      8103      8110      8106
      8101      8100      8103      8104      8101      8100      8103      8105
      8101      8100      8103      8110      8102      8100      8103      8104
      8102      8100      8103      8105      8102      8100      8103      8110
      8103      8110      8106      8107      8103      8110      8106      8108
      8103      8110      8106      8109      8104      8103      8110      8106
      8105      8103      8110      8106      8106      8109      8111      8112
      8106      8109      8111      8113      8106      8109      8111      8114
      8107      8106      8109      8111      8108      8106      8109      8111
      8109      8111      8114      8115      8109      8111      8114      8116
      8109      8111      8114      8122      8110      8106      8109      8111
      8111      8114      8116      8117      8111      8114      8122      8123
      8111      8114      8122      8124      8111      8114      8122      8125
      8112      8111      8114      8115      8112      8111      8114      8116
      8112      8111      8114      8122      8113      8111      8114      8115
      8113      8111      8114      8116      8113      8111      8114      8122
      8114      8116      8117      8118      8114      8116      8117      8119
      8114      8122      8125      8126      8115      8114      8116      8117
      8115      8114      8122      8123      8115      8114      8122      8124
      8115      8114      8122      8125      8116      8114      8122      8123
      8116      8114      8122      8124      8116      8114      8122      8125
      8116      8117      8119      8120      8116      8117      8119      8121
      8116      8117      8119      8131      8117      8116      8114      8122
      8117      8119      8131      8132      8117      8119      8131      8133
      8117      8119      8131      8134      8118      8117      8119      8120
      8118      8117      8119      8121      8118      8117      8119      8131
      8119      8131      8134      8135      8119      8131      8134      8136
      8119      8131      8134      8137      8120      8119      8131      8132
      8120      8119      8131      8133      8120      8119      8131      8134
      8121      8119      8131      8132      8121      8119      8131      8133
      8121      8119      8131      8134      8122      8125      8126      8127
      8122      8125      8126      8128      8123      8122      8125      8126
      8124      8122      8125      8126      8125      8126      8128      8129
      8125      8126      8128      8130      8125      8126      8128      8178
      8126      8128      8178      8179      8126      8128      8178      8180
      8126      8128      8178      8181      8127      8126      8128      8129
      8127      8126      8128      8130      8127      8126      8128      8178
      8128      8178      8181      8182      8128      8178      8181      8183
      8128      8178      8181      8184      8129      8128      8178      8179
      8129      8128      8178      8180      8129      8128      8178      8181
      8130      8128      8178      8179      8130      8128      8178      8180
      8130      8128      8178      8181      8131      8134      8137      8138
      8131      8134      8137      8139      8131      8134      8137      8140
      8132      8131      8134      8135      8132      8131      8134      8136
      8132      8131      8134      8137      8133      8131      8134      8135
      8133      8131      8134      8136      8133      8131      8134      8137
      8134      8137      8140      8141      8134      8137      8140      8142
      8134      8137      8140      8143      8135      8134      8137      8138
      8135      8134      8137      8139      8135      8134      8137      8140
      8136      8134      8137      8138      8136      8134      8137      8139
      8136      8134      8137      8140      8137      8140      8143      8144
      8137      8140      8143      8145      8137      8140      8143      8146
      8138      8137      8140      8141      8138      8137      8140      8142
      8138      8137      8140      8143      8139      8137      8140      8141
      8139      8137      8140      8142      8139      8137      8140      8143
      8140      8143      8146      8147      8140      8143      8146      8148
      8140      8143      8146      8149      8141      8140      8143      8144
      8141      8140      8143      8145      8141      8140      8143      8146
      8142      8140      8143      8144      8142      8140      8143      8145
      8142      8140      8143      8146      8143      8146      8149      8150
      8143      8146      8149      8151      8144      8143      8146      8147
      8144      8143      8146      8148      8144      8143      8146      8149
      8145      8143      8146      8147      8145      8143      8146      8148
      8145      8143      8146      8149      8146      8149      8151      8152
      8146      8149      8151      8153      8147      8146      8149      8150
      8147      8146      8149      8151      8148      8146      8149      8150
      8148      8146      8149      8151      8149      8151      8153      8154
      8149      8151      8153      8155      8149      8151      8153      8156
      8150      8149      8151      8152      8150      8149      8151      8153
      8151      8153      8156      8157      8151      8153      8156      8158
      8151      8153      8156      8159      8152      8151      8153      8154
      8152      8151      8153      8155      8152      8151      8153      8156
      8153      8156      8159      8160      8153      8156      8159      8161
      8153      8156      8159      8162      8154      8153      8156      8157
      8154      8153      8156      8158      8154      8153      8156      8159
      8155      8153      8156      8157      8155      8153      8156      8158
      8155      8153      8156      8159      8156      8159      8162      8163
      8156      8159      8162      8164      8156      8159      8162      8165
      8157      8156      8159      8160      8157      8156      8159      8161
      8157      8156      8159      8162      8158      8156      8159      8160
      8158      8156      8159      8161      8158      8156      8159      8162
      8159      8162      8165      8166      8159      8162      8165      8167
      8159      8162      8165      8168      8160      8159      8162      8163
      8160      8159      8162      8164      8160      8159      8162      8165
      8161      8159      8162      8163      8161      8159      8162      8164
      8161      8159      8162      8165      8162      8165      8168      8169
      8162      8165      8168      8170      8162      8165      8168      8171
      8163      8162      8165      8166      8163      8162      8165      8167
      8163      8162      8165      8168      8164      8162      8165      8166
      8164      8162      8165      8167      8164      8162      8165      8168
      8165      8168      8171      8172      8165      8168      8171      8173
      8165      8168      8171      8174      8166      8165      8168      8169
      8166      8165      8168      8170      8166      8165      8168      8171
      8167      8165      8168      8169      8167      8165      8168      8170
      8167      8165      8168      8171      8168      8171      8174      8175
      8168      8171      8174      8176      8168      8171      8174      8177
      8169      8168      8171      8172      8169      8168      8171      8173
      8169      8168      8171      8174      8170      8168      8171      8172
      8170      8168      8171      8173      8170      8168      8171      8174
      8172      8171      8174      8175      8172      8171      8174      8176
      8172      8171      8174      8177      8173      8171      8174      8175
      8173      8171      8174      8176      8173      8171      8174      8177
      8178      8181      8184      8185      8178      8181      8184      8186
      8178      8181      8184      8187      8179      8178      8181      8182
      8179      8178      8181      8183      8179      8178      8181      8184
      8180      8178      8181      8182      8180      8178      8181      8183
      8180      8178      8181      8184      8181      8184      8187      8188
      8181      8184      8187      8189      8181      8184      8187      8190
      8182      8181      8184      8185      8182      8181      8184      8186
      8182      8181      8184      8187      8183      8181      8184      8185
      8183      8181      8184      8186      8183      8181      8184      8187
      8184      8187      8190      8191      8184      8187      8190      8192
      8184      8187      8190      8193      8185      8184      8187      8188
      8185      8184      8187      8189      8185      8184      8187      8190
      8186      8184      8187      8188      8186      8184      8187      8189
      8186      8184      8187      8190      8187      8190      8193      8194
      8187      8190      8193      8195      8187      8190      8193      8196
      8188      8187      8190      8191      8188      8187      8190      8192
      8188      8187      8190      8193      8189      8187      8190      8191
      8189      8187      8190      8192      8189      8187      8190      8193
      8190      8193      8196      8197      8190      8193      8196      8198
      8190      8193      8196      8199      8191      8190      8193      8194
      8191      8190      8193      8195      8191      8190      8193      8196
      8192      8190      8193      8194      8192      8190      8193      8195
      8192      8190      8193      8196      8193      8196      8199      8200
      8193      8196      8199      8201      8193      8196      8199      8202
      8194      8193      8196      8197      8194      8193      8196      8198
      8194      8193      8196      8199      8195      8193      8196      8197
      8195      8193      8196      8198      8195      8193      8196      8199
      8196      8199      8202      8203      8196      8199      8202      8204
      8196      8199      8202      8205      8197      8196      8199      8200
      8197      8196      8199      8201      8197      8196      8199      8202
      8198      8196      8199      8200      8198      8196      8199      8201
      8198      8196      8199      8202      8199      8202      8205      8206
      8199      8202      8205      8207      8199      8202      8205      8208
      8200      8199      8202      8203      8200      8199      8202      8204
      8200      8199      8202      8205      8201      8199      8202      8203
      8201      8199      8202      8204      8201      8199      8202      8205
      8202      8205      8208      8209      8202      8205      8208      8210
      8202      8205      8208      8211      8203      8202      8205      8206
      8203      8202      8205      8207      8203      8202      8205      8208
      8204      8202      8205      8206      8204      8202      8205      8207
      8204      8202      8205      8208      8205      8208      8211      8212
      8205      8208      8211      8213      8205      8208      8211      8214
      8206      8205      8208      8209      8206      8205      8208      8210
      8206      8205      8208      8211      8207      8205      8208      8209
      8207      8205      8208      8210      8207      8205      8208      8211
      8208      8211      8214      8215      8208      8211      8214      8216
      8208      8211      8214      8217      8209      8208      8211      8212
      8209      8208      8211      8213      8209      8208      8211      8214
      8210      8208      8211      8212      8210      8208      8211      8213
      8210      8208      8211      8214      8211      8214      8217      8218
      8211      8214      8217      8219      8211      8214      8217      8220
      8212      8211      8214      8215      8212      8211      8214      8216
      8212      8211      8214      8217      8213      8211      8214      8215
      8213      8211      8214      8216      8213      8211      8214      8217
      8215      8214      8217      8218      8215      8214      8217      8219
      8215      8214      8217      8220      8216      8214      8217      8218
      8216      8214      8217      8219      8216      8214      8217      8220
      2073      2077      2080      2081      2073      2077      2080      2111
      2073      2119      2116      2111      2073      2119      2116      2117
      2073      2119      2116      2118      2074      2073      2075      2076
      2074      2073      2077      2078      2074      2073      2077      2079
      2074      2073      2077      2080      2074      2073      2119      2116
      2074      2073      2119      2120      2074      2073      2119      2121
      2075      2073      2077      2078      2075      2073      2077      2079
      2075      2073      2077      2080      2075      2073      2119      2116
      2075      2073      2119      2120      2075      2073      2119      2121
      2076      2075      2073      2077      2076      2075      2073      2119
      2077      2073      2119      2116      2077      2073      2119      2120
      2077      2073      2119      2121      2077      2080      2081      2082
      2077      2080      2081      2083      2077      2080      2111      2109
      2077      2080      2111      2112      2077      2080      2111      2116
      2078      2077      2073      2119      2078      2077      2080      2081
      2078      2077      2080      2111      2079      2077      2073      2119
      2079      2077      2080      2081      2079      2077      2080      2111
      2080      2077      2073      2119      2080      2081      2083      2084
      2080      2081      2083      2085      2080      2081      2083      2086
      2080      2111      2109      2086      2080      2111      2109      2106
      2080      2111      2109      2110      2080      2111      2112      2113
      2080      2111      2112      2114      2080      2111      2112      2115
      2080      2111      2116      2117      2080      2111      2116      2118
      2080      2111      2116      2119      2081      2080      2111      2109
      2081      2080      2111      2112      2081      2080      2111      2116
      2081      2083      2086      2087      2081      2083      2086      2088
      2081      2083      2086      2109      2082      2081      2080      2111
      2082      2081      2083      2084      2082      2081      2083      2085
      2082      2081      2083      2086      2083      2081      2080      2111
      2083      2086      2088      2089      2083      2086      2088      2090
      2083      2086      2088      2098      2083      2086      2109      2106
      2083      2086      2109      2110      2083      2086      2109      2111
      2084      2083      2086      2087      2084      2083      2086      2088
      2084      2083      2086      2109      2085      2083      2086      2087
      2085      2083      2086      2088      2085      2083      2086      2109
      2086      2088      2090      2091      2086      2088      2090      2092
      2086      2088      2090      2093      2086      2088      2098      2096
      2086      2088      2098      2099      2086      2088      2098      2103
      2086      2109      2106      2103      2086      2109      2106      2107
      2086      2109      2106      2108      2086      2109      2111      2112
      2086      2109      2111      2116      2087      2086      2088      2089
      2087      2086      2088      2090      2087      2086      2088      2098
      2087      2086      2109      2106      2087      2086      2109      2110
      2087      2086      2109      2111      2088      2086      2109      2106
      2088      2086      2109      2110      2088      2086      2109      2111
      2088      2090      2093      2094      2088      2090      2093      2095
      2088      2090      2093      2096      2088      2098      2096      2093
      2088      2098      2096      2097      2088      2098      2096      2122
      2088      2098      2099      2100      2088      2098      2099      2101
      2088      2098      2099      2102      2088      2098      2103      2104
      2088      2098      2103      2105      2088      2098      2103      2106
      2089      2088      2086      2109      2089      2088      2090      2091
      2089      2088      2090      2092      2089      2088      2090      2093
      2089      2088      2098      2096      2089      2088      2098      2099
      2089      2088      2098      2103      2090      2088      2086      2109
      2090      2088      2098      2096      2090      2088      2098      2099
      2090      2088      2098      2103      2090      2093      2096      2097
      2090      2093      2096      2098      2090      2093      2096      2122
      2091      2090      2088      2098      2091      2090      2093      2094
      2091      2090      2093      2095      2091      2090      2093      2096
      2092      2090      2088      2098      2092      2090      2093      2094
      2092      2090      2093      2095      2092      2090      2093      2096
      2093      2090      2088      2098      2093      2096      2098      2099
      2093      2096      2098      2103      2093      2096      2122      2123
      2093      2096      2122      2124      2093      2096      2122      2128
      2094      2093      2096      2097      2094      2093      2096      2098
      2094      2093      2096      2122      2095      2093      2096      2097
      2095      2093      2096      2098      2095      2093      2096      2122
      2096      2098      2099      2100      2096      2098      2099      2101
      2096      2098      2099      2102      2096      2098      2103      2104
      2096      2098      2103      2105      2096      2098      2103      2106
      2096      2122      2124      2125      2096      2122      2124      2126
      2096      2122      2124      2127      2096      2122      2128      2129
      2096      2122      2128      2130      2096      2122      2128      2131
      2097      2096      2098      2099      2097      2096      2098      2103
      2097      2096      2122      2123      2097      2096      2122      2124
      2097      2096      2122      2128      2098      2088      2086      2109
      2098      2096      2122      2123      2098      2096      2122      2124
      2098      2096      2122      2128      2098      2103      2106      2107
      2098      2103      2106      2108      2098      2103      2106      2109
      2099      2098      2096      2122      2099      2098      2103      2104
      2099      2098      2103      2105      2099      2098      2103      2106
      2100      2099      2098      2103      2101      2099      2098      2103
      2102      2099      2098      2103      2103      2098      2096      2122
      2103      2106      2109      2110      2103      2106      2109      2111
      2104      2103      2106      2107      2104      2103      2106      2108
      2104      2103      2106      2109      2105      2103      2106      2107
      2105      2103      2106      2108      2105      2103      2106      2109
      2106      2109      2111      2112      2106      2109      2111      2116
      2107      2106      2109      2110      2107      2106      2109      2111
      2108      2106      2109      2110      2108      2106      2109      2111
      2109      2111      2112      2113      2109      2111      2112      2114
      2109      2111      2112      2115      2109      2111      2116      2117
      2109      2111      2116      2118      2109      2111      2116      2119
      2110      2109      2111      2112      2110      2109      2111      2116
      2111      2116      2119      2120      2111      2116      2119      2121
      2112      2111      2116      2117      2112      2111      2116      2118
      2112      2111      2116      2119      2113      2112      2111      2116
      2114      2112      2111      2116      2115      2112      2111      2116
      2117      2116      2119      2120      2117      2116      2119      2121
      2118      2116      2119      2120      2118      2116      2119      2121
      2122      2128      2131      2132      2122      2128      2131      2133
      2122      2128      2131      2134      2123      2122      2124      2125
      2123      2122      2124      2126      2123      2122      2124      2127
      2123      2122      2128      2129      2123      2122      2128      2130
      2123      2122      2128      2131      2124      2122      2128      2129
      2124      2122      2128      2130      2124      2122      2128      2131
      2125      2124      2122      2128      2126      2124      2122      2128
      2127      2124      2122      2128      2128      2131      2134      2135
      2128      2131      2134      2136      2128      2131      2134      2137
      2129      2128      2131      2132      2129      2128      2131      2133
      2129      2128      2131      2134      2130      2128      2131      2132
      2130      2128      2131      2133      2130      2128      2131      2134
      2131      2134      2137      2138      2131      2134      2137      2139
      2131      2134      2137      2143      2132      2131      2134      2135
      2132      2131      2134      2136      2132      2131      2134      2137
      2133      2131      2134      2135      2133      2131      2134      2136
      2133      2131      2134      2137      2134      2137      2139      2140
      2134      2137      2139      2141      2134      2137      2139      2142
      2134      2137      2143      2144      2134      2137      2143      2145
      2134      2137      2143      2146      2135      2134      2137      2138
      2135      2134      2137      2139      2135      2134      2137      2143
      2136      2134      2137      2138      2136      2134      2137      2139
      2136      2134      2137      2143      2138      2137      2139      2140
      2138      2137      2139      2141      2138      2137      2139      2142
      2138      2137      2143      2144      2138      2137      2143      2145
      2138      2137      2143      2146      2139      2137      2143      2144
      2139      2137      2143      2145      2139      2137      2143      2146
      2140      2139      2137      2143      2141      2139      2137      2143
      2142      2139      2137      2143      8221      8225      8228      8229
      8221      8225      8228      8230      8221      8225      8228      8235
      8222      8221      8225      8226      8222      8221      8225      8227
      8222      8221      8225      8228      8223      8221      8225      8226
      8223      8221      8225      8227      8223      8221      8225      8228
      8224      8221      8225      8226      8224      8221      8225      8227
      8224      8221      8225      8228      8225      8228      8235      8231
      8226      8225      8228      8229      8226      8225      8228      8230
      8226      8225      8228      8235      8227      8225      8228      8229
      8227      8225      8228      8230      8227      8225      8228      8235
      8228      8235      8231      8232      8228      8235      8231      8233
      8228      8235      8231      8234      8229      8228      8235      8231
      8230      8228      8235      8231      8231      8234      8236      8237
      8231      8234      8236      8238      8231      8234      8236      8239
      8232      8231      8234      8236      8233      8231      8234      8236
      8234      8236      8239      8240      8234      8236      8239      8241
      8234      8236      8239      8247      8235      8231      8234      8236
      8236      8239      8241      8242      8236      8239      8247      8248
      8236      8239      8247      8249      8236      8239      8247      8250
      8237      8236      8239      8240      8237      8236      8239      8241
      8237      8236      8239      8247      8238      8236      8239      8240
      8238      8236      8239      8241      8238      8236      8239      8247
      8239      8241      8242      8243      8239      8241      8242      8244
      8239      8247      8250      8251      8240      8239      8241      8242
      8240      8239      8247      8248      8240      8239      8247      8249
      8240      8239      8247      8250      8241      8239      8247      8248
      8241      8239      8247      8249      8241      8239      8247      8250
      8241      8242      8244      8245      8241      8242      8244      8246
      8241      8242      8244      8256      8242      8241      8239      8247
      8242      8244      8256      8257      8242      8244      8256      8258
      8242      8244      8256      8259      8243      8242      8244      8245
      8243      8242      8244      8246      8243      8242      8244      8256
      8244      8256      8259      8260      8244      8256      8259      8261
      8244      8256      8259      8262      8245      8244      8256      8257
      8245      8244      8256      8258      8245      8244      8256      8259
      8246      8244      8256      8257      8246      8244      8256      8258
      8246      8244      8256      8259      8247      8250      8251      8252
      8247      8250      8251      8253      8248      8247      8250      8251
      8249      8247      8250      8251      8250      8251      8253      8254
      8250      8251      8253      8255      8250      8251      8253      8303
      8251      8253      8303      8304      8251      8253      8303      8305
      8251      8253      8303      8306      8252      8251      8253      8254
      8252      8251      8253      8255      8252      8251      8253      8303
      8253      8303      8306      8307      8253      8303      8306      8308
      8253      8303      8306      8309      8254      8253      8303      8304
      8254      8253      8303      8305      8254      8253      8303      8306
      8255      8253      8303      8304      8255      8253      8303      8305
      8255      8253      8303      8306      8256      8259      8262      8263
      8256      8259      8262      8264      8256      8259      8262      8265
      8257      8256      8259      8260      8257      8256      8259      8261
      8257      8256      8259      8262      8258      8256      8259      8260
      8258      8256      8259      8261      8258      8256      8259      8262
      8259      8262      8265      8266      8259      8262      8265      8267
      8259      8262      8265      8268      8260      8259      8262      8263
      8260      8259      8262      8264      8260      8259      8262      8265
      8261      8259      8262      8263      8261      8259      8262      8264
      8261      8259      8262      8265      8262      8265      8268      8269
      8262      8265      8268      8270      8262      8265      8268      8271
      8263      8262      8265      8266      8263      8262      8265      8267
      8263      8262      8265      8268      8264      8262      8265      8266
      8264      8262      8265      8267      8264      8262      8265      8268
      8265      8268      8271      8272      8265      8268      8271      8273
      8265      8268      8271      8274      8266      8265      8268      8269
      8266      8265      8268      8270      8266      8265      8268      8271
      8267      8265      8268      8269      8267      8265      8268      8270
      8267      8265      8268      8271      8268      8271      8274      8275
      8268      8271      8274      8276      8269      8268      8271      8272
      8269      8268      8271      8273      8269      8268      8271      8274
      8270      8268      8271      8272      8270      8268      8271      8273
      8270      8268      8271      8274      8271      8274      8276      8277
      8271      8274      8276      8278      8272      8271      8274      8275
      8272      8271      8274      8276      8273      8271      8274      8275
      8273      8271      8274      8276      8274      8276      8278      8279
      8274      8276      8278      8280      8274      8276      8278      8281
      8275      8274      8276      8277      8275      8274      8276      8278
      8276      8278      8281      8282      8276      8278      8281      8283
      8276      8278      8281      8284      8277      8276      8278      8279
      8277      8276      8278      8280      8277      8276      8278      8281
      8278      8281      8284      8285      8278      8281      8284      8286
      8278      8281      8284      8287      8279      8278      8281      8282
      8279      8278      8281      8283      8279      8278      8281      8284
      8280      8278      8281      8282      8280      8278      8281      8283
      8280      8278      8281      8284      8281      8284      8287      8288
      8281      8284      8287      8289      8281      8284      8287      8290
      8282      8281      8284      8285      8282      8281      8284      8286
      8282      8281      8284      8287      8283      8281      8284      8285
      8283      8281      8284      8286      8283      8281      8284      8287
      8284      8287      8290      8291      8284      8287      8290      8292
      8284      8287      8290      8293      8285      8284      8287      8288
      8285      8284      8287      8289      8285      8284      8287      8290
      8286      8284      8287      8288      8286      8284      8287      8289
      8286      8284      8287      8290      8287      8290      8293      8294
      8287      8290      8293      8295      8287      8290      8293      8296
      8288      8287      8290      8291      8288      8287      8290      8292
      8288      8287      8290      8293      8289      8287      8290      8291
      8289      8287      8290      8292      8289      8287      8290      8293
      8290      8293      8296      8297      8290      8293      8296      8298
      8290      8293      8296      8299      8291      8290      8293      8294
      8291      8290      8293      8295      8291      8290      8293      8296
      8292      8290      8293      8294      8292      8290      8293      8295
      8292      8290      8293      8296      8293      8296      8299      8300
      8293      8296      8299      8301      8293      8296      8299      8302
      8294      8293      8296      8297      8294      8293      8296      8298
      8294      8293      8296      8299      8295      8293      8296      8297
      8295      8293      8296      8298      8295      8293      8296      8299
      8297      8296      8299      8300      8297      8296      8299      8301
      8297      8296      8299      8302      8298      8296      8299      8300
      8298      8296      8299      8301      8298      8296      8299      8302
      8303      8306      8309      8310      8303      8306      8309      8311
      8303      8306      8309      8312      8304      8303      8306      8307
      8304      8303      8306      8308      8304      8303      8306      8309
      8305      8303      8306      8307      8305      8303      8306      8308
      8305      8303      8306      8309      8306      8309      8312      8313
      8306      8309      8312      8314      8306      8309      8312      8315
      8307      8306      8309      8310      8307      8306      8309      8311
      8307      8306      8309      8312      8308      8306      8309      8310
      8308      8306      8309      8311      8308      8306      8309      8312
      8309      8312      8315      8316      8309      8312      8315      8317
      8309      8312      8315      8318      8310      8309      8312      8313
      8310      8309      8312      8314      8310      8309      8312      8315
      8311      8309      8312      8313      8311      8309      8312      8314
      8311      8309      8312      8315      8312      8315      8318      8319
      8312      8315      8318      8320      8312      8315      8318      8321
      8313      8312      8315      8316      8313      8312      8315      8317
      8313      8312      8315      8318      8314      8312      8315      8316
      8314      8312      8315      8317      8314      8312      8315      8318
      8315      8318      8321      8322      8315      8318      8321      8323
      8315      8318      8321      8324      8316      8315      8318      8319
      8316      8315      8318      8320      8316      8315      8318      8321
      8317      8315      8318      8319      8317      8315      8318      8320
      8317      8315      8318      8321      8318      8321      8324      8325
      8318      8321      8324      8326      8318      8321      8324      8327
      8319      8318      8321      8322      8319      8318      8321      8323
      8319      8318      8321      8324      8320      8318      8321      8322
      8320      8318      8321      8323      8320      8318      8321      8324
      8321      8324      8327      8328      8321      8324      8327      8329
      8321      8324      8327      8330      8322      8321      8324      8325
      8322      8321      8324      8326      8322      8321      8324      8327
      8323      8321      8324      8325      8323      8321      8324      8326
      8323      8321      8324      8327      8324      8327      8330      8331
      8324      8327      8330      8332      8324      8327      8330      8333
      8325      8324      8327      8328      8325      8324      8327      8329
      8325      8324      8327      8330      8326      8324      8327      8328
      8326      8324      8327      8329      8326      8324      8327      8330
      8327      8330      8333      8334      8327      8330      8333      8335
      8327      8330      8333      8336      8328      8327      8330      8331
      8328      8327      8330      8332      8328      8327      8330      8333
      8329      8327      8330      8331      8329      8327      8330      8332
      8329      8327      8330      8333      8330      8333      8336      8337
      8330      8333      8336      8338      8330      8333      8336      8339
      8331      8330      8333      8334      8331      8330      8333      8335
      8331      8330      8333      8336      8332      8330      8333      8334
      8332      8330      8333      8335      8332      8330      8333      8336
      8333      8336      8339      8340      8333      8336      8339      8341
      8333      8336      8339      8342      8334      8333      8336      8337
      8334      8333      8336      8338      8334      8333      8336      8339
      8335      8333      8336      8337      8335      8333      8336      8338
      8335      8333      8336      8339      8336      8339      8342      8343
      8336      8339      8342      8344      8336      8339      8342      8345
      8337      8336      8339      8340      8337      8336      8339      8341
      8337      8336      8339      8342      8338      8336      8339      8340
      8338      8336      8339      8341      8338      8336      8339      8342
      8340      8339      8342      8343      8340      8339      8342      8344
      8340      8339      8342      8345      8341      8339      8342      8343
      8341      8339      8342      8344      8341      8339      8342      8345
      2147      2151      2154      2155      2147      2151      2154      2185
      2147      2193      2190      2185      2147      2193      2190      2191
      2147      2193      2190      2192      2148      2147      2149      2150
      2148      2147      2151      2152      2148      2147      2151      2153
      2148      2147      2151      2154      2148      2147      2193      2190
      2148      2147      2193      2194      2148      2147      2193      2195
      2149      2147      2151      2152      2149      2147      2151      2153
      2149      2147      2151      2154      2149      2147      2193      2190
      2149      2147      2193      2194      2149      2147      2193      2195
      2150      2149      2147      2151      2150      2149      2147      2193
      2151      2147      2193      2190      2151      2147      2193      2194
      2151      2147      2193      2195      2151      2154      2155      2156
      2151      2154      2155      2157      2151      2154      2185      2183
      2151      2154      2185      2186      2151      2154      2185      2190
      2152      2151      2147      2193      2152      2151      2154      2155
      2152      2151      2154      2185      2153      2151      2147      2193
      2153      2151      2154      2155      2153      2151      2154      2185
      2154      2151      2147      2193      2154      2155      2157      2158
      2154      2155      2157      2159      2154      2155      2157      2160
      2154      2185      2183      2160      2154      2185      2183      2180
      2154      2185      2183      2184      2154      2185      2186      2187
      2154      2185      2186      2188      2154      2185      2186      2189
      2154      2185      2190      2191      2154      2185      2190      2192
      2154      2185      2190      2193      2155      2154      2185      2183
      2155      2154      2185      2186      2155      2154      2185      2190
      2155      2157      2160      2161      2155      2157      2160      2162
      2155      2157      2160      2183      2156      2155      2154      2185
      2156      2155      2157      2158      2156      2155      2157      2159
      2156      2155      2157      2160      2157      2155      2154      2185
      2157      2160      2162      2163      2157      2160      2162      2164
      2157      2160      2162      2172      2157      2160      2183      2180
      2157      2160      2183      2184      2157      2160      2183      2185
      2158      2157      2160      2161      2158      2157      2160      2162
      2158      2157      2160      2183      2159      2157      2160      2161
      2159      2157      2160      2162      2159      2157      2160      2183
      2160      2162      2164      2165      2160      2162      2164      2166
      2160      2162      2164      2167      2160      2162      2172      2170
      2160      2162      2172      2173      2160      2162      2172      2177
      2160      2183      2180      2177      2160      2183      2180      2181
      2160      2183      2180      2182      2160      2183      2185      2186
      2160      2183      2185      2190      2161      2160      2162      2163
      2161      2160      2162      2164      2161      2160      2162      2172
      2161      2160      2183      2180      2161      2160      2183      2184
      2161      2160      2183      2185      2162      2160      2183      2180
      2162      2160      2183      2184      2162      2160      2183      2185
      2162      2164      2167      2168      2162      2164      2167      2169
      2162      2164      2167      2170      2162      2172      2170      2167
      2162      2172      2170      2171      2162      2172      2170      2196
      2162      2172      2173      2174      2162      2172      2173      2175
      2162      2172      2173      2176      2162      2172      2177      2178
      2162      2172      2177      2179      2162      2172      2177      2180
      2163      2162      2160      2183      2163      2162      2164      2165
      2163      2162      2164      2166      2163      2162      2164      2167
      2163      2162      2172      2170      2163      2162      2172      2173
      2163      2162      2172      2177      2164      2162      2160      2183
      2164      2162      2172      2170      2164      2162      2172      2173
      2164      2162      2172      2177      2164      2167      2170      2171
      2164      2167      2170      2172      2164      2167      2170      2196
      2165      2164      2162      2172      2165      2164      2167      2168
      2165      2164      2167      2169      2165      2164      2167      2170
      2166      2164      2162      2172      2166      2164      2167      2168
      2166      2164      2167      2169      2166      2164      2167      2170
      2167      2164      2162      2172      2167      2170      2172      2173
      2167      2170      2172      2177      2167      2170      2196      2197
      2167      2170      2196      2198      2167      2170      2196      2202
      2168      2167      2170      2171      2168      2167      2170      2172
      2168      2167      2170      2196      2169      2167      2170      2171
      2169      2167      2170      2172      2169      2167      2170      2196
      2170      2172      2173      2174      2170      2172      2173      2175
      2170      2172      2173      2176      2170      2172      2177      2178
      2170      2172      2177      2179      2170      2172      2177      2180
      2170      2196      2198      2199      2170      2196      2198      2200
      2170      2196      2198      2201      2170      2196      2202      2203
      2170      2196      2202      2204      2170      2196      2202      2205
      2171      2170      2172      2173      2171      2170      2172      2177
      2171      2170      2196      2197      2171      2170      2196      2198
      2171      2170      2196      2202      2172      2162      2160      2183
      2172      2170      2196      2197      2172      2170      2196      2198
      2172      2170      2196      2202      2172      2177      2180      2181
      2172      2177      2180      2182      2172      2177      2180      2183
      2173      2172      2170      2196      2173      2172      2177      2178
      2173      2172      2177      2179      2173      2172      2177      2180
      2174      2173      2172      2177      2175      2173      2172      2177
      2176      2173      2172      2177      2177      2172      2170      2196
      2177      2180      2183      2184      2177      2180      2183      2185
      2178      2177      2180      2181      2178      2177      2180      2182
      2178      2177      2180      2183      2179      2177      2180      2181
      2179      2177      2180      2182      2179      2177      2180      2183
      2180      2183      2185      2186      2180      2183      2185      2190
      2181      2180      2183      2184      2181      2180      2183      2185
      2182      2180      2183      2184      2182      2180      2183      2185
      2183      2185      2186      2187      2183      2185      2186      2188
      2183      2185      2186      2189      2183      2185      2190      2191
      2183      2185      2190      2192      2183      2185      2190      2193
      2184      2183      2185      2186      2184      2183      2185      2190
      2185      2190      2193      2194      2185      2190      2193      2195
      2186      2185      2190      2191      2186      2185      2190      2192
      2186      2185      2190      2193      2187      2186      2185      2190
      2188      2186      2185      2190      2189      2186      2185      2190
      2191      2190      2193      2194      2191      2190      2193      2195
      2192      2190      2193      2194      2192      2190      2193      2195
      2196      2202      2205      2206      2196      2202      2205      2207
      2196      2202      2205      2208      2197      2196      2198      2199
      2197      2196      2198      2200      2197      2196      2198      2201
      2197      2196      2202      2203      2197      2196      2202      2204
      2197      2196      2202      2205      2198      2196      2202      2203
      2198      2196      2202      2204      2198      2196      2202      2205
      2199      2198      2196      2202      2200      2198      2196      2202
      2201      2198      2196      2202      2202      2205      2208      2209
      2202      2205      2208      2210      2202      2205      2208      2211
      2203      2202      2205      2206      2203      2202      2205      2207
      2203      2202      2205      2208      2204      2202      2205      2206
      2204      2202      2205      2207      2204      2202      2205      2208
      2205      2208      2211      2212      2205      2208      2211      2213
      2205      2208      2211      2217      2206      2205      2208      2209
      2206      2205      2208      2210      2206      2205      2208      2211
      2207      2205      2208      2209      2207      2205      2208      2210
      2207      2205      2208      2211      2208      2211      2213      2214
      2208      2211      2213      2215      2208      2211      2213      2216
      2208      2211      2217      2218      2208      2211      2217      2219
      2208      2211      2217      2220      2209      2208      2211      2212
      2209      2208      2211      2213      2209      2208      2211      2217
      2210      2208      2211      2212      2210      2208      2211      2213
      2210      2208      2211      2217      2212      2211      2213      2214
      2212      2211      2213      2215      2212      2211      2213      2216
      2212      2211      2217      2218      2212      2211      2217      2219
      2212      2211      2217      2220      2213      2211      2217      2218
      2213      2211      2217      2219      2213      2211      2217      2220
      2214      2213      2211      2217      2215      2213      2211      2217
      2216      2213      2211      2217      8346      8350      8353      8354
      8346      8350      8353      8355      8346      8350      8353      8360
      8347      8346      8350      8351      8347      8346      8350      8352
      8347      8346      8350      8353      8348      8346      8350      8351
      8348      8346      8350      8352      8348      8346      8350      8353
      8349      8346      8350      8351      8349      8346      8350      8352
      8349      8346      8350      8353      8350      8353      8360      8356
      8351      8350      8353      8354      8351      8350      8353      8355
      8351      8350      8353      8360      8352      8350      8353      8354
      8352      8350      8353      8355      8352      8350      8353      8360
      8353      8360      8356      8357      8353      8360      8356      8358
      8353      8360      8356      8359      8354      8353      8360      8356
      8355      8353      8360      8356      8356      8359      8361      8362
      8356      8359      8361      8363      8356      8359      8361      8364
      8357      8356      8359      8361      8358      8356      8359      8361
      8359      8361      8364      8365      8359      8361      8364      8366
      8359      8361      8364      8372      8360      8356      8359      8361
      8361      8364      8366      8367      8361      8364      8372      8373
      8361      8364      8372      8374      8361      8364      8372      8375
      8362      8361      8364      8365      8362      8361      8364      8366
      8362      8361      8364      8372      8363      8361      8364      8365
      8363      8361      8364      8366      8363      8361      8364      8372
      8364      8366      8367      8368      8364      8366      8367      8369
      8364      8372      8375      8376      8365      8364      8366      8367
      8365      8364      8372      8373      8365      8364      8372      8374
      8365      8364      8372      8375      8366      8364      8372      8373
      8366      8364      8372      8374      8366      8364      8372      8375
      8366      8367      8369      8370      8366      8367      8369      8371
      8366      8367      8369      8381      8367      8366      8364      8372
      8367      8369      8381      8382      8367      8369      8381      8383
      8367      8369      8381      8384      8368      8367      8369      8370
      8368      8367      8369      8371      8368      8367      8369      8381
      8369      8381      8384      8385      8369      8381      8384      8386
      8369      8381      8384      8387      8370      8369      8381      8382
      8370      8369      8381      8383      8370      8369      8381      8384
      8371      8369      8381      8382      8371      8369      8381      8383
      8371      8369      8381      8384      8372      8375      8376      8377
      8372      8375      8376      8378      8373      8372      8375      8376
      8374      8372      8375      8376      8375      8376      8378      8379
      8375      8376      8378      8380      8375      8376      8378      8428
      8376      8378      8428      8429      8376      8378      8428      8430
      8376      8378      8428      8431      8377      8376      8378      8379
      8377      8376      8378      8380      8377      8376      8378      8428
      8378      8428      8431      8432      8378      8428      8431      8433
      8378      8428      8431      8434      8379      8378      8428      8429
      8379      8378      8428      8430      8379      8378      8428      8431
      8380      8378      8428      8429      8380      8378      8428      8430
      8380      8378      8428      8431      8381      8384      8387      8388
      8381      8384      8387      8389      8381      8384      8387      8390
      8382      8381      8384      8385      8382      8381      8384      8386
      8382      8381      8384      8387      8383      8381      8384      8385
      8383      8381      8384      8386      8383      8381      8384      8387
      8384      8387      8390      8391      8384      8387      8390      8392
      8384      8387      8390      8393      8385      8384      8387      8388
      8385      8384      8387      8389      8385      8384      8387      8390
      8386      8384      8387      8388      8386      8384      8387      8389
      8386      8384      8387      8390      8387      8390      8393      8394
      8387      8390      8393      8395      8387      8390      8393      8396
      8388      8387      8390      8391      8388      8387      8390      8392
      8388      8387      8390      8393      8389      8387      8390      8391
      8389      8387      8390      8392      8389      8387      8390      8393
      8390      8393      8396      8397      8390      8393      8396      8398
      8390      8393      8396      8399      8391      8390      8393      8394
      8391      8390      8393      8395      8391      8390      8393      8396
      8392      8390      8393      8394      8392      8390      8393      8395
      8392      8390      8393      8396      8393      8396      8399      8400
      8393      8396      8399      8401      8394      8393      8396      8397
      8394      8393      8396      8398      8394      8393      8396      8399
      8395      8393      8396      8397      8395      8393      8396      8398
      8395      8393      8396      8399      8396      8399      8401      8402
      8396      8399      8401      8403      8397      8396      8399      8400
      8397      8396      8399      8401      8398      8396      8399      8400
      8398      8396      8399      8401      8399      8401      8403      8404
      8399      8401      8403      8405      8399      8401      8403      8406
      8400      8399      8401      8402      8400      8399      8401      8403
      8401      8403      8406      8407      8401      8403      8406      8408
      8401      8403      8406      8409      8402      8401      8403      8404
      8402      8401      8403      8405      8402      8401      8403      8406
      8403      8406      8409      8410      8403      8406      8409      8411
      8403      8406      8409      8412      8404      8403      8406      8407
      8404      8403      8406      8408      8404      8403      8406      8409
      8405      8403      8406      8407      8405      8403      8406      8408
      8405      8403      8406      8409      8406      8409      8412      8413
      8406      8409      8412      8414      8406      8409      8412      8415
      8407      8406      8409      8410      8407      8406      8409      8411
      8407      8406      8409      8412      8408      8406      8409      8410
      8408      8406      8409      8411      8408      8406      8409      8412
      8409      8412      8415      8416      8409      8412      8415      8417
      8409      8412      8415      8418      8410      8409      8412      8413
      8410      8409      8412      8414      8410      8409      8412      8415
      8411      8409      8412      8413      8411      8409      8412      8414
      8411      8409      8412      8415      8412      8415      8418      8419
      8412      8415      8418      8420      8412      8415      8418      8421
      8413      8412      8415      8416      8413      8412      8415      8417
      8413      8412      8415      8418      8414      8412      8415      8416
      8414      8412      8415      8417      8414      8412      8415      8418
      8415      8418      8421      8422      8415      8418      8421      8423
      8415      8418      8421      8424      8416      8415      8418      8419
      8416      8415      8418      8420      8416      8415      8418      8421
      8417      8415      8418      8419      8417      8415      8418      8420
      8417      8415      8418      8421      8418      8421      8424      8425
      8418      8421      8424      8426      8418      8421      8424      8427
      8419      8418      8421      8422      8419      8418      8421      8423
      8419      8418      8421      8424      8420      8418      8421      8422
      8420      8418      8421      8423      8420      8418      8421      8424
      8422      8421      8424      8425      8422      8421      8424      8426
      8422      8421      8424      8427      8423      8421      8424      8425
      8423      8421      8424      8426      8423      8421      8424      8427
      8428      8431      8434      8435      8428      8431      8434      8436
      8428      8431      8434      8437      8429      8428      8431      8432
      8429      8428      8431      8433      8429      8428      8431      8434
      8430      8428      8431      8432      8430      8428      8431      8433
      8430      8428      8431      8434      8431      8434      8437      8438
      8431      8434      8437      8439      8431      8434      8437      8440
      8432      8431      8434      8435      8432      8431      8434      8436
      8432      8431      8434      8437      8433      8431      8434      8435
      8433      8431      8434      8436      8433      8431      8434      8437
      8434      8437      8440      8441      8434      8437      8440      8442
      8434      8437      8440      8443      8435      8434      8437      8438
      8435      8434      8437      8439      8435      8434      8437      8440
      8436      8434      8437      8438      8436      8434      8437      8439
      8436      8434      8437      8440      8437      8440      8443      8444
      8437      8440      8443      8445      8437      8440      8443      8446
      8438      8437      8440      8441      8438      8437      8440      8442
      8438      8437      8440      8443      8439      8437      8440      8441
      8439      8437      8440      8442      8439      8437      8440      8443
      8440      8443      8446      8447      8440      8443      8446      8448
      8440      8443      8446      8449      8441      8440      8443      8444
      8441      8440      8443      8445      8441      8440      8443      8446
      8442      8440      8443      8444      8442      8440      8443      8445
      8442      8440      8443      8446      8443      8446      8449      8450
      8443      8446      8449      8451      8443      8446      8449      8452
      8444      8443      8446      8447      8444      8443      8446      8448
      8444      8443      8446      8449      8445      8443      8446      8447
      8445      8443      8446      8448      8445      8443      8446      8449
      8446      8449      8452      8453      8446      8449      8452      8454
      8446      8449      8452      8455      8447      8446      8449      8450
      8447      8446      8449      8451      8447      8446      8449      8452
      8448      8446      8449      8450      8448      8446      8449      8451
      8448      8446      8449      8452      8449      8452      8455      8456
      8449      8452      8455      8457      8449      8452      8455      8458
      8450      8449      8452      8453      8450      8449      8452      8454
      8450      8449      8452      8455      8451      8449      8452      8453
      8451      8449      8452      8454      8451      8449      8452      8455
      8452      8455      8458      8459      8452      8455      8458      8460
      8452      8455      8458      8461      8453      8452      8455      8456
      8453      8452      8455      8457      8453      8452      8455      8458
      8454      8452      8455      8456      8454      8452      8455      8457
      8454      8452      8455      8458      8455      8458      8461      8462
      8455      8458      8461      8463      8455      8458      8461      8464
      8456      8455      8458      8459      8456      8455      8458      8460
      8456      8455      8458      8461      8457      8455      8458      8459
      8457      8455      8458      8460      8457      8455      8458      8461
      8458      8461      8464      8465      8458      8461      8464      8466
      8458      8461      8464      8467      8459      8458      8461      8462
      8459      8458      8461      8463      8459      8458      8461      8464
      8460      8458      8461      8462      8460      8458      8461      8463
      8460      8458      8461      8464      8461      8464      8467      8468
      8461      8464      8467      8469      8461      8464      8467      8470
      8462      8461      8464      8465      8462      8461      8464      8466
      8462      8461      8464      8467      8463      8461      8464      8465
      8463      8461      8464      8466      8463      8461      8464      8467
      8465      8464      8467      8468      8465      8464      8467      8469
      8465      8464      8467      8470      8466      8464      8467      8468
      8466      8464      8467      8469      8466      8464      8467      8470
     21323     21324     21339     21340     21323     21324     21339     21341
     21323     21324     21339     21345     21324     21323     21327     21328
     21324     21323     21327     21329     21324     21323     21327     21330
     21324     21323     21331     21332     21324     21323     21331     21333
     21324     21323     21331     21334     21324     21323     21335     21336
     21324     21323     21335     21337     21324     21323     21335     21338
     21324     21339     21345     21342     21325     21324     21323     21327
     21325     21324     21323     21331     21325     21324     21323     21335
     21325     21324     21339     21340     21325     21324     21339     21341
     21325     21324     21339     21345     21326     21324     21323     21327
     21326     21324     21323     21331     21326     21324     21323     21335
     21326     21324     21339     21340     21326     21324     21339     21341
     21326     21324     21339     21345     21327     21323     21324     21339
     21327     21323     21331     21332     21327     21323     21331     21333
     21327     21323     21331     21334     21327     21323     21335     21336
     21327     21323     21335     21337     21327     21323     21335     21338
     21328     21327     21323     21331     21328     21327     21323     21335
     21329     21327     21323     21331     21329     21327     21323     21335
     21330     21327     21323     21331     21330     21327     21323     21335
     21331     21323     21324     21339     21331     21323     21335     21336
     21331     21323     21335     21337     21331     21323     21335     21338
     21332     21331     21323     21335     21333     21331     21323     21335
     21334     21331     21323     21335     21335     21323     21324     21339
     21339     21345     21342     21343     21339     21345     21342     21344
     21339     21345     21342     21346     21340     21339     21345     21342
     21341     21339     21345     21342     21342     21346     21347     21348
     21342     21346     21347     21349     21342     21346     21347     21350
     21343     21342     21346     21347     21344     21342     21346     21347
     21345     21342     21346     21347     21346     21347     21350     21351
     21346     21347     21350     21352     21346     21347     21350     21358
     21347     21350     21352     21353     21347     21350     21358     21359
     21347     21350     21358     21360     21347     21350     21358     21361
     21348     21347     21350     21351     21348     21347     21350     21352
     21348     21347     21350     21358     21349     21347     21350     21351
     21349     21347     21350     21352     21349     21347     21350     21358
     21350     21352     21353     21354     21350     21352     21353     21355
     21350     21358     21361     21362     21351     21350     21352     21353
     21351     21350     21358     21359     21351     21350     21358     21360
     21351     21350     21358     21361     21352     21350     21358     21359
     21352     21350     21358     21360     21352     21350     21358     21361
     21352     21353     21355     21356     21352     21353     21355     21357
     21352     21353     21355     21367     21353     21352     21350     21358
     21353     21355     21367     21368     21353     21355     21367     21369
     21353     21355     21367     21370     21354     21353     21355     21356
     21354     21353     21355     21357     21354     21353     21355     21367
     21355     21367     21370     21371     21355     21367     21370     21372
     21355     21367     21370     21373     21356     21355     21367     21368
     21356     21355     21367     21369     21356     21355     21367     21370
     21357     21355     21367     21368     21357     21355     21367     21369
     21357     21355     21367     21370     21358     21361     21362     21363
     21358     21361     21362     21364     21359     21358     21361     21362
     21360     21358     21361     21362     21361     21362     21364     21365
     21361     21362     21364     21366     21361     21362     21364     21414
     21362     21364     21414     21415     21362     21364     21414     21416
     21362     21364     21414     21417     21363     21362     21364     21365
     21363     21362     21364     21366     21363     21362     21364     21414
     21364     21414     21417     21418     21364     21414     21417     21419
     21364     21414     21417     21420     21365     21364     21414     21415
     21365     21364     21414     21416     21365     21364     21414     21417
     21366     21364     21414     21415     21366     21364     21414     21416
     21366     21364     21414     21417     21367     21370     21373     21374
     21367     21370     21373     21375     21367     21370     21373     21376
     21368     21367     21370     21371     21368     21367     21370     21372
     21368     21367     21370     21373     21369     21367     21370     21371
     21369     21367     21370     21372     21369     21367     21370     21373
     21370     21373     21376     21377     21370     21373     21376     21378
     21370     21373     21376     21379     21371     21370     21373     21374
     21371     21370     21373     21375     21371     21370     21373     21376
     21372     21370     21373     21374     21372     21370     21373     21375
     21372     21370     21373     21376     21373     21376     21379     21380
     21373     21376     21379     21381     21373     21376     21379     21382
     21374     21373     21376     21377     21374     21373     21376     21378
     21374     21373     21376     21379     21375     21373     21376     21377
     21375     21373     21376     21378     21375     21373     21376     21379
     21376     21379     21382     21383     21376     21379     21382     21384
     21376     21379     21382     21385     21377     21376     21379     21380
     21377     21376     21379     21381     21377     21376     21379     21382
     21378     21376     21379     21380     21378     21376     21379     21381
     21378     21376     21379     21382     21379     21382     21385     21386
     21379     21382     21385     21387     21380     21379     21382     21383
     21380     21379     21382     21384     21380     21379     21382     21385
     21381     21379     21382     21383     21381     21379     21382     21384
     21381     21379     21382     21385     21382     21385     21387     21388
     21382     21385     21387     21389     21383     21382     21385     21386
     21383     21382     21385     21387     21384     21382     21385     21386
     21384     21382     21385     21387     21385     21387     21389     21390
     21385     21387     21389     21391     21385     21387     21389     21392
     21386     21385     21387     21388     21386     21385     21387     21389
     21387     21389     21392     21393     21387     21389     21392     21394
     21387     21389     21392     21395     21388     21387     21389     21390
     21388     21387     21389     21391     21388     21387     21389     21392
     21389     21392     21395     21396     21389     21392     21395     21397
     21389     21392     21395     21398     21390     21389     21392     21393
     21390     21389     21392     21394     21390     21389     21392     21395
     21391     21389     21392     21393     21391     21389     21392     21394
     21391     21389     21392     21395     21392     21395     21398     21399
     21392     21395     21398     21400     21392     21395     21398     21401
     21393     21392     21395     21396     21393     21392     21395     21397
     21393     21392     21395     21398     21394     21392     21395     21396
     21394     21392     21395     21397     21394     21392     21395     21398
     21395     21398     21401     21402     21395     21398     21401     21403
     21395     21398     21401     21404     21396     21395     21398     21399
     21396     21395     21398     21400     21396     21395     21398     21401
     21397     21395     21398     21399     21397     21395     21398     21400
     21397     21395     21398     21401     21398     21401     21404     21405
     21398     21401     21404     21406     21398     21401     21404     21407
     21399     21398     21401     21402     21399     21398     21401     21403
     21399     21398     21401     21404     21400     21398     21401     21402
     21400     21398     21401     21403     21400     21398     21401     21404
     21401     21404     21407     21408     21401     21404     21407     21409
     21401     21404     21407     21410     21402     21401     21404     21405
     21402     21401     21404     21406     21402     21401     21404     21407
     21403     21401     21404     21405     21403     21401     21404     21406
     21403     21401     21404     21407     21404     21407     21410     21411
     21404     21407     21410     21412     21404     21407     21410     21413
     21405     21404     21407     21408     21405     21404     21407     21409
     21405     21404     21407     21410     21406     21404     21407     21408
     21406     21404     21407     21409     21406     21404     21407     21410
     21408     21407     21410     21411     21408     21407     21410     21412
     21408     21407     21410     21413     21409     21407     21410     21411
     21409     21407     21410     21412     21409     21407     21410     21413
     21414     21417     21420     21421     21414     21417     21420     21422
     21414     21417     21420     21423     21415     21414     21417     21418
     21415     21414     21417     21419     21415     21414     21417     21420
     21416     21414     21417     21418     21416     21414     21417     21419
     21416     21414     21417     21420     21417     21420     21423     21424
     21417     21420     21423     21425     21417     21420     21423     21426
     21418     21417     21420     21421     21418     21417     21420     21422
     21418     21417     21420     21423     21419     21417     21420     21421
     21419     21417     21420     21422     21419     21417     21420     21423
     21420     21423     21426     21427     21420     21423     21426     21428
     21420     21423     21426     21429     21421     21420     21423     21424
     21421     21420     21423     21425     21421     21420     21423     21426
     21422     21420     21423     21424     21422     21420     21423     21425
     21422     21420     21423     21426     21423     21426     21429     21430
     21423     21426     21429     21431     21423     21426     21429     21432
     21424     21423     21426     21427     21424     21423     21426     21428
     21424     21423     21426     21429     21425     21423     21426     21427
     21425     21423     21426     21428     21425     21423     21426     21429
     21426     21429     21432     21433     21426     21429     21432     21434
     21426     21429     21432     21435     21427     21426     21429     21430
     21427     21426     21429     21431     21427     21426     21429     21432
     21428     21426     21429     21430     21428     21426     21429     21431
     21428     21426     21429     21432     21429     21432     21435     21436
     21429     21432     21435     21437     21429     21432     21435     21438
     21430     21429     21432     21433     21430     21429     21432     21434
     21430     21429     21432     21435     21431     21429     21432     21433
     21431     21429     21432     21434     21431     21429     21432     21435
     21432     21435     21438     21439     21432     21435     21438     21440
     21432     21435     21438     21441     21433     21432     21435     21436
     21433     21432     21435     21437     21433     21432     21435     21438
     21434     21432     21435     21436     21434     21432     21435     21437
     21434     21432     21435     21438     21435     21438     21441     21442
     21435     21438     21441     21443     21435     21438     21441     21444
     21436     21435     21438     21439     21436     21435     21438     21440
     21436     21435     21438     21441     21437     21435     21438     21439
     21437     21435     21438     21440     21437     21435     21438     21441
     21438     21441     21444     21445     21438     21441     21444     21446
     21438     21441     21444     21447     21439     21438     21441     21442
     21439     21438     21441     21443     21439     21438     21441     21444
     21440     21438     21441     21442     21440     21438     21441     21443
     21440     21438     21441     21444     21441     21444     21447     21448
     21441     21444     21447     21449     21441     21444     21447     21450
     21442     21441     21444     21445     21442     21441     21444     21446
     21442     21441     21444     21447     21443     21441     21444     21445
     21443     21441     21444     21446     21443     21441     21444     21447
     21444     21447     21450     21451     21444     21447     21450     21452
     21444     21447     21450     21453     21445     21444     21447     21448
     21445     21444     21447     21449     21445     21444     21447     21450
     21446     21444     21447     21448     21446     21444     21447     21449
     21446     21444     21447     21450     21447     21450     21453     21454
     21447     21450     21453     21455     21447     21450     21453     21456
     21448     21447     21450     21451     21448     21447     21450     21452
     21448     21447     21450     21453     21449     21447     21450     21451
     21449     21447     21450     21452     21449     21447     21450     21453
     21451     21450     21453     21454     21451     21450     21453     21455
     21451     21450     21453     21456     21452     21450     21453     21454
     21452     21450     21453     21455     21452     21450     21453     21456
     13297     13301     13303     13304     13297     13301     13303     13305
     13297     13301     13306     13307     13297     13301     13306     13308
     13297     13301     13306     13312     13298     13297     13301     13302
     13298     13297     13301     13303     13298     13297     13301     13306
     13299     13297     13301     13302     13299     13297     13301     13303
     13299     13297     13301     13306     13300     13297     13301     13302
     13300     13297     13301     13303     13300     13297     13301     13306
     13301     13306     13312     13309     13302     13301     13303     13304
     13302     13301     13303     13305     13302     13301     13306     13307
     13302     13301     13306     13308     13302     13301     13306     13312
     13303     13301     13306     13307     13303     13301     13306     13308
     13303     13301     13306     13312     13304     13303     13301     13306
     13305     13303     13301     13306     13306     13312     13309     13310
     13306     13312     13309     13311     13306     13312     13309     13313
     13307     13306     13312     13309     13308     13306     13312     13309
     13309     13313     13314     13315     13309     13313     13314     13316
     13309     13313     13314     13317     13310     13309     13313     13314
     13311     13309     13313     13314     13312     13309     13313     13314
     13313     13314     13317     13318     13313     13314     13317     13319
     13313     13314     13317     13325     13314     13317     13319     13320
     13314     13317     13325     13326     13314     13317     13325     13327
     13314     13317     13325     13328     13315     13314     13317     13318
     13315     13314     13317     13319     13315     13314     13317     13325
     13316     13314     13317     13318     13316     13314     13317     13319
     13316     13314     13317     13325     13317     13319     13320     13321
     13317     13319     13320     13322     13317     13325     13328     13329
     13318     13317     13319     13320     13318     13317     13325     13326
     13318     13317     13325     13327     13318     13317     13325     13328
     13319     13317     13325     13326     13319     13317     13325     13327
     13319     13317     13325     13328     13319     13320     13322     13323
     13319     13320     13322     13324     13319     13320     13322     13334
     13320     13319     13317     13325     13320     13322     13334     13335
     13320     13322     13334     13336     13320     13322     13334     13337
     13321     13320     13322     13323     13321     13320     13322     13324
     13321     13320     13322     13334     13322     13334     13337     13338
     13322     13334     13337     13339     13322     13334     13337     13340
     13323     13322     13334     13335     13323     13322     13334     13336
     13323     13322     13334     13337     13324     13322     13334     13335
     13324     13322     13334     13336     13324     13322     13334     13337
     13325     13328     13329     13330     13325     13328     13329     13331
     13326     13325     13328     13329     13327     13325     13328     13329
     13328     13329     13331     13332     13328     13329     13331     13333
     13328     13329     13331     13381     13329     13331     13381     13382
     13329     13331     13381     13383     13329     13331     13381     13384
     13330     13329     13331     13332     13330     13329     13331     13333
     13330     13329     13331     13381     13331     13381     13384     13385
     13331     13381     13384     13386     13331     13381     13384     13387
     13332     13331     13381     13382     13332     13331     13381     13383
     13332     13331     13381     13384     13333     13331     13381     13382
     13333     13331     13381     13383     13333     13331     13381     13384
     13334     13337     13340     13341     13334     13337     13340     13342
     13334     13337     13340     13343     13335     13334     13337     13338
     13335     13334     13337     13339     13335     13334     13337     13340
     13336     13334     13337     13338     13336     13334     13337     13339
     13336     13334     13337     13340     13337     13340     13343     13344
     13337     13340     13343     13345     13337     13340     13343     13346
     13338     13337     13340     13341     13338     13337     13340     13342
     13338     13337     13340     13343     13339     13337     13340     13341
     13339     13337     13340     13342     13339     13337     13340     13343
     13340     13343     13346     13347     13340     13343     13346     13348
     13340     13343     13346     13349     13341     13340     13343     13344
     13341     13340     13343     13345     13341     13340     13343     13346
     13342     13340     13343     13344     13342     13340     13343     13345
     13342     13340     13343     13346     13343     13346     13349     13350
     13343     13346     13349     13351     13343     13346     13349     13352
     13344     13343     13346     13347     13344     13343     13346     13348
     13344     13343     13346     13349     13345     13343     13346     13347
     13345     13343     13346     13348     13345     13343     13346     13349
     13346     13349     13352     13353     13346     13349     13352     13354
     13347     13346     13349     13350     13347     13346     13349     13351
     13347     13346     13349     13352     13348     13346     13349     13350
     13348     13346     13349     13351     13348     13346     13349     13352
     13349     13352     13354     13355     13349     13352     13354     13356
     13350     13349     13352     13353     13350     13349     13352     13354
     13351     13349     13352     13353     13351     13349     13352     13354
     13352     13354     13356     13357     13352     13354     13356     13358
     13352     13354     13356     13359     13353     13352     13354     13355
     13353     13352     13354     13356     13354     13356     13359     13360
     13354     13356     13359     13361     13354     13356     13359     13362
     13355     13354     13356     13357     13355     13354     13356     13358
     13355     13354     13356     13359     13356     13359     13362     13363
     13356     13359     13362     13364     13356     13359     13362     13365
     13357     13356     13359     13360     13357     13356     13359     13361
     13357     13356     13359     13362     13358     13356     13359     13360
     13358     13356     13359     13361     13358     13356     13359     13362
     13359     13362     13365     13366     13359     13362     13365     13367
     13359     13362     13365     13368     13360     13359     13362     13363
     13360     13359     13362     13364     13360     13359     13362     13365
     13361     13359     13362     13363     13361     13359     13362     13364
     13361     13359     13362     13365     13362     13365     13368     13369
     13362     13365     13368     13370     13362     13365     13368     13371
     13363     13362     13365     13366     13363     13362     13365     13367
     13363     13362     13365     13368     13364     13362     13365     13366
     13364     13362     13365     13367     13364     13362     13365     13368
     13365     13368     13371     13372     13365     13368     13371     13373
     13365     13368     13371     13374     13366     13365     13368     13369
     13366     13365     13368     13370     13366     13365     13368     13371
     13367     13365     13368     13369     13367     13365     13368     13370
     13367     13365     13368     13371     13368     13371     13374     13375
     13368     13371     13374     13376     13368     13371     13374     13377
     13369     13368     13371     13372     13369     13368     13371     13373
     13369     13368     13371     13374     13370     13368     13371     13372
     13370     13368     13371     13373     13370     13368     13371     13374
     13371     13374     13377     13378     13371     13374     13377     13379
     13371     13374     13377     13380     13372     13371     13374     13375
     13372     13371     13374     13376     13372     13371     13374     13377
     13373     13371     13374     13375     13373     13371     13374     13376
     13373     13371     13374     13377     13375     13374     13377     13378
     13375     13374     13377     13379     13375     13374     13377     13380
     13376     13374     13377     13378     13376     13374     13377     13379
     13376     13374     13377     13380     13381     13384     13387     13388
     13381     13384     13387     13389     13381     13384     13387     13390
     13382     13381     13384     13385     13382     13381     13384     13386
     13382     13381     13384     13387     13383     13381     13384     13385
     13383     13381     13384     13386     13383     13381     13384     13387
     13384     13387     13390     13391     13384     13387     13390     13392
     13384     13387     13390     13393     13385     13384     13387     13388
     13385     13384     13387     13389     13385     13384     13387     13390
     13386     13384     13387     13388     13386     13384     13387     13389
     13386     13384     13387     13390     13387     13390     13393     13394
     13387     13390     13393     13395     13387     13390     13393     13396
     13388     13387     13390     13391     13388     13387     13390     13392
     13388     13387     13390     13393     13389     13387     13390     13391
     13389     13387     13390     13392     13389     13387     13390     13393
     13390     13393     13396     13397     13390     13393     13396     13398
     13390     13393     13396     13399     13391     13390     13393     13394
     13391     13390     13393     13395     13391     13390     13393     13396
     13392     13390     13393     13394     13392     13390     13393     13395
     13392     13390     13393     13396     13393     13396     13399     13400
     13393     13396     13399     13401     13393     13396     13399     13402
     13394     13393     13396     13397     13394     13393     13396     13398
     13394     13393     13396     13399     13395     13393     13396     13397
     13395     13393     13396     13398     13395     13393     13396     13399
     13396     13399     13402     13403     13396     13399     13402     13404
     13396     13399     13402     13405     13397     13396     13399     13400
     13397     13396     13399     13401     13397     13396     13399     13402
     13398     13396     13399     13400     13398     13396     13399     13401
     13398     13396     13399     13402     13399     13402     13405     13406
     13399     13402     13405     13407     13399     13402     13405     13408
     13400     13399     13402     13403     13400     13399     13402     13404
     13400     13399     13402     13405     13401     13399     13402     13403
     13401     13399     13402     13404     13401     13399     13402     13405
     13402     13405     13408     13409     13402     13405     13408     13410
     13402     13405     13408     13411     13403     13402     13405     13406
     13403     13402     13405     13407     13403     13402     13405     13408
     13404     13402     13405     13406     13404     13402     13405     13407
     13404     13402     13405     13408     13405     13408     13411     13412
     13405     13408     13411     13413     13405     13408     13411     13414
     13406     13405     13408     13409     13406     13405     13408     13410
     13406     13405     13408     13411     13407     13405     13408     13409
     13407     13405     13408     13410     13407     13405     13408     13411
     13408     13411     13414     13415     13408     13411     13414     13416
     13408     13411     13414     13417     13409     13408     13411     13412
     13409     13408     13411     13413     13409     13408     13411     13414
     13410     13408     13411     13412     13410     13408     13411     13413
     13410     13408     13411     13414     13411     13414     13417     13418
     13411     13414     13417     13419     13411     13414     13417     13420
     13412     13411     13414     13415     13412     13411     13414     13416
     13412     13411     13414     13417     13413     13411     13414     13415
     13413     13411     13414     13416     13413     13411     13414     13417
     13414     13417     13420     13421     13414     13417     13420     13422
     13414     13417     13420     13423     13415     13414     13417     13418
     13415     13414     13417     13419     13415     13414     13417     13420
     13416     13414     13417     13418     13416     13414     13417     13419
     13416     13414     13417     13420     13418     13417     13420     13421
     13418     13417     13420     13422     13418     13417     13420     13423
     13419     13417     13420     13421     13419     13417     13420     13422
     13419     13417     13420     13423     13424     13428     13430     13431
     13424     13428     13430     13432     13424     13428     13433     13434
     13424     13428     13433     13435     13424     13428     13433     13439
     13425     13424     13428     13429     13425     13424     13428     13430
     13425     13424     13428     13433     13426     13424     13428     13429
     13426     13424     13428     13430     13426     13424     13428     13433
     13427     13424     13428     13429     13427     13424     13428     13430
     13427     13424     13428     13433     13428     13433     13439     13436
     13429     13428     13430     13431     13429     13428     13430     13432
     13429     13428     13433     13434     13429     13428     13433     13435
     13429     13428     13433     13439     13430     13428     13433     13434
     13430     13428     13433     13435     13430     13428     13433     13439
     13431     13430     13428     13433     13432     13430     13428     13433
     13433     13439     13436     13437     13433     13439     13436     13438
     13433     13439     13436     13440     13434     13433     13439     13436
     13435     13433     13439     13436     13436     13440     13441     13442
     13436     13440     13441     13443     13436     13440     13441     13444
     13437     13436     13440     13441     13438     13436     13440     13441
     13439     13436     13440     13441     13440     13441     13444     13445
     13440     13441     13444     13446     13440     13441     13444     13452
     13441     13444     13446     13447     13441     13444     13452     13453
     13441     13444     13452     13454     13441     13444     13452     13455
     13442     13441     13444     13445     13442     13441     13444     13446
     13442     13441     13444     13452     13443     13441     13444     13445
     13443     13441     13444     13446     13443     13441     13444     13452
     13444     13446     13447     13448     13444     13446     13447     13449
     13444     13452     13455     13456     13445     13444     13446     13447
     13445     13444     13452     13453     13445     13444     13452     13454
     13445     13444     13452     13455     13446     13444     13452     13453
     13446     13444     13452     13454     13446     13444     13452     13455
     13446     13447     13449     13450     13446     13447     13449     13451
     13446     13447     13449     13461     13447     13446     13444     13452
     13447     13449     13461     13462     13447     13449     13461     13463
     13447     13449     13461     13464     13448     13447     13449     13450
     13448     13447     13449     13451     13448     13447     13449     13461
     13449     13461     13464     13465     13449     13461     13464     13466
     13449     13461     13464     13467     13450     13449     13461     13462
     13450     13449     13461     13463     13450     13449     13461     13464
     13451     13449     13461     13462     13451     13449     13461     13463
     13451     13449     13461     13464     13452     13455     13456     13457
     13452     13455     13456     13458     13453     13452     13455     13456
     13454     13452     13455     13456     13455     13456     13458     13459
     13455     13456     13458     13460     13455     13456     13458     13508
     13456     13458     13508     13509     13456     13458     13508     13510
     13456     13458     13508     13511     13457     13456     13458     13459
     13457     13456     13458     13460     13457     13456     13458     13508
     13458     13508     13511     13512     13458     13508     13511     13513
     13458     13508     13511     13514     13459     13458     13508     13509
     13459     13458     13508     13510     13459     13458     13508     13511
     13460     13458     13508     13509     13460     13458     13508     13510
     13460     13458     13508     13511     13461     13464     13467     13468
     13461     13464     13467     13469     13461     13464     13467     13470
     13462     13461     13464     13465     13462     13461     13464     13466
     13462     13461     13464     13467     13463     13461     13464     13465
     13463     13461     13464     13466     13463     13461     13464     13467
     13464     13467     13470     13471     13464     13467     13470     13472
     13464     13467     13470     13473     13465     13464     13467     13468
     13465     13464     13467     13469     13465     13464     13467     13470
     13466     13464     13467     13468     13466     13464     13467     13469
     13466     13464     13467     13470     13467     13470     13473     13474
     13467     13470     13473     13475     13467     13470     13473     13476
     13468     13467     13470     13471     13468     13467     13470     13472
     13468     13467     13470     13473     13469     13467     13470     13471
     13469     13467     13470     13472     13469     13467     13470     13473
     13470     13473     13476     13477     13470     13473     13476     13478
     13470     13473     13476     13479     13471     13470     13473     13474
     13471     13470     13473     13475     13471     13470     13473     13476
     13472     13470     13473     13474     13472     13470     13473     13475
     13472     13470     13473     13476     13473     13476     13479     13480
     13473     13476     13479     13481     13474     13473     13476     13477
     13474     13473     13476     13478     13474     13473     13476     13479
     13475     13473     13476     13477     13475     13473     13476     13478
     13475     13473     13476     13479     13476     13479     13481     13482
     13476     13479     13481     13483     13477     13476     13479     13480
     13477     13476     13479     13481     13478     13476     13479     13480
     13478     13476     13479     13481     13479     13481     13483     13484
     13479     13481     13483     13485     13479     13481     13483     13486
     13480     13479     13481     13482     13480     13479     13481     13483
     13481     13483     13486     13487     13481     13483     13486     13488
     13481     13483     13486     13489     13482     13481     13483     13484
     13482     13481     13483     13485     13482     13481     13483     13486
     13483     13486     13489     13490     13483     13486     13489     13491
     13483     13486     13489     13492     13484     13483     13486     13487
     13484     13483     13486     13488     13484     13483     13486     13489
     13485     13483     13486     13487     13485     13483     13486     13488
     13485     13483     13486     13489     13486     13489     13492     13493
     13486     13489     13492     13494     13486     13489     13492     13495
     13487     13486     13489     13490     13487     13486     13489     13491
     13487     13486     13489     13492     13488     13486     13489     13490
     13488     13486     13489     13491     13488     13486     13489     13492
     13489     13492     13495     13496     13489     13492     13495     13497
     13489     13492     13495     13498     13490     13489     13492     13493
     13490     13489     13492     13494     13490     13489     13492     13495
     13491     13489     13492     13493     13491     13489     13492     13494
     13491     13489     13492     13495     13492     13495     13498     13499
     13492     13495     13498     13500     13492     13495     13498     13501
     13493     13492     13495     13496     13493     13492     13495     13497
     13493     13492     13495     13498     13494     13492     13495     13496
     13494     13492     13495     13497     13494     13492     13495     13498
     13495     13498     13501     13502     13495     13498     13501     13503
     13495     13498     13501     13504     13496     13495     13498     13499
     13496     13495     13498     13500     13496     13495     13498     13501
     13497     13495     13498     13499     13497     13495     13498     13500
     13497     13495     13498     13501     13498     13501     13504     13505
     13498     13501     13504     13506     13498     13501     13504     13507
     13499     13498     13501     13502     13499     13498     13501     13503
     13499     13498     13501     13504     13500     13498     13501     13502
     13500     13498     13501     13503     13500     13498     13501     13504
     13502     13501     13504     13505     13502     13501     13504     13506
     13502     13501     13504     13507     13503     13501     13504     13505
     13503     13501     13504     13506     13503     13501     13504     13507
     13508     13511     13514     13515     13508     13511     13514     13516
     13508     13511     13514     13517     13509     13508     13511     13512
     13509     13508     13511     13513     13509     13508     13511     13514
     13510     13508     13511     13512     13510     13508     13511     13513
     13510     13508     13511     13514     13511     13514     13517     13518
     13511     13514     13517     13519     13511     13514     13517     13520
     13512     13511     13514     13515     13512     13511     13514     13516
     13512     13511     13514     13517     13513     13511     13514     13515
     13513     13511     13514     13516     13513     13511     13514     13517
     13514     13517     13520     13521     13514     13517     13520     13522
     13514     13517     13520     13523     13515     13514     13517     13518
     13515     13514     13517     13519     13515     13514     13517     13520
     13516     13514     13517     13518     13516     13514     13517     13519
     13516     13514     13517     13520     13517     13520     13523     13524
     13517     13520     13523     13525     13517     13520     13523     13526
     13518     13517     13520     13521     13518     13517     13520     13522
     13518     13517     13520     13523     13519     13517     13520     13521
     13519     13517     13520     13522     13519     13517     13520     13523
     13520     13523     13526     13527     13520     13523     13526     13528
     13520     13523     13526     13529     13521     13520     13523     13524
     13521     13520     13523     13525     13521     13520     13523     13526
     13522     13520     13523     13524     13522     13520     13523     13525
     13522     13520     13523     13526     13523     13526     13529     13530
     13523     13526     13529     13531     13523     13526     13529     13532
     13524     13523     13526     13527     13524     13523     13526     13528
     13524     13523     13526     13529     13525     13523     13526     13527
     13525     13523     13526     13528     13525     13523     13526     13529
     13526     13529     13532     13533     13526     13529     13532     13534
     13526     13529     13532     13535     13527     13526     13529     13530
     13527     13526     13529     13531     13527     13526     13529     13532
     13528     13526     13529     13530     13528     13526     13529     13531
     13528     13526     13529     13532     13529     13532     13535     13536
     13529     13532     13535     13537     13529     13532     13535     13538
     13530     13529     13532     13533     13530     13529     13532     13534
     13530     13529     13532     13535     13531     13529     13532     13533
     13531     13529     13532     13534     13531     13529     13532     13535
     13532     13535     13538     13539     13532     13535     13538     13540
     13532     13535     13538     13541     13533     13532     13535     13536
     13533     13532     13535     13537     13533     13532     13535     13538
     13534     13532     13535     13536     13534     13532     13535     13537
     13534     13532     13535     13538     13535     13538     13541     13542
     13535     13538     13541     13543     13535     13538     13541     13544
     13536     13535     13538     13539     13536     13535     13538     13540
     13536     13535     13538     13541     13537     13535     13538     13539
     13537     13535     13538     13540     13537     13535     13538     13541
     13538     13541     13544     13545     13538     13541     13544     13546
     13538     13541     13544     13547     13539     13538     13541     13542
     13539     13538     13541     13543     13539     13538     13541     13544
     13540     13538     13541     13542     13540     13538     13541     13543
     13540     13538     13541     13544     13541     13544     13547     13548
     13541     13544     13547     13549     13541     13544     13547     13550
     13542     13541     13544     13545     13542     13541     13544     13546
     13542     13541     13544     13547     13543     13541     13544     13545
     13543     13541     13544     13546     13543     13541     13544     13547
     13545     13544     13547     13548     13545     13544     13547     13549
     13545     13544     13547     13550     13546     13544     13547     13548
     13546     13544     13547     13549     13546     13544     13547     13550
     21457     21458     21473     21474     21457     21458     21473     21475
     21457     21458     21473     21479     21458     21457     21461     21462
     21458     21457     21461     21463     21458     21457     21461     21464
     21458     21457     21465     21466     21458     21457     21465     21467
     21458     21457     21465     21468     21458     21457     21469     21470
     21458     21457     21469     21471     21458     21457     21469     21472
     21458     21473     21479     21476     21459     21458     21457     21461
     21459     21458     21457     21465     21459     21458     21457     21469
     21459     21458     21473     21474     21459     21458     21473     21475
     21459     21458     21473     21479     21460     21458     21457     21461
     21460     21458     21457     21465     21460     21458     21457     21469
     21460     21458     21473     21474     21460     21458     21473     21475
     21460     21458     21473     21479     21461     21457     21458     21473
     21461     21457     21465     21466     21461     21457     21465     21467
     21461     21457     21465     21468     21461     21457     21469     21470
     21461     21457     21469     21471     21461     21457     21469     21472
     21462     21461     21457     21465     21462     21461     21457     21469
     21463     21461     21457     21465     21463     21461     21457     21469
     21464     21461     21457     21465     21464     21461     21457     21469
     21465     21457     21458     21473     21465     21457     21469     21470
     21465     21457     21469     21471     21465     21457     21469     21472
     21466     21465     21457     21469     21467     21465     21457     21469
     21468     21465     21457     21469     21469     21457     21458     21473
     21473     21479     21476     21477     21473     21479     21476     21478
     21473     21479     21476     21480     21474     21473     21479     21476
     21475     21473     21479     21476     21476     21480     21481     21482
     21476     21480     21481     21483     21476     21480     21481     21484
     21477     21476     21480     21481     21478     21476     21480     21481
     21479     21476     21480     21481     21480     21481     21484     21485
     21480     21481     21484     21486     21480     21481     21484     21492
     21481     21484     21486     21487     21481     21484     21492     21493
     21481     21484     21492     21494     21481     21484     21492     21495
     21482     21481     21484     21485     21482     21481     21484     21486
     21482     21481     21484     21492     21483     21481     21484     21485
     21483     21481     21484     21486     21483     21481     21484     21492
     21484     21486     21487     21488     21484     21486     21487     21489
     21484     21492     21495     21496     21485     21484     21486     21487
     21485     21484     21492     21493     21485     21484     21492     21494
     21485     21484     21492     21495     21486     21484     21492     21493
     21486     21484     21492     21494     21486     21484     21492     21495
     21486     21487     21489     21490     21486     21487     21489     21491
     21486     21487     21489     21501     21487     21486     21484     21492
     21487     21489     21501     21502     21487     21489     21501     21503
     21487     21489     21501     21504     21488     21487     21489     21490
     21488     21487     21489     21491     21488     21487     21489     21501
     21489     21501     21504     21505     21489     21501     21504     21506
     21489     21501     21504     21507     21490     21489     21501     21502
     21490     21489     21501     21503     21490     21489     21501     21504
     21491     21489     21501     21502     21491     21489     21501     21503
     21491     21489     21501     21504     21492     21495     21496     21497
     21492     21495     21496     21498     21493     21492     21495     21496
     21494     21492     21495     21496     21495     21496     21498     21499
     21495     21496     21498     21500     21495     21496     21498     21548
     21496     21498     21548     21549     21496     21498     21548     21550
     21496     21498     21548     21551     21497     21496     21498     21499
     21497     21496     21498     21500     21497     21496     21498     21548
     21498     21548     21551     21552     21498     21548     21551     21553
     21498     21548     21551     21554     21499     21498     21548     21549
     21499     21498     21548     21550     21499     21498     21548     21551
     21500     21498     21548     21549     21500     21498     21548     21550
     21500     21498     21548     21551     21501     21504     21507     21508
     21501     21504     21507     21509     21501     21504     21507     21510
     21502     21501     21504     21505     21502     21501     21504     21506
     21502     21501     21504     21507     21503     21501     21504     21505
     21503     21501     21504     21506     21503     21501     21504     21507
     21504     21507     21510     21511     21504     21507     21510     21512
     21504     21507     21510     21513     21505     21504     21507     21508
     21505     21504     21507     21509     21505     21504     21507     21510
     21506     21504     21507     21508     21506     21504     21507     21509
     21506     21504     21507     21510     21507     21510     21513     21514
     21507     21510     21513     21515     21507     21510     21513     21516
     21508     21507     21510     21511     21508     21507     21510     21512
     21508     21507     21510     21513     21509     21507     21510     21511
     21509     21507     21510     21512     21509     21507     21510     21513
     21510     21513     21516     21517     21510     21513     21516     21518
     21510     21513     21516     21519     21511     21510     21513     21514
     21511     21510     21513     21515     21511     21510     21513     21516
     21512     21510     21513     21514     21512     21510     21513     21515
     21512     21510     21513     21516     21513     21516     21519     21520
     21513     21516     21519     21521     21514     21513     21516     21517
     21514     21513     21516     21518     21514     21513     21516     21519
     21515     21513     21516     21517     21515     21513     21516     21518
     21515     21513     21516     21519     21516     21519     21521     21522
     21516     21519     21521     21523     21517     21516     21519     21520
     21517     21516     21519     21521     21518     21516     21519     21520
     21518     21516     21519     21521     21519     21521     21523     21524
     21519     21521     21523     21525     21519     21521     21523     21526
     21520     21519     21521     21522     21520     21519     21521     21523
     21521     21523     21526     21527     21521     21523     21526     21528
     21521     21523     21526     21529     21522     21521     21523     21524
     21522     21521     21523     21525     21522     21521     21523     21526
     21523     21526     21529     21530     21523     21526     21529     21531
     21523     21526     21529     21532     21524     21523     21526     21527
     21524     21523     21526     21528     21524     21523     21526     21529
     21525     21523     21526     21527     21525     21523     21526     21528
     21525     21523     21526     21529     21526     21529     21532     21533
     21526     21529     21532     21534     21526     21529     21532     21535
     21527     21526     21529     21530     21527     21526     21529     21531
     21527     21526     21529     21532     21528     21526     21529     21530
     21528     21526     21529     21531     21528     21526     21529     21532
     21529     21532     21535     21536     21529     21532     21535     21537
     21529     21532     21535     21538     21530     21529     21532     21533
     21530     21529     21532     21534     21530     21529     21532     21535
     21531     21529     21532     21533     21531     21529     21532     21534
     21531     21529     21532     21535     21532     21535     21538     21539
     21532     21535     21538     21540     21532     21535     21538     21541
     21533     21532     21535     21536     21533     21532     21535     21537
     21533     21532     21535     21538     21534     21532     21535     21536
     21534     21532     21535     21537     21534     21532     21535     21538
     21535     21538     21541     21542     21535     21538     21541     21543
     21535     21538     21541     21544     21536     21535     21538     21539
     21536     21535     21538     21540     21536     21535     21538     21541
     21537     21535     21538     21539     21537     21535     21538     21540
     21537     21535     21538     21541     21538     21541     21544     21545
     21538     21541     21544     21546     21538     21541     21544     21547
     21539     21538     21541     21542     21539     21538     21541     21543
     21539     21538     21541     21544     21540     21538     21541     21542
     21540     21538     21541     21543     21540     21538     21541     21544
     21542     21541     21544     21545     21542     21541     21544     21546
     21542     21541     21544     21547     21543     21541     21544     21545
     21543     21541     21544     21546     21543     21541     21544     21547
     21548     21551     21554     21555     21548     21551     21554     21556
     21548     21551     21554     21557     21549     21548     21551     21552
     21549     21548     21551     21553     21549     21548     21551     21554
     21550     21548     21551     21552     21550     21548     21551     21553
     21550     21548     21551     21554     21551     21554     21557     21558
     21551     21554     21557     21559     21551     21554     21557     21560
     21552     21551     21554     21555     21552     21551     21554     21556
     21552     21551     21554     21557     21553     21551     21554     21555
     21553     21551     21554     21556     21553     21551     21554     21557
     21554     21557     21560     21561     21554     21557     21560     21562
     21554     21557     21560     21563     21555     21554     21557     21558
     21555     21554     21557     21559     21555     21554     21557     21560
     21556     21554     21557     21558     21556     21554     21557     21559
     21556     21554     21557     21560     21557     21560     21563     21564
     21557     21560     21563     21565     21557     21560     21563     21566
     21558     21557     21560     21561     21558     21557     21560     21562
     21558     21557     21560     21563     21559     21557     21560     21561
     21559     21557     21560     21562     21559     21557     21560     21563
     21560     21563     21566     21567     21560     21563     21566     21568
     21560     21563     21566     21569     21561     21560     21563     21564
     21561     21560     21563     21565     21561     21560     21563     21566
     21562     21560     21563     21564     21562     21560     21563     21565
     21562     21560     21563     21566     21563     21566     21569     21570
     21563     21566     21569     21571     21563     21566     21569     21572
     21564     21563     21566     21567     21564     21563     21566     21568
     21564     21563     21566     21569     21565     21563     21566     21567
     21565     21563     21566     21568     21565     21563     21566     21569
     21566     21569     21572     21573     21566     21569     21572     21574
     21566     21569     21572     21575     21567     21566     21569     21570
     21567     21566     21569     21571     21567     21566     21569     21572
     21568     21566     21569     21570     21568     21566     21569     21571
     21568     21566     21569     21572     21569     21572     21575     21576
     21569     21572     21575     21577     21569     21572     21575     21578
     21570     21569     21572     21573     21570     21569     21572     21574
     21570     21569     21572     21575     21571     21569     21572     21573
     21571     21569     21572     21574     21571     21569     21572     21575
     21572     21575     21578     21579     21572     21575     21578     21580
     21572     21575     21578     21581     21573     21572     21575     21576
     21573     21572     21575     21577     21573     21572     21575     21578
     21574     21572     21575     21576     21574     21572     21575     21577
     21574     21572     21575     21578     21575     21578     21581     21582
     21575     21578     21581     21583     21575     21578     21581     21584
     21576     21575     21578     21579     21576     21575     21578     21580
     21576     21575     21578     21581     21577     21575     21578     21579
     21577     21575     21578     21580     21577     21575     21578     21581
     21578     21581     21584     21585     21578     21581     21584     21586
     21578     21581     21584     21587     21579     21578     21581     21582
     21579     21578     21581     21583     21579     21578     21581     21584
     21580     21578     21581     21582     21580     21578     21581     21583
     21580     21578     21581     21584     21581     21584     21587     21588
     21581     21584     21587     21589     21581     21584     21587     21590
     21582     21581     21584     21585     21582     21581     21584     21586
     21582     21581     21584     21587     21583     21581     21584     21585
     21583     21581     21584     21586     21583     21581     21584     21587
     21585     21584     21587     21588     21585     21584     21587     21589
     21585     21584     21587     21590     21586     21584     21587     21588
     21586     21584     21587     21589     21586     21584     21587     21590
     22824     22828     22830     22831     22824     22828     22832     22833
     22824     22828     22832     22834     22824     22828     22832     22836
     22824     22844     22840     22836     22824     22844     22840     22841
     22824     22844     22840     22842     22824     22844     22849     22846
     22825     22824     22826     22827     22825     22824     22828     22829
     22825     22824     22828     22830     22825     22824     22828     22832
     22825     22824     22844     22840     22825     22824     22844     22845
     22825     22824     22844     22849     22826     22824     22828     22829
     22826     22824     22828     22830     22826     22824     22828     22832
     22826     22824     22844     22840     22826     22824     22844     22845
     22826     22824     22844     22849     22827     22826     22824     22828
     22827     22826     22824     22844     22828     22824     22844     22840
     22828     22824     22844     22845     22828     22824     22844     22849
     22828     22832     22834     22835     22828     22832     22836     22837
     22828     22832     22836     22838     22828     22832     22836     22840
     22829     22828     22824     22844     22829     22828     22830     22831
     22829     22828     22832     22833     22829     22828     22832     22834
     22829     22828     22832     22836     22830     22828     22824     22844
     22830     22828     22832     22833     22830     22828     22832     22834
     22830     22828     22832     22836     22831     22830     22828     22832
     22832     22828     22824     22844     22832     22836     22838     22839
     22832     22836     22840     22841     22832     22836     22840     22842
     22832     22836     22840     22844     22833     22832     22834     22835
     22833     22832     22836     22837     22833     22832     22836     22838
     22833     22832     22836     22840     22834     22832     22836     22837
     22834     22832     22836     22838     22834     22832     22836     22840
     22835     22834     22832     22836     22836     22840     22842     22843
     22836     22840     22844     22845     22836     22840     22844     22849
     22837     22836     22838     22839     22837     22836     22840     22841
     22837     22836     22840     22842     22837     22836     22840     22844
     22838     22836     22840     22841     22838     22836     22840     22842
     22838     22836     22840     22844     22839     22838     22836     22840
     22840     22844     22849     22846     22841     22840     22842     22843
     22841     22840     22844     22845     22841     22840     22844     22849
     22842     22840     22844     22845     22842     22840     22844     22849
     22843     22842     22840     22844     22844     22849     22846     22847
     22844     22849     22846     22848     22844     22849     22846     22850
     22845     22844     22849     22846     22846     22850     22851     22852
     22846     22850     22851     22853     22846     22850     22851     22854
     22847     22846     22850     22851     22848     22846     22850     22851
     22849     22846     22850     22851     22850     22851     22854     22855
     22850     22851     22854     22856     22850     22851     22854     22862
     22851     22854     22856     22857     22851     22854     22862     22863
     22851     22854     22862     22864     22851     22854     22862     22865
     22852     22851     22854     22855     22852     22851     22854     22856
     22852     22851     22854     22862     22853     22851     22854     22855
     22853     22851     22854     22856     22853     22851     22854     22862
     22854     22856     22857     22858     22854     22856     22857     22859
     22854     22862     22865     22866     22855     22854     22856     22857
     22855     22854     22862     22863     22855     22854     22862     22864
     22855     22854     22862     22865     22856     22854     22862     22863
     22856     22854     22862     22864     22856     22854     22862     22865
     22856     22857     22859     22860     22856     22857     22859     22861
     22856     22857     22859     22871     22857     22856     22854     22862
     22857     22859     22871     22872     22857     22859     22871     22873
     22857     22859     22871     22874     22858     22857     22859     22860
     22858     22857     22859     22861     22858     22857     22859     22871
     22859     22871     22874     22875     22859     22871     22874     22876
     22859     22871     22874     22877     22860     22859     22871     22872
     22860     22859     22871     22873     22860     22859     22871     22874
     22861     22859     22871     22872     22861     22859     22871     22873
     22861     22859     22871     22874     22862     22865     22866     22867
     22862     22865     22866     22868     22863     22862     22865     22866
     22864     22862     22865     22866     22865     22866     22868     22869
     22865     22866     22868     22870     22865     22866     22868     22918
     22866     22868     22918     22919     22866     22868     22918     22920
     22866     22868     22918     22921     22867     22866     22868     22869
     22867     22866     22868     22870     22867     22866     22868     22918
     22868     22918     22921     22922     22868     22918     22921     22923
     22868     22918     22921     22924     22869     22868     22918     22919
     22869     22868     22918     22920     22869     22868     22918     22921
     22870     22868     22918     22919     22870     22868     22918     22920
     22870     22868     22918     22921     22871     22874     22877     22878
     22871     22874     22877     22879     22871     22874     22877     22880
     22872     22871     22874     22875     22872     22871     22874     22876
     22872     22871     22874     22877     22873     22871     22874     22875
     22873     22871     22874     22876     22873     22871     22874     22877
     22874     22877     22880     22881     22874     22877     22880     22882
     22874     22877     22880     22883     22875     22874     22877     22878
     22875     22874     22877     22879     22875     22874     22877     22880
     22876     22874     22877     22878     22876     22874     22877     22879
     22876     22874     22877     22880     22877     22880     22883     22884
     22877     22880     22883     22885     22877     22880     22883     22886
     22878     22877     22880     22881     22878     22877     22880     22882
     22878     22877     22880     22883     22879     22877     22880     22881
     22879     22877     22880     22882     22879     22877     22880     22883
     22880     22883     22886     22887     22880     22883     22886     22888
     22880     22883     22886     22889     22881     22880     22883     22884
     22881     22880     22883     22885     22881     22880     22883     22886
     22882     22880     22883     22884     22882     22880     22883     22885
     22882     22880     22883     22886     22883     22886     22889     22890
     22883     22886     22889     22891     22884     22883     22886     22887
     22884     22883     22886     22888     22884     22883     22886     22889
     22885     22883     22886     22887     22885     22883     22886     22888
     22885     22883     22886     22889     22886     22889     22891     22892
     22886     22889     22891     22893     22887     22886     22889     22890
     22887     22886     22889     22891     22888     22886     22889     22890
     22888     22886     22889     22891     22889     22891     22893     22894
     22889     22891     22893     22895     22889     22891     22893     22896
     22890     22889     22891     22892     22890     22889     22891     22893
     22891     22893     22896     22897     22891     22893     22896     22898
     22891     22893     22896     22899     22892     22891     22893     22894
     22892     22891     22893     22895     22892     22891     22893     22896
     22893     22896     22899     22900     22893     22896     22899     22901
     22893     22896     22899     22902     22894     22893     22896     22897
     22894     22893     22896     22898     22894     22893     22896     22899
     22895     22893     22896     22897     22895     22893     22896     22898
     22895     22893     22896     22899     22896     22899     22902     22903
     22896     22899     22902     22904     22896     22899     22902     22905
     22897     22896     22899     22900     22897     22896     22899     22901
     22897     22896     22899     22902     22898     22896     22899     22900
     22898     22896     22899     22901     22898     22896     22899     22902
     22899     22902     22905     22906     22899     22902     22905     22907
     22899     22902     22905     22908     22900     22899     22902     22903
     22900     22899     22902     22904     22900     22899     22902     22905
     22901     22899     22902     22903     22901     22899     22902     22904
     22901     22899     22902     22905     22902     22905     22908     22909
     22902     22905     22908     22910     22902     22905     22908     22911
     22903     22902     22905     22906     22903     22902     22905     22907
     22903     22902     22905     22908     22904     22902     22905     22906
     22904     22902     22905     22907     22904     22902     22905     22908
     22905     22908     22911     22912     22905     22908     22911     22913
     22905     22908     22911     22914     22906     22905     22908     22909
     22906     22905     22908     22910     22906     22905     22908     22911
     22907     22905     22908     22909     22907     22905     22908     22910
     22907     22905     22908     22911     22908     22911     22914     22915
     22908     22911     22914     22916     22908     22911     22914     22917
     22909     22908     22911     22912     22909     22908     22911     22913
     22909     22908     22911     22914     22910     22908     22911     22912
     22910     22908     22911     22913     22910     22908     22911     22914
     22912     22911     22914     22915     22912     22911     22914     22916
     22912     22911     22914     22917     22913     22911     22914     22915
     22913     22911     22914     22916     22913     22911     22914     22917
     22918     22921     22924     22925     22918     22921     22924     22926
     22918     22921     22924     22927     22919     22918     22921     22922
     22919     22918     22921     22923     22919     22918     22921     22924
     22920     22918     22921     22922     22920     22918     22921     22923
     22920     22918     22921     22924     22921     22924     22927     22928
     22921     22924     22927     22929     22921     22924     22927     22930
     22922     22921     22924     22925     22922     22921     22924     22926
     22922     22921     22924     22927     22923     22921     22924     22925
     22923     22921     22924     22926     22923     22921     22924     22927
     22924     22927     22930     22931     22924     22927     22930     22932
     22924     22927     22930     22933     22925     22924     22927     22928
     22925     22924     22927     22929     22925     22924     22927     22930
     22926     22924     22927     22928     22926     22924     22927     22929
     22926     22924     22927     22930     22927     22930     22933     22934
     22927     22930     22933     22935     22927     22930     22933     22936
     22928     22927     22930     22931     22928     22927     22930     22932
     22928     22927     22930     22933     22929     22927     22930     22931
     22929     22927     22930     22932     22929     22927     22930     22933
     22930     22933     22936     22937     22930     22933     22936     22938
     22930     22933     22936     22939     22931     22930     22933     22934
     22931     22930     22933     22935     22931     22930     22933     22936
     22932     22930     22933     22934     22932     22930     22933     22935
     22932     22930     22933     22936     22933     22936     22939     22940
     22933     22936     22939     22941     22933     22936     22939     22942
     22934     22933     22936     22937     22934     22933     22936     22938
     22934     22933     22936     22939     22935     22933     22936     22937
     22935     22933     22936     22938     22935     22933     22936     22939
     22936     22939     22942     22943     22936     22939     22942     22944
     22936     22939     22942     22945     22937     22936     22939     22940
     22937     22936     22939     22941     22937     22936     22939     22942
     22938     22936     22939     22940     22938     22936     22939     22941
     22938     22936     22939     22942     22939     22942     22945     22946
     22939     22942     22945     22947     22939     22942     22945     22948
     22940     22939     22942     22943     22940     22939     22942     22944
     22940     22939     22942     22945     22941     22939     22942     22943
     22941     22939     22942     22944     22941     22939     22942     22945
     22942     22945     22948     22949     22942     22945     22948     22950
     22942     22945     22948     22951     22943     22942     22945     22946
     22943     22942     22945     22947     22943     22942     22945     22948
     22944     22942     22945     22946     22944     22942     22945     22947
     22944     22942     22945     22948     22945     22948     22951     22952
     22945     22948     22951     22953     22945     22948     22951     22954
     22946     22945     22948     22949     22946     22945     22948     22950
     22946     22945     22948     22951     22947     22945     22948     22949
     22947     22945     22948     22950     22947     22945     22948     22951
     22948     22951     22954     22955     22948     22951     22954     22956
     22948     22951     22954     22957     22949     22948     22951     22952
     22949     22948     22951     22953     22949     22948     22951     22954
     22950     22948     22951     22952     22950     22948     22951     22953
     22950     22948     22951     22954     22951     22954     22957     22958
     22951     22954     22957     22959     22951     22954     22957     22960
     22952     22951     22954     22955     22952     22951     22954     22956
     22952     22951     22954     22957     22953     22951     22954     22955
     22953     22951     22954     22956     22953     22951     22954     22957
     22955     22954     22957     22958     22955     22954     22957     22959
     22955     22954     22957     22960     22956     22954     22957     22958
     22956     22954     22957     22959     22956     22954     22957     22960

       380 !NIMPHI: impropers
      2242      2241      2244      2243      2251      2250      2253      2252
      8494      8493      8496      8495      8503      8502      8505      8504
      8477      8475      8479      8478     13581     13580     13583     13582
     13590     13589     13592     13591      2367      2366      2369      2368
      2376      2375      2378      2377     21624     21623     21626     21625
     21633     21632     21635     21634      2492      2491      2494      2493
      2501      2500      2503      2502     13715     13714     13717     13716
     13724     13723     13726     13725     13849     13848     13851     13850
     13858     13857     13860     13859     23040     23042     22988     23041
     22988     23040     22990     22989     13983     13982     13985     13984
     13992     13991     13994     13993      8621      8620      8623      8622
      8630      8629      8632      8631      8604      8602      8606      8605
     14117     14116     14119     14118     14126     14125     14128     14127
      2617      2616      2619      2618      2626      2625      2628      2627
     14251     14250     14253     14252     14260     14259     14262     14261
     23167     23169     23115     23168     23115     23167     23117     23116
      2742      2741      2744      2743      2751      2750      2753      2752
     14385     14384     14387     14386     14394     14393     14396     14395
      8748      8747      8750      8749      8757      8756      8759      8758
      8731      8729      8733      8732      8875      8874      8877      8876
      8884      8883      8886      8885      8858      8856      8860      8859
      2867      2866      2869      2868      2876      2875      2878      2877
      9002      9001      9004      9003      9011      9010      9013      9012
      8985      8983      8987      8986      9129      9128      9131      9130
      9138      9137      9140      9139      9112      9110      9114      9113
     14519     14518     14521     14520     14528     14527     14530     14529
     14653     14652     14655     14654     14662     14661     14664     14663
      2992      2991      2994      2993      3001      3000      3003      3002
      3117      3116      3119      3118      3126      3125      3128      3127
      9256      9255      9258      9257      9265      9264      9267      9266
      9239      9237      9241      9240      3242      3241      3244      3243
      3251      3250      3253      3252      3367      3366      3369      3368
      3376      3375      3378      3377     14787     14786     14789     14788
     14796     14795     14798     14797     14921     14920     14923     14922
     14930     14929     14932     14931     15055     15054     15057     15056
     15064     15063     15066     15065      9383      9382      9385      9384
      9392      9391      9394      9393      9366      9364      9368      9367
     23294     23296     23242     23295     23242     23294     23244     23243
      9510      9509      9512      9511      9519      9518      9521      9520
      9493      9491      9495      9494     15189     15188     15191     15190
     15198     15197     15200     15199     15323     15322     15325     15324
     15332     15331     15334     15333      3492      3491      3494      3493
      3501      3500      3503      3502      3617      3616      3619      3618
      3626      3625      3628      3627     23421     23423     23369     23422
     23369     23421     23371     23370     15457     15456     15459     15458
     15466     15465     15468     15467      3742      3741      3744      3743
      3751      3750      3753      3752     23548     23550     23496     23549
     23496     23548     23498     23497      3867      3866      3869      3868
      3876      3875      3878      3877      3992      3991      3994      3993
      4001      4000      4003      4002     15591     15590     15593     15592
     15600     15599     15602     15601     15725     15724     15727     15726
     15734     15733     15736     15735     15859     15858     15861     15860
     15868     15867     15870     15869     21761     21760     21763     21762
     21770     21769     21772     21771      9637      9636      9639      9638
      9646      9645      9648      9647      9620      9618      9622      9621
      4117      4116      4119      4118      4126      4125      4128      4127
      4242      4241      4244      4243      4251      4250      4253      4252
      4367      4366      4369      4368      4376      4375      4378      4377
      9764      9763      9766      9765      9773      9772      9775      9774
      9747      9745      9749      9748     15993     15992     15995     15994
     16002     16001     16004     16003      9891      9890      9893      9892
      9900      9899      9902      9901      9874      9872      9876      9875
      4492      4491      4494      4493      4501      4500      4503      4502
     16127     16126     16129     16128     16136     16135     16138     16137
     16261     16260     16263     16262     16270     16269     16272     16271
     10018     10017     10020     10019     10027     10026     10029     10028
     10001      9999     10003     10002     16395     16394     16397     16396
     16404     16403     16406     16405      4617      4616      4619      4618
      4626      4625      4628      4627     21898     21897     21900     21899
     21907     21906     21909     21908      4742      4741      4744      4743
      4751      4750      4753      4752      4867      4866      4869      4868
      4876      4875      4878      4877     10145     10144     10147     10146
     10154     10153     10156     10155     10128     10126     10130     10129
      4992      4991      4994      4993      5001      5000      5003      5002
     10272     10271     10274     10273     10281     10280     10283     10282
     10255     10253     10257     10256      5117      5116      5119      5118
      5126      5125      5128      5127     16529     16528     16531     16530
     16538     16537     16540     16539      5242      5241      5244      5243
      5251      5250      5253      5252     10399     10398     10401     10400
     10408     10407     10410     10409     10382     10380     10384     10383
     16663     16662     16665     16664     16672     16671     16674     16673
     16797     16796     16799     16798     16806     16805     16808     16807
     16931     16930     16933     16932     16940     16939     16942     16941
     17065     17064     17067     17066     17074     17073     17076     17075
     10526     10525     10528     10527     10535     10534     10537     10536
     10509     10507     10511     10510     17199     17198     17201     17200
     17208     17207     17210     17209     10653     10652     10655     10654
     10662     10661     10664     10663     10636     10634     10638     10637
     10780     10779     10782     10781     10789     10788     10791     10790
     10763     10761     10765     10764     17333     17332     17335     17334
     17342     17341     17344     17343     10907     10906     10909     10908
     10916     10915     10918     10917     10890     10888     10892     10891
     17467     17466     17469     17468     17476     17475     17478     17477
     22035     22034     22037     22036     22044     22043     22046     22045
     22172     22171     22174     22173     22181     22180     22183     22182
      5367      5366      5369      5368      5376      5375      5378      5377
      5492      5491      5494      5493      5501      5500      5503      5502
     17601     17600     17603     17602     17610     17609     17612     17611
     11034     11033     11036     11035     11043     11042     11045     11044
     11017     11015     11019     11018     11161     11160     11163     11162
     11170     11169     11172     11171     11144     11142     11146     11145
     17735     17734     17737     17736     17744     17743     17746     17745
     17869     17868     17871     17870     17878     17877     17880     17879
     18003     18002     18005     18004     18012     18011     18014     18013
     18137     18136     18139     18138     18146     18145     18148     18147
      5617      5616      5619      5618      5626      5625      5628      5627
     11288     11287     11290     11289     11297     11296     11299     11298
     11271     11269     11273     11272     18271     18270     18273     18272
     18280     18279     18282     18281     11415     11414     11417     11416
     11424     11423     11426     11425     11398     11396     11400     11399
      5742      5741      5744      5743      5751      5750      5753      5752
     18405     18404     18407     18406     18414     18413     18416     18415
     23675     23677     23623     23676     23623     23675     23625     23624
     11542     11541     11544     11543     11551     11550     11553     11552
     11525     11523     11527     11526     23802     23804     23750     23803
     23750     23802     23752     23751     23929     23931     23877     23930
     23877     23929     23879     23878     24056     24058     24004     24057
     24004     24056     24006     24005     24183     24185     24131     24184
     24131     24183     24133     24132      5867      5866      5869      5868
      5876      5875      5878      5877     18539     18538     18541     18540
     18548     18547     18550     18549     22309     22308     22311     22310
     22318     22317     22320     22319     11669     11668     11671     11670
     11678     11677     11680     11679     11652     11650     11654     11653
      5992      5991      5994      5993      6001      6000      6003      6002
     18673     18672     18675     18674     18682     18681     18684     18683
     18807     18806     18809     18808     18816     18815     18818     18817
      6117      6116      6119      6118      6126      6125      6128      6127
     18941     18940     18943     18942     18950     18949     18952     18951
     22446     22445     22448     22447     22455     22454     22457     22456
     22583     22582     22585     22584     22592     22591     22594     22593
     19075     19074     19077     19076     19084     19083     19086     19085
      6242      6241      6244      6243      6251      6250      6253      6252
      6367      6366      6369      6368      6376      6375      6378      6377
      6492      6491      6494      6493      6501      6500      6503      6502
     11796     11795     11798     11797     11805     11804     11807     11806
     11779     11777     11781     11780     19209     19208     19211     19210
     19218     19217     19220     19219     11923     11922     11925     11924
     11932     11931     11934     11933     11906     11904     11908     11907
      6617      6616      6619      6618      6626      6625      6628      6627
     19343     19342     19345     19344     19352     19351     19354     19353
      6742      6741      6744      6743      6751      6750      6753      6752
     12050     12049     12052     12051     12059     12058     12061     12060
     12033     12031     12035     12034     19477     19476     19479     19478
     19486     19485     19488     19487      6867      6866      6869      6868
      6876      6875      6878      6877     19611     19610     19613     19612
     19620     19619     19622     19621     12177     12176     12179     12178
     12186     12185     12188     12187     12160     12158     12162     12161
     12304     12303     12306     12305     12313     12312     12315     12314
     12287     12285     12289     12288     19745     19744     19747     19746
     19754     19753     19756     19755     19879     19878     19881     19880
     19888     19887     19890     19889     20013     20012     20015     20014
     20022     20021     20024     20023      6992      6991      6994      6993
      7001      7000      7003      7002     12431     12430     12433     12432
     12440     12439     12442     12441     12414     12412     12416     12415
     12558     12557     12560     12559     12567     12566     12569     12568
     12541     12539     12543     12542     12685     12684     12687     12686
     12694     12693     12696     12695     12668     12666     12670     12669
     20147     20146     20149     20148     20156     20155     20158     20157
     20281     20280     20283     20282     20290     20289     20292     20291
     20415     20414     20417     20416     20424     20423     20426     20425
     12812     12811     12814     12813     12821     12820     12823     12822
     12795     12793     12797     12796      7117      7116      7119      7118
      7126      7125      7128      7127      7242      7241      7244      7243
      7251      7250      7253      7252     20549     20548     20551     20550
     20558     20557     20560     20559      7367      7366      7369      7368
      7376      7375      7378      7377     12939     12938     12941     12940
     12948     12947     12950     12949     12922     12920     12924     12923
      7492      7491      7494      7493      7501      7500      7503      7502
     13066     13065     13068     13067     13075     13074     13077     13076
     13049     13047     13051     13050      7617      7616      7619      7618
      7626      7625      7628      7627     20683     20682     20685     20684
     20692     20691     20694     20693     20817     20816     20819     20818
     20826     20825     20828     20827      7742      7741      7744      7743
      7751      7750      7753      7752     20951     20950     20953     20952
     20960     20959     20962     20961     13193     13192     13195     13194
     13202     13201     13204     13203     13176     13174     13178     13177
     21085     21084     21087     21086     21094     21093     21096     21095
      7867      7866      7869      7868      7876      7875      7878      7877
     21219     21218     21221     21220     21228     21227     21230     21229
      7992      7991      7994      7993      8001      8000      8003      8002
     22720     22719     22722     22721     22729     22728     22731     22730
      8117      8116      8119      8118      8126      8125      8128      8127
      8242      8241      8244      8243      8251      8250      8253      8252
      8367      8366      8369      8368      8376      8375      8378      8377
     21353     21352     21355     21354     21362     21361     21364     21363
     13320     13319     13322     13321     13329     13328     13331     13330
     13303     13301     13305     13304     13447     13446     13449     13448
     13456     13455     13458     13457     13430     13428     13432     13431
     21487     21486     21489     21488     21496     21495     21498     21497
     22857     22856     22859     22858     22866     22865     22868     22867

         0 !NDON: donors


         0 !NACC: acceptors


         0 !NNB

         0         0         0         0         0         0         0         0
         0         0         0         0         0         0         0         0
         0         0         0         0         0         0         0         0
         0         0         0         0         0         0         0         0
         0         0         0         0         0         0         0         0
         0         0         0         0         0         0         0         0
         0         0         0         0         0         0         0         0
         0         0         0         0         0         0         0         0
         0         0         0         0         0         0         0         0
         0         0         0         0         0         0         0         0
         0         0         0         0         0         0         0         0
         0         0         0         0         0         0         0         0
         0         0         0         0         0         0         0         0
         0         0         0         0         0         0         0         0
         0         0         0         0         0         0         0         0
         0         0         0         0         0         0         0         0
         0         0         0         0         0         0         0         0
         0         0         0         0         0         0         0         0
         0         0         0         0         0         0         0         0
         0         0         0         0         0         0         0         0
         0         0         0         0         0         0         0         0
         0         0         0         0         0         0         0         0
         0         0         0         0         0         0         0         0
         0         0         0         0         0         0         0         0
         0         0         0         0         0         0         0         0
         0         0         0         0         0         0         0         0
         0         0         0         0         0         0         0         0
         0         0         0         0         0         0         0         0
         0         0         0         0         0         0         0         0
         0         0         0         0         0         0         0         0
         0         0         0         0         0         0         0         0
         0         0         0         0         0         0         0         0
         0         0         0         0         0         0         0         0
         0         0         0         0         0         0         0         0
         0         0         0         0         0         0         0         0
         0         0         0         0         0         0         0         0
         0         0         0         0         0         0         0         0
         0         0         0         0         0         0         0         0
         0         0         0         0         0         0         0         0
         0         0         0         0         0         0         0         0
         0         0         0         0         0         0         0         0
         0         0         0         0         0         0         0         0
         0         0         0         0         0         0         0         0
         0         0         0         0         0         0         0         0
         0         0         0         0         0         0         0         0
         0         0         0         0         0         0         0         0
         0         0         0         0         0         0         0         0
         0         0         0         0         0         0         0         0
         0         0         0         0         0         0         0         0
         0         0         0         0         0         0         0         0
         0         0         0         0         0         0         0         0
         0         0         0         0         0         0         0         0
         0         0         0         0         0         0         0         0
         0         0         0         0         0         0         0         0
         0         0         0         0         0         0         0         0
         0         0         0         0         0         0         0         0
         0         0         0         0         0         0         0         0
         0         0         0         0         0         0         0         0
         0         0         0         0         0         0         0         0
         0         0         0         0         0         0         0         0
         0         0         0         0         0         0         0         0
         0         0         0         0         0         0         0         0
         0         0         0         0         0         0         0         0
         0         0         0         0         0         0         0         0
         0         0         0         0         0         0         0         0
         0         0         0         0         0         0         0         0
         0         0         0         0         0         0         0         0
         0         0         0         0         0         0         0         0
         0         0         0         0         0         0         0         0
         0         0         0         0         0         0         0         0
         0         0         0         0         0         0         0         0
         0         0         0         0         0         0         0         0
         0         0         0         0         0         0         0         0
         0         0         0         0         0         0         0         0
         0         0         0         0         0         0         0         0
         0         0         0         0         0         0         0         0
         0         0         0         0         0         0         0         0
         0         0         0         0         0         0         0         0
         0         0         0         0         0         0         0         0
         0         0         0         0         0         0         0         0
         0         0         0         0         0         0         0         0
         0         0         0         0         0         0         0         0
         0         0         0         0         0         0         0         0
         0         0         0         0         0         0         0         0
         0         0         0         0         0         0         0         0
         0         0         0         0         0         0         0         0
         0         0         0         0         0         0         0         0
         0         0         0         0         0         0         0         0
         0         0         0         0         0         0         0         0
         0         0         0         0         0         0         0         0
         0         0         0         0         0         0         0         0
         0         0         0         0         0         0         0         0
         0         0         0         0         0         0         0         0
         0         0         0         0         0         0         0         0
         0         0         0         0         0         0         0         0
         0         0         0         0         0         0         0         0
         0         0         0         0         0         0         0         0
         0         0         0         0         0         0         0         0
         0         0         0         0         0         0         0         0
         0         0         0         0         0         0         0         0
         0         0         0         0         0         0         0         0
         0         0         0         0         0         0         0         0
         0         0         0         0         0         0         0         0
         0         0         0         0         0         0         0         0
         0         0         0         0         0         0         0         0
         0         0         0         0         0         0         0         0
         0         0         0         0         0         0         0         0
         0         0         0         0         0         0         0         0
         0         0         0         0         0         0         0         0
         0         0         0         0         0         0         0         0
         0         0         0         0         0         0         0         0
         0         0         0         0         0         0         0         0
         0         0         0         0         0         0         0         0
         0         0         0         0         0         0         0         0
         0         0         0         0         0         0         0         0
         0         0         0         0         0         0         0         0
         0         0         0         0         0         0         0         0
         0         0         0         0         0         0         0         0
         0         0         0         0         0         0         0         0
         0         0         0         0         0         0         0         0
         0         0         0         0         0         0         0         0
         0         0         0         0         0         0         0         0
         0         0         0         0         0         0         0         0
         0         0         0         0         0         0         0         0
         0         0         0         0         0         0         0         0
         0         0         0         0         0         0         0         0
         0         0         0         0         0         0         0         0
         0         0         0         0         0         0         0         0
         0         0         0         0         0         0         0         0
         0         0         0         0         0         0         0         0
         0         0         0         0         0         0         0         0
         0         0         0         0         0         0         0         0
         0         0         0         0         0         0         0         0
         0         0         0         0         0         0         0         0
         0         0         0         0         0         0         0         0
         0         0         0         0         0         0         0         0
         0         0         0         0         0         0         0         0
         0         0         0         0         0         0         0         0
         0         0         0         0         0         0         0         0
         0         0         0         0         0         0         0         0
         0         0         0         0         0         0         0         0
         0         0         0         0         0         0         0         0
         0         0         0         0         0         0         0         0
         0         0         0         0         0         0         0         0
         0         0         0         0         0         0         0         0
         0         0         0         0         0         0         0         0
         0         0         0         0         0         0         0         0
         0         0         0         0         0         0         0         0
         0         0         0         0         0         0         0         0
         0         0         0         0         0         0         0         0
         0         0         0         0         0         0         0         0
         0         0         0         0         0         0         0         0
         0         0         0         0         0         0         0         0
         0         0         0         0         0         0         0         0
         0         0         0         0         0         0         0         0
         0         0         0         0         0         0         0         0
         0         0         0         0         0         0         0         0
         0         0         0         0         0         0         0         0
         0         0         0         0         0         0         0         0
         0         0         0         0         0         0         0         0
         0         0         0         0         0         0         0         0
         0         0         0         0         0         0         0         0
         0         0         0         0         0         0         0         0
         0         0         0         0         0         0         0         0
         0         0         0         0         0         0         0         0
         0         0         0         0         0         0         0         0
         0         0         0         0         0         0         0         0
         0         0         0         0         0         0         0         0
         0         0         0         0         0         0         0         0
         0         0         0         0         0         0         0         0
         0         0         0         0         0         0         0         0
         0         0         0         0         0         0         0         0
         0         0         0         0         0         0         0         0
         0         0         0         0         0         0         0         0
         0         0         0         0         0         0         0         0
         0         0         0         0         0         0         0         0
         0         0         0         0         0         0         0         0
         0         0         0         0         0         0         0         0
         0         0         0         0         0         0         0         0
         0         0         0         0         0         0         0         0
         0         0         0         0         0         0         0         0
         0         0         0         0         0         0         0         0
         0         0         0         0         0         0         0         0
         0         0         0         0         0         0         0         0
         0         0         0         0         0         0         0         0
         0         0         0         0         0         0         0         0
         0         0         0         0         0         0         0         0
         0         0         0         0         0         0         0         0
         0         0         0         0         0         0         0         0
         0         0         0         0         0         0         0         0
         0         0         0         0         0         0         0         0
         0         0         0         0         0         0         0         0
         0         0         0         0         0         0         0         0
         0         0         0         0         0         0         0         0
         0         0         0         0         0         0         0         0
         0         0         0         0         0         0         0         0
         0         0         0         0         0         0         0         0
         0         0         0         0         0         0         0         0
         0         0         0         0         0         0         0         0
         0         0         0         0         0         0         0         0
         0         0         0         0         0         0         0         0
         0         0         0         0         0         0         0         0
         0         0         0         0         0         0         0         0
         0         0         0         0         0         0         0         0
         0         0         0         0         0         0         0         0
         0         0         0         0         0         0         0         0
         0         0         0         0         0         0         0         0
         0         0         0         0         0         0         0         0
         0         0         0         0         0         0         0         0
         0         0         0         0         0         0         0         0
         0         0         0         0         0         0         0         0
         0         0         0         0         0         0         0         0
         0         0         0         0         0         0         0         0
         0         0         0         0         0         0         0         0
         0         0         0         0         0         0         0         0
         0         0         0         0         0         0         0         0
         0         0         0         0         0         0         0         0
         0         0         0         0         0         0         0         0
         0         0         0         0         0         0         0         0
         0         0         0         0         0         0         0         0
         0         0         0         0         0         0         0         0
         0         0         0         0         0         0         0         0
         0         0         0         0         0         0         0         0
         0         0         0         0         0         0         0         0
         0         0         0         0         0         0         0         0
         0         0         0         0         0         0         0         0
         0         0         0         0         0         0         0         0
         0         0         0         0         0         0         0         0
         0         0         0         0         0         0         0         0
         0         0         0         0         0         0         0         0
         0         0         0         0         0         0         0         0
         0         0         0         0         0         0         0         0
         0         0         0         0         0         0         0         0
         0         0         0         0         0         0         0         0
         0         0         0         0         0         0         0         0
         0         0         0         0         0         0         0         0
         0         0         0         0         0         0         0         0
         0         0         0         0         0         0         0         0
         0         0         0         0         0         0         0         0
         0         0         0         0         0         0         0         0
         0         0         0         0         0         0         0         0
         0         0         0         0         0         0         0         0
         0         0         0         0         0         0         0         0
         0         0         0         0         0         0         0         0
         0         0         0         0         0         0         0         0
         0         0         0         0         0         0         0         0
         0         0         0         0         0         0         0         0
         0         0         0         0         0         0         0         0
         0         0         0         0         0         0         0         0
         0         0         0         0         0         0         0         0
         0         0         0         0         0         0         0         0
         0         0         0         0         0         0         0         0
         0         0         0         0         0         0         0         0
         0         0         0         0         0         0         0         0
         0         0         0         0         0         0         0         0
         0         0         0         0         0         0         0         0
         0         0         0         0         0         0         0         0
         0         0         0         0         0         0         0         0
         0         0         0         0         0         0         0         0
         0         0         0         0         0         0         0         0
         0         0         0         0         0         0         0         0
         0         0         0         0         0         0         0         0
         0         0         0         0         0         0         0         0
         0         0         0         0         0         0         0         0
         0         0         0         0         0         0         0         0
         0         0         0         0         0         0         0         0
         0         0         0         0         0         0         0         0
         0         0         0         0         0         0         0         0
         0         0         0         0         0         0         0         0
         0         0         0         0         0         0         0         0
         0         0         0         0         0         0         0         0
         0         0         0         0         0         0         0         0
         0         0         0         0         0         0         0         0
         0         0         0         0         0         0         0         0
         0         0         0         0         0         0         0         0
         0         0         0         0         0         0         0         0
         0         0         0         0         0         0         0         0
         0         0         0         0         0         0         0         0
         0         0         0         0         0         0         0         0
         0         0         0         0         0         0         0         0
         0         0         0         0         0         0         0         0
         0         0         0         0         0         0         0         0
         0         0         0         0         0         0         0         0
         0         0         0         0         0         0         0         0
         0         0         0         0         0         0         0         0
         0         0         0         0         0         0         0         0
         0         0         0         0         0         0         0         0
         0         0         0         0         0         0         0         0
         0         0         0         0         0         0         0         0
         0         0         0         0         0         0         0         0
         0         0         0         0         0         0         0         0
         0         0         0         0         0         0         0         0
         0         0         0         0         0         0         0         0
         0         0         0         0         0         0         0         0
         0         0         0         0         0         0         0         0
         0         0         0         0         0         0         0         0
         0         0         0         0         0         0         0         0
         0         0         0         0         0         0         0         0
         0         0         0         0         0         0         0         0
         0         0         0         0         0         0         0         0
         0         0         0         0         0         0         0         0
         0         0         0         0         0         0         0         0
         0         0         0         0         0         0         0         0
         0         0         0         0         0         0         0         0
         0         0         0         0         0         0         0         0
         0         0         0         0         0         0         0         0
         0         0         0         0         0         0         0         0
         0         0         0         0         0         0         0         0
         0         0         0         0         0         0         0         0
         0         0         0         0         0         0         0         0
         0         0         0         0         0         0         0         0
         0         0         0         0         0         0         0         0
         0         0         0         0         0         0         0         0
         0         0         0         0         0         0         0         0
         0         0         0         0         0         0         0         0
         0         0         0         0         0         0         0         0
         0         0         0         0         0         0         0         0
         0         0         0         0         0         0         0         0
         0         0         0         0         0         0         0         0
         0         0         0         0         0         0         0         0
         0         0         0         0         0         0         0         0
         0         0         0         0         0         0         0         0
         0         0         0         0         0         0         0         0
         0         0         0         0         0         0         0         0
         0         0         0         0         0         0         0         0
         0         0         0         0         0         0         0         0
         0         0         0         0         0         0         0         0
         0         0         0         0         0         0         0         0
         0         0         0         0         0         0         0         0
         0         0         0         0         0         0         0         0
         0         0         0         0         0         0         0         0
         0         0         0         0         0         0         0         0
         0         0         0         0         0         0         0         0
         0         0         0         0         0         0         0         0
         0         0         0         0         0         0         0         0
         0         0         0         0         0         0         0         0
         0         0         0         0         0         0         0         0
         0         0         0         0         0         0         0         0
         0         0         0         0         0         0         0         0
         0         0         0         0         0         0         0         0
         0         0         0         0         0         0         0         0
         0         0         0         0         0         0         0         0
         0         0         0         0         0         0         0         0
         0         0         0         0         0         0         0         0
         0         0         0         0         0         0         0         0
         0         0         0         0         0         0         0         0
         0         0         0         0         0         0         0         0
         0         0         0         0         0         0         0         0
         0         0         0         0         0         0         0         0
         0         0         0         0         0         0         0         0
         0         0         0         0         0         0         0         0
         0         0         0         0         0         0         0         0
         0         0         0         0         0         0         0         0
         0         0         0         0         0         0         0         0
         0         0         0         0         0         0         0         0
         0         0         0         0         0         0         0         0
         0         0         0         0         0         0         0         0
         0         0         0         0         0         0         0         0
         0         0         0         0         0         0         0         0
         0         0         0         0         0         0         0         0
         0         0         0         0         0         0         0         0
         0         0         0         0         0         0         0         0
         0         0         0         0         0         0         0         0
         0         0         0         0         0         0         0         0
         0         0         0         0         0         0         0         0
         0         0         0         0         0         0         0         0
         0         0         0         0         0         0         0         0
         0         0         0         0         0         0         0         0
         0         0         0         0         0         0         0         0
         0         0         0         0         0         0         0         0
         0         0         0         0         0         0         0         0
         0         0         0         0         0         0         0         0
         0         0         0         0         0         0         0         0
         0         0         0         0         0         0         0         0
         0         0         0         0         0         0         0         0
         0         0         0         0         0         0         0         0
         0         0         0         0         0         0         0         0
         0         0         0         0         0         0         0         0
         0         0         0         0         0         0         0         0
         0         0         0         0         0         0         0         0
         0         0         0         0         0         0         0         0
         0         0         0         0         0         0         0         0
         0         0         0         0         0         0         0         0
         0         0         0         0         0         0         0         0
         0         0         0         0         0         0         0         0
         0         0         0         0         0         0         0         0
         0         0         0         0         0         0         0         0
         0         0         0         0         0         0         0         0
         0         0         0         0         0         0         0         0
         0         0         0         0         0         0         0         0
         0         0         0         0         0         0         0         0
         0         0         0         0         0         0         0         0
         0         0         0         0         0         0         0         0
         0         0         0         0         0         0         0         0
         0         0         0         0         0         0         0         0
         0         0         0         0         0         0         0         0
         0         0         0         0         0         0         0         0
         0         0         0         0         0         0         0         0
         0         0         0         0         0         0         0         0
         0         0         0         0         0         0         0         0
         0         0         0         0         0         0         0         0
         0         0         0         0         0         0         0         0
         0         0         0         0         0         0         0         0
         0         0         0         0         0         0         0         0
         0         0         0         0         0         0         0         0
         0         0         0         0         0         0         0         0
         0         0         0         0         0         0         0         0
         0         0         0         0         0         0         0         0
         0         0         0         0         0         0         0         0
         0         0         0         0         0         0         0         0
         0         0         0         0         0         0         0         0
         0         0         0         0         0         0         0         0
         0         0         0         0         0         0         0         0
         0         0         0         0         0         0         0         0
         0         0         0         0         0         0         0         0
         0         0         0         0         0         0         0         0
         0         0         0         0         0         0         0         0
         0         0         0         0         0         0         0         0
         0         0         0         0         0         0         0         0
         0         0         0         0         0         0         0         0
         0         0         0         0         0         0         0         0
         0         0         0         0         0         0         0         0
         0         0         0         0         0         0         0         0
         0         0         0         0         0         0         0         0
         0         0         0         0         0         0         0         0
         0         0         0         0         0         0         0         0
         0         0         0         0         0         0         0         0
         0         0         0         0         0         0         0         0
         0         0         0         0         0         0         0         0
         0         0         0         0         0         0         0         0
         0         0         0         0         0         0         0         0
         0         0         0         0         0         0         0         0
         0         0         0         0         0         0         0         0
         0         0         0         0         0         0         0         0
         0         0         0         0         0         0         0         0
         0         0         0         0         0         0         0         0
         0         0         0         0         0         0         0         0
         0         0         0         0         0         0         0         0
         0         0         0         0         0         0         0         0
         0         0         0         0         0         0         0         0
         0         0         0         0         0         0         0         0
         0         0         0         0         0         0         0         0
         0         0         0         0         0         0         0         0
         0         0         0         0         0         0         0         0
         0         0         0         0         0         0         0         0
         0         0         0         0         0         0         0         0
         0         0         0         0         0         0         0         0
         0         0         0         0         0         0         0         0
         0         0         0         0         0         0         0         0
         0         0         0         0         0         0         0         0
         0         0         0         0         0         0         0         0
         0         0         0         0         0         0         0         0
         0         0         0         0         0         0         0         0
         0         0         0         0         0         0         0         0
         0         0         0         0         0         0         0         0
         0         0         0         0         0         0         0         0
         0         0         0         0         0         0         0         0
         0         0         0         0         0         0         0         0
         0         0         0         0         0         0         0         0
         0         0         0         0         0         0         0         0
         0         0         0         0         0         0         0         0
         0         0         0         0         0         0         0         0
         0         0         0         0         0         0         0         0
         0         0         0         0         0         0         0         0
         0         0         0         0         0         0         0         0
         0         0         0         0         0         0         0         0
         0         0         0         0         0         0         0         0
         0         0         0         0         0         0         0         0
         0         0         0         0         0         0         0         0
         0         0         0         0         0         0         0         0
         0         0         0         0         0         0         0         0
         0         0         0         0         0         0         0         0
         0         0         0         0         0         0         0         0
         0         0         0         0         0         0         0         0
         0         0         0         0         0         0         0         0
         0         0         0         0         0         0         0         0
         0         0         0         0         0         0         0         0
         0         0         0         0         0         0         0         0
         0         0         0         0         0         0         0         0
         0         0         0         0         0         0         0         0
         0         0         0         0         0         0         0         0
         0         0         0         0         0         0         0         0
         0         0         0         0         0         0         0         0
         0         0         0         0         0         0         0         0
         0         0         0         0         0         0         0         0
         0         0         0         0         0         0         0         0
         0         0         0         0         0         0         0         0
         0         0         0         0         0         0         0         0
         0         0         0         0         0         0         0         0
         0         0         0         0         0         0         0         0
         0         0         0         0         0         0         0         0
         0         0         0         0         0         0         0         0
         0         0         0         0         0         0         0         0
         0         0         0         0         0         0         0         0
         0         0         0         0         0         0         0         0
         0         0         0         0         0         0         0         0
         0         0         0         0         0         0         0         0
         0         0         0         0         0         0         0         0
         0         0         0         0         0         0         0         0
         0         0         0         0         0         0         0         0
         0         0         0         0         0         0         0         0
         0         0         0         0         0         0         0         0
         0         0         0         0         0         0         0         0
         0         0         0         0         0         0         0         0
         0         0         0         0         0         0         0         0
         0         0         0         0         0         0         0         0
         0         0         0         0         0         0         0         0
         0         0         0         0         0         0         0         0
         0         0         0         0         0         0         0         0
         0         0         0         0         0         0         0         0
         0         0         0         0         0         0         0         0
         0         0         0         0         0         0         0         0
         0         0         0         0         0         0         0         0
         0         0         0         0         0         0         0         0
         0         0         0         0         0         0         0         0
         0         0         0         0         0         0         0         0
         0         0         0         0         0         0         0         0
         0         0         0         0         0         0         0         0
         0         0         0         0         0         0         0         0
         0         0         0         0         0         0         0         0
         0         0         0         0         0         0         0         0
         0         0         0         0         0         0         0         0
         0         0         0         0         0         0         0         0
         0         0         0         0         0         0         0         0
         0         0         0         0         0         0         0         0
         0         0         0         0         0         0         0         0
         0         0         0         0         0         0         0         0
         0         0         0         0         0         0         0         0
         0         0         0         0         0         0         0         0
         0         0         0         0         0         0         0         0
         0         0         0         0         0         0         0         0
         0         0         0         0         0         0         0         0
         0         0         0         0         0         0         0         0
         0         0         0         0         0         0         0         0
         0         0         0         0         0         0         0         0
         0         0         0         0         0         0         0         0
         0         0         0         0         0         0         0         0
         0         0         0         0         0         0         0         0
         0         0         0         0         0         0         0         0
         0         0         0         0         0         0         0         0
         0         0         0         0         0         0         0         0
         0         0         0         0         0         0         0         0
         0         0         0         0         0         0         0         0
         0         0         0         0         0         0         0         0
         0         0         0         0         0         0         0         0
         0         0         0         0         0         0         0         0
         0         0         0         0         0         0         0         0
         0         0         0         0         0         0         0         0
         0         0         0         0         0         0         0         0
         0         0         0         0         0         0         0         0
         0         0         0         0         0         0         0         0
         0         0         0         0         0         0         0         0
         0         0         0         0         0         0         0         0
         0         0         0         0         0         0         0         0
         0         0         0         0         0         0         0         0
         0         0         0         0         0         0         0         0
         0         0         0         0         0         0         0         0
         0         0         0         0         0         0         0         0
         0         0         0         0         0         0         0         0
         0         0         0         0         0         0         0         0
         0         0         0         0         0         0         0         0
         0         0         0         0         0         0         0         0
         0         0         0         0         0         0         0         0
         0         0         0         0         0         0         0         0
         0         0         0         0         0         0         0         0
         0         0         0         0         0         0         0         0
         0         0         0         0         0         0         0         0
         0         0         0         0         0         0         0         0
         0         0         0         0         0         0         0         0
         0         0         0         0         0         0         0         0
         0         0         0         0         0         0         0         0
         0         0         0         0         0         0         0         0
         0         0         0         0         0         0         0         0
         0         0         0         0         0         0         0         0
         0         0         0         0         0         0         0         0
         0         0         0         0         0         0         0         0
         0         0         0         0         0         0         0         0
         0         0         0         0         0         0         0         0
         0         0         0         0         0         0         0         0
         0         0         0         0         0         0         0         0
         0         0         0         0         0         0         0         0
         0         0         0         0         0         0         0         0
         0         0         0         0         0         0         0         0
         0         0         0         0         0         0         0         0
         0         0         0         0         0         0         0         0
         0         0         0         0         0         0         0         0
         0         0         0         0         0         0         0         0
         0         0         0         0         0         0         0         0
         0         0         0         0         0         0         0         0
         0         0         0         0         0         0         0         0
         0         0         0         0         0         0         0         0
         0         0         0         0         0         0         0         0
         0         0         0         0         0         0         0         0
         0         0         0         0         0         0         0         0
         0         0         0         0         0         0         0         0
         0         0         0         0         0         0         0         0
         0         0         0         0         0         0         0         0
         0         0         0         0         0         0         0         0
         0         0         0         0         0         0         0         0
         0         0         0         0         0         0         0         0
         0         0         0         0         0         0         0         0
         0         0         0         0         0         0         0         0
         0         0         0         0         0         0         0         0
         0         0         0         0         0         0         0         0
         0         0         0         0         0         0         0         0
         0         0         0         0         0         0         0         0
         0         0         0         0         0         0         0         0
         0         0         0         0         0         0         0         0
         0         0         0         0         0         0         0         0
         0         0         0         0         0         0         0         0
         0         0         0         0         0         0         0         0
         0         0         0         0         0         0         0         0
         0         0         0         0         0         0         0         0
         0         0         0         0         0         0         0         0
         0         0         0         0         0         0         0         0
         0         0         0         0         0         0         0         0
         0         0         0         0         0         0         0         0
         0         0         0         0         0         0         0         0
         0         0         0         0         0         0         0         0
         0         0         0         0         0         0         0         0
         0         0         0         0         0         0         0         0
         0         0         0         0         0         0         0         0
         0         0         0         0         0         0         0         0
         0         0         0         0         0         0         0         0
         0         0         0         0         0         0         0         0
         0         0         0         0         0         0         0         0
         0         0         0         0         0         0         0         0
         0         0         0         0         0         0         0         0
         0         0         0         0         0         0         0         0
         0         0         0         0         0         0         0         0
         0         0         0         0         0         0         0         0
         0         0         0         0         0         0         0         0
         0         0         0         0         0         0         0         0
         0         0         0         0         0         0         0         0
         0         0         0         0         0         0         0         0
         0         0         0         0         0         0         0         0
         0         0         0         0         0         0         0         0
         0         0         0         0         0         0         0         0
         0         0         0         0         0         0         0         0
         0         0         0         0         0         0         0         0
         0         0         0         0         0         0         0         0
         0         0         0         0         0         0         0         0
         0         0         0         0         0         0         0         0
         0         0         0         0         0         0         0         0
         0         0         0         0         0         0         0         0
         0         0         0         0         0         0         0         0
         0         0         0         0         0         0         0         0
         0         0         0         0         0         0         0         0
         0         0         0         0         0         0         0         0
         0         0         0         0         0         0         0         0
         0         0         0         0         0         0         0         0
         0         0         0         0         0         0         0         0
         0         0         0         0         0         0         0         0
         0         0         0         0         0         0         0         0
         0         0         0         0         0         0         0         0
         0         0         0         0         0         0         0         0
         0         0         0         0         0         0         0         0
         0         0         0         0         0         0         0         0
         0         0         0         0         0         0         0         0
         0         0         0         0         0         0         0         0
         0         0         0         0         0         0         0         0
         0         0         0         0         0         0         0         0
         0         0         0         0         0         0         0         0
         0         0         0         0         0         0         0         0
         0         0         0         0         0         0         0         0
         0         0         0         0         0         0         0         0
         0         0         0         0         0         0         0         0
         0         0         0         0         0         0         0         0
         0         0         0         0         0         0         0         0
         0         0         0         0         0         0         0         0
         0         0         0         0         0         0         0         0
         0         0         0         0         0         0         0         0
         0         0         0         0         0         0         0         0
         0         0         0         0         0         0         0         0
         0         0         0         0         0         0         0         0
         0         0         0         0         0         0         0         0
         0         0         0         0         0         0         0         0
         0         0         0         0         0         0         0         0
         0         0         0         0         0         0         0         0
         0         0         0         0         0         0         0         0
         0         0         0         0         0         0         0         0
         0         0         0         0         0         0         0         0
         0         0         0         0         0         0         0         0
         0         0         0         0         0         0         0         0
         0         0         0         0         0         0         0         0
         0         0         0         0         0         0         0         0
         0         0         0         0         0         0         0         0
         0         0         0         0         0         0         0         0
         0         0         0         0         0         0         0         0
         0         0         0         0         0         0         0         0
         0         0         0         0         0         0         0         0
         0         0         0         0         0         0         0         0
         0         0         0         0         0         0         0         0
         0         0         0         0         0         0         0         0
         0         0         0         0         0         0         0         0
         0         0         0         0         0         0         0         0
         0         0         0         0         0         0         0         0
         0         0         0         0         0         0         0         0
         0         0         0         0         0         0         0         0
         0         0         0         0         0         0         0         0
         0         0         0         0         0         0         0         0
         0         0         0         0         0         0         0         0
         0         0         0         0         0         0         0         0
         0         0         0         0         0         0         0         0
         0         0         0         0         0         0         0         0
         0         0         0         0         0         0         0         0
         0         0         0         0         0         0         0         0
         0         0         0         0         0         0         0         0
         0         0         0         0         0         0         0         0
         0         0         0         0         0         0         0         0
         0         0         0         0         0         0         0         0
         0         0         0         0         0         0         0         0
         0         0         0         0         0         0         0         0
         0         0         0         0         0         0         0         0
         0         0         0         0         0         0         0         0
         0         0         0         0         0         0         0         0
         0         0         0         0         0         0         0         0
         0         0         0         0         0         0         0         0
         0         0         0         0         0         0         0         0
         0         0         0         0         0         0         0         0
         0         0         0         0         0         0         0         0
         0         0         0         0         0         0         0         0
         0         0         0         0         0         0         0         0
         0         0         0         0         0         0         0         0
         0         0         0         0         0         0         0         0
         0         0         0         0         0         0         0         0
         0         0         0         0         0         0         0         0
         0         0         0         0         0         0         0         0
         0         0         0         0         0         0         0         0
         0         0         0         0         0         0         0         0
         0         0         0         0         0         0         0         0
         0         0         0         0         0         0         0         0
         0         0         0         0         0         0         0         0
         0         0         0         0         0         0         0         0
         0         0         0         0         0         0         0         0
         0         0         0         0         0         0         0         0
         0         0         0         0         0         0         0         0
         0         0         0         0         0         0         0         0
         0         0         0         0         0         0         0         0
         0         0         0         0         0         0         0         0
         0         0         0         0         0         0         0         0
         0         0         0         0         0         0         0         0
         0         0         0         0         0         0         0         0
         0         0         0         0         0         0         0         0
         0         0         0         0         0         0         0         0
         0         0         0         0         0         0         0         0
         0         0         0         0         0         0         0         0
         0         0         0         0         0         0         0         0
         0         0         0         0         0         0         0         0
         0         0         0         0         0         0         0         0
         0         0         0         0         0         0         0         0
         0         0         0         0         0         0         0         0
         0         0         0         0         0         0         0         0
         0         0         0         0         0         0         0         0
         0         0         0         0         0         0         0         0
         0         0         0         0         0         0         0         0
         0         0         0         0         0         0         0         0
         0         0         0         0         0         0         0         0
         0         0         0         0         0         0         0         0
         0         0         0         0         0         0         0         0
         0         0         0         0         0         0         0         0
         0         0         0         0         0         0         0         0
         0         0         0         0         0         0         0         0
         0         0         0         0         0         0         0         0
         0         0         0         0         0         0         0         0
         0         0         0         0         0         0         0         0
         0         0         0         0         0         0         0         0
         0         0         0         0         0         0         0         0
         0         0         0         0         0         0         0         0
         0         0         0         0         0         0         0         0
         0         0         0         0         0         0         0         0
         0         0         0         0         0         0         0         0
         0         0         0         0         0         0         0         0
         0         0         0         0         0         0         0         0
         0         0         0         0         0         0         0         0
         0         0         0         0         0         0         0         0
         0         0         0         0         0         0         0         0
         0         0         0         0         0         0         0         0
         0         0         0         0         0         0         0         0
         0         0         0         0         0         0         0         0
         0         0         0         0         0         0         0         0
         0         0         0         0         0         0         0         0
         0         0         0         0         0         0         0         0
         0         0         0         0         0         0         0         0
         0         0         0         0         0         0         0         0
         0         0         0         0         0         0         0         0
         0         0         0         0         0         0         0         0
         0         0         0         0         0         0         0         0
         0         0         0         0         0         0         0         0
         0         0         0         0         0         0         0         0
         0         0         0         0         0         0         0         0
         0         0         0         0         0         0         0         0
         0         0         0         0         0         0         0         0
         0         0         0         0         0         0         0         0
         0         0         0         0         0         0         0         0
         0         0         0         0         0         0         0         0
         0         0         0         0         0         0         0         0
         0         0         0         0         0         0         0         0
         0         0         0         0         0         0         0         0
         0         0         0         0         0         0         0         0
         0         0         0         0         0         0         0         0
         0         0         0         0         0         0         0         0
         0         0         0         0         0         0         0         0
         0         0         0         0         0         0         0         0
         0         0         0         0         0         0         0         0
         0         0         0         0         0         0         0         0
         0         0         0         0         0         0         0         0
         0         0         0         0         0         0         0         0
         0         0         0         0         0         0         0         0
         0         0         0         0         0         0         0         0
         0         0         0         0         0         0         0         0
         0         0         0         0         0         0         0         0
         0         0         0         0         0         0         0         0
         0         0         0         0         0         0         0         0
         0         0         0         0         0         0         0         0
         0         0         0         0         0         0         0         0
         0         0         0         0         0         0         0         0
         0         0         0         0         0         0         0         0
         0         0         0         0         0         0         0         0
         0         0         0         0         0         0         0         0
         0         0         0         0         0         0         0         0
         0         0         0         0         0         0         0         0
         0         0         0         0         0         0         0         0
         0         0         0         0         0         0         0         0
         0         0         0         0         0         0         0         0
         0         0         0         0         0         0         0         0
         0         0         0         0         0         0         0         0
         0         0         0         0         0         0         0         0
         0         0         0         0         0         0         0         0
         0         0         0         0         0         0         0         0
         0         0         0         0         0         0         0         0
         0         0         0         0         0         0         0         0
         0         0         0         0         0         0         0         0
         0         0         0         0         0         0         0         0
         0         0         0         0         0         0         0         0
         0         0         0         0         0         0         0         0
         0         0         0         0         0         0         0         0
         0         0         0         0         0         0         0         0
         0         0         0         0         0         0         0         0
         0         0         0         0         0         0         0         0
         0         0         0         0         0         0         0         0
         0         0         0         0         0         0         0         0
         0         0         0         0         0         0         0         0
         0         0         0         0         0         0         0         0
         0         0         0         0         0         0         0         0
         0         0         0         0         0         0         0         0
         0         0         0         0         0         0         0         0
         0         0         0         0         0         0         0         0
         0         0         0         0         0         0         0         0
         0         0         0         0         0         0         0         0
         0         0         0         0         0         0         0         0
         0         0         0         0         0         0         0         0
         0         0         0         0         0         0         0         0
         0         0         0         0         0         0         0         0
         0         0         0         0         0         0         0         0
         0         0         0         0         0         0         0         0
         0         0         0         0         0         0         0         0
         0         0         0         0         0         0         0         0
         0         0         0         0         0         0         0         0
         0         0         0         0         0         0         0         0
         0         0         0         0         0         0         0         0
         0         0         0         0         0         0         0         0
         0         0         0         0         0         0         0         0
         0         0         0         0         0         0         0         0
         0         0         0         0         0         0         0         0
         0         0         0         0         0         0         0         0
         0         0         0         0         0         0         0         0
         0         0         0         0         0         0         0         0
         0         0         0         0         0         0         0         0
         0         0         0         0         0         0         0         0
         0         0         0         0         0         0         0         0
         0         0         0         0         0         0         0         0
         0         0         0         0         0         0         0         0
         0         0         0         0         0         0         0         0
         0         0         0         0         0         0         0         0
         0         0         0         0         0         0         0         0
         0         0         0         0         0         0         0         0
         0         0         0         0         0         0         0         0
         0         0         0         0         0         0         0         0
         0         0         0         0         0         0         0         0
         0         0         0         0         0         0         0         0
         0         0         0         0         0         0         0         0
         0         0         0         0         0         0         0         0
         0         0         0         0         0         0         0         0
         0         0         0         0         0         0         0         0
         0         0         0         0         0         0         0         0
         0         0         0         0         0         0         0         0
         0         0         0         0         0         0         0         0
         0         0         0         0         0         0         0         0
         0         0         0         0         0         0         0         0
         0         0         0         0         0         0         0         0
         0         0         0         0         0         0         0         0
         0         0         0         0         0         0         0         0
         0         0         0         0         0         0         0         0
         0         0         0         0         0         0         0         0
         0         0         0         0         0         0         0         0
         0         0         0         0         0         0         0         0
         0         0         0         0         0         0         0         0
         0         0         0         0         0         0         0         0
         0         0         0         0         0         0         0         0
         0         0         0         0         0         0         0         0
         0         0         0         0         0         0         0         0
         0         0         0         0         0         0         0         0
         0         0         0         0         0         0         0         0
         0         0         0         0         0         0         0         0
         0         0         0         0         0         0         0         0
         0         0         0         0         0         0         0         0
         0         0         0         0         0         0         0         0
         0         0         0         0         0         0         0         0
         0         0         0         0         0         0         0         0
         0         0         0         0         0         0         0         0
         0         0         0         0         0         0         0         0
         0         0         0         0         0         0         0         0
         0         0         0         0         0         0         0         0
         0         0         0         0         0         0         0         0
         0         0         0         0         0         0         0         0
         0         0         0         0         0         0         0         0
         0         0         0         0         0         0         0         0
         0         0         0         0         0         0         0         0
         0         0         0         0         0         0         0         0
         0         0         0         0         0         0         0         0
         0         0         0         0         0         0         0         0
         0         0         0         0         0         0         0         0
         0         0         0         0         0         0         0         0
         0         0         0         0         0         0         0         0
         0         0         0         0         0         0         0         0
         0         0         0         0         0         0         0         0
         0         0         0         0         0         0         0         0
         0         0         0         0         0         0         0         0
         0         0         0         0         0         0         0         0
         0         0         0         0         0         0         0         0
         0         0         0         0         0         0         0         0
         0         0         0         0         0         0         0         0
         0         0         0         0         0         0         0         0
         0         0         0         0         0         0         0         0
         0         0         0         0         0         0         0         0
         0         0         0         0         0         0         0         0
         0         0         0         0         0         0         0         0
         0         0         0         0         0         0         0         0
         0         0         0         0         0         0         0         0
         0         0         0         0         0         0         0         0
         0         0         0         0         0         0         0         0
         0         0         0         0         0         0         0         0
         0         0         0         0         0         0         0         0
         0         0         0         0         0         0         0         0
         0         0         0         0         0         0         0         0
         0         0         0         0         0         0         0         0
         0         0         0         0         0         0         0         0
         0         0         0         0         0         0         0         0
         0         0         0         0         0         0         0         0
         0         0         0         0         0         0         0         0
         0         0         0         0         0         0         0         0
         0         0         0         0         0         0         0         0
         0         0         0         0         0         0         0         0
         0         0         0         0         0         0         0         0
         0         0         0         0         0         0         0         0
         0         0         0         0         0         0         0         0
         0         0         0         0         0         0         0         0
         0         0         0         0         0         0         0         0
         0         0         0         0         0         0         0         0
         0         0         0         0         0         0         0         0
         0         0         0         0         0         0         0         0
         0         0         0         0         0         0         0         0
         0         0         0         0         0         0         0         0
         0         0         0         0         0         0         0         0
         0         0         0         0         0         0         0         0
         0         0         0         0         0         0         0         0
         0         0         0         0         0         0         0         0
         0         0         0         0         0         0         0         0
         0         0         0         0         0         0         0         0
         0         0         0         0         0         0         0         0
         0         0         0         0         0         0         0         0
         0         0         0         0         0         0         0         0
         0         0         0         0         0         0         0         0
         0         0         0         0         0         0         0         0
         0         0         0         0         0         0         0         0
         0         0         0         0         0         0         0         0
         0         0         0         0         0         0         0         0
         0         0         0         0         0         0         0         0
         0         0         0         0         0         0         0         0
         0         0         0         0         0         0         0         0
         0         0         0         0         0         0         0         0
         0         0         0         0         0         0         0         0
         0         0         0         0         0         0         0         0
         0         0         0         0         0         0         0         0
         0         0         0         0         0         0         0         0
         0         0         0         0         0         0         0         0
         0         0         0         0         0         0         0         0
         0         0         0         0         0         0         0         0
         0         0         0         0         0         0         0         0
         0         0         0         0         0         0         0         0
         0         0         0         0         0         0         0         0
         0         0         0         0         0         0         0         0
         0         0         0         0         0         0         0         0
         0         0         0         0         0         0         0         0
         0         0         0         0         0         0         0         0
         0         0         0         0         0         0         0         0
         0         0         0         0         0         0         0         0
         0         0         0         0         0         0         0         0
         0         0         0         0         0         0         0         0
         0         0         0         0         0         0         0         0
         0         0         0         0         0         0         0         0
         0         0         0         0         0         0         0         0
         0         0         0         0         0         0         0         0
         0         0         0         0         0         0         0         0
         0         0         0         0         0         0         0         0
         0         0         0         0         0         0         0         0
         0         0         0         0         0         0         0         0
         0         0         0         0         0         0         0         0
         0         0         0         0         0         0         0         0
         0         0         0         0         0         0         0         0
         0         0         0         0         0         0         0         0
         0         0         0         0         0         0         0         0
         0         0         0         0         0         0         0         0
         0         0         0         0         0         0         0         0
         0         0         0         0         0         0         0         0
         0         0         0         0         0         0         0         0
         0         0         0         0         0         0         0         0
         0         0         0         0         0         0         0         0
         0         0         0         0         0         0         0         0
         0         0         0         0         0         0         0         0
         0         0         0         0         0         0         0         0
         0         0         0         0         0         0         0         0
         0         0         0         0         0         0         0         0
         0         0         0         0         0         0         0         0
         0         0         0         0         0         0         0         0
         0         0         0         0         0         0         0         0
         0         0         0         0         0         0         0         0
         0         0         0         0         0         0         0         0
         0         0         0         0         0         0         0         0
         0         0         0         0         0         0         0         0
         0         0         0         0         0         0         0         0
         0         0         0         0         0         0         0         0
         0         0         0         0         0         0         0         0
         0         0         0         0         0         0         0         0
         0         0         0         0         0         0         0         0
         0         0         0         0         0         0         0         0
         0         0         0         0         0         0         0         0
         0         0         0         0         0         0         0         0
         0         0         0         0         0         0         0         0
         0         0         0         0         0         0         0         0
         0         0         0         0         0         0         0         0
         0         0         0         0         0         0         0         0
         0         0         0         0         0         0         0         0
         0         0         0         0         0         0         0         0
         0         0         0         0         0         0         0         0
         0         0         0         0         0         0         0         0
         0         0         0         0         0         0         0         0
         0         0         0         0         0         0         0         0
         0         0         0         0         0         0         0         0
         0         0         0         0         0         0         0         0
         0         0         0         0         0         0         0         0
         0         0         0         0         0         0         0         0
         0         0         0         0         0         0         0         0
         0         0         0         0         0         0         0         0
         0         0         0         0         0         0         0         0
         0         0         0         0         0         0         0         0
         0         0         0         0         0         0         0         0
         0         0         0         0         0         0         0         0
         0         0         0         0         0         0         0         0
         0         0         0         0         0         0         0         0
         0         0         0         0         0         0         0         0
         0         0         0         0         0         0         0         0
         0         0         0         0         0         0         0         0
         0         0         0         0         0         0         0         0
         0         0         0         0         0         0         0         0
         0         0         0         0         0         0         0         0
         0         0         0         0         0         0         0         0
         0         0         0         0         0         0         0         0
         0         0         0         0         0         0         0         0
         0         0         0         0         0         0         0         0
         0         0         0         0         0         0         0         0
         0         0         0         0         0         0         0         0
         0         0         0         0         0         0         0         0
         0         0         0         0         0         0         0         0
         0         0         0         0         0         0         0         0
         0         0         0         0         0         0         0         0
         0         0         0         0         0         0         0         0
         0         0         0         0         0         0         0         0
         0         0         0         0         0         0         0         0
         0         0         0         0         0         0         0         0
         0         0         0         0         0         0         0         0
         0         0         0         0         0         0         0         0
         0         0         0         0         0         0         0         0
         0         0         0         0         0         0         0         0
         0         0         0         0         0         0         0         0
         0         0         0         0         0         0         0         0
         0         0         0         0         0         0         0         0
         0         0         0         0         0         0         0         0
         0         0         0         0         0         0         0         0
         0         0         0         0         0         0         0         0
         0         0         0         0         0         0         0         0
         0         0         0         0         0         0         0         0
         0         0         0         0         0         0         0         0
         0         0         0         0         0         0         0         0
         0         0         0         0         0         0         0         0
         0         0         0         0         0         0         0         0
         0         0         0         0         0         0         0         0
         0         0         0         0         0         0         0         0
         0         0         0         0         0         0         0         0
         0         0         0         0         0         0         0         0
         0         0         0         0         0         0         0         0
         0         0         0         0         0         0         0         0
         0         0         0         0         0         0         0         0
         0         0         0         0         0         0         0         0
         0         0         0         0         0         0         0         0
         0         0         0         0         0         0         0         0
         0         0         0         0         0         0         0         0
         0         0         0         0         0         0         0         0
         0         0         0         0         0         0         0         0
         0         0         0         0         0         0         0         0
         0         0         0         0         0         0         0         0
         0         0         0         0         0         0         0         0
         0         0         0         0         0         0         0         0
         0         0         0         0         0         0         0         0
         0         0         0         0         0         0         0         0
         0         0         0         0         0         0         0         0
         0         0         0         0         0         0         0         0
         0         0         0         0         0         0         0         0
         0         0         0         0         0         0         0         0
         0         0         0         0         0         0         0         0
         0         0         0         0         0         0         0         0
         0         0         0         0         0         0         0         0
         0         0         0         0         0         0         0         0
         0         0         0         0         0         0         0         0
         0         0         0         0         0         0         0         0
         0         0         0         0         0         0         0         0
         0         0         0         0         0         0         0         0
         0         0         0         0         0         0         0         0
         0         0         0         0         0         0         0         0
         0         0         0         0         0         0         0         0
         0         0         0         0         0         0         0         0
         0         0         0         0         0         0         0         0
         0         0         0         0         0         0         0         0
         0         0         0         0         0         0         0         0
         0         0         0         0         0         0         0         0
         0         0         0         0         0         0         0         0
         0         0         0         0         0         0         0         0
         0         0         0         0         0         0         0         0
         0         0         0         0         0         0         0         0
         0         0         0         0         0         0         0         0
         0         0         0         0         0         0         0         0
         0         0         0         0         0         0         0         0
         0         0         0         0         0         0         0         0
         0         0         0         0         0         0         0         0
         0         0         0         0         0         0         0         0
         0         0         0         0         0         0         0         0
         0         0         0         0         0         0         0         0
         0         0         0         0         0         0         0         0
         0         0         0         0         0         0         0         0
         0         0         0         0         0         0         0         0
         0         0         0         0         0         0         0         0
         0         0         0         0         0         0         0         0
         0         0         0         0         0         0         0         0
         0         0         0         0         0         0         0         0
         0         0         0         0         0         0         0         0
         0         0         0         0         0         0         0         0
         0         0         0         0         0         0         0         0
         0         0         0         0         0         0         0         0
         0         0         0         0         0         0         0         0
         0         0         0         0         0         0         0         0
         0         0         0         0         0         0         0         0
         0         0         0         0         0         0         0         0
         0         0         0         0         0         0         0         0
         0         0         0         0         0         0         0         0
         0         0         0         0         0         0         0         0
         0         0         0         0         0         0         0         0
         0         0         0         0         0         0         0         0
         0         0         0         0         0         0         0         0
         0         0         0         0         0         0         0         0
         0         0         0         0         0         0         0         0
         0         0         0         0         0         0         0         0
         0         0         0         0         0         0         0         0
         0         0         0         0         0         0         0         0
         0         0         0         0         0         0         0         0
         0         0         0         0         0         0         0         0
         0         0         0         0         0         0         0         0
         0         0         0         0         0         0         0         0
         0         0         0         0         0         0         0         0
         0         0         0         0         0         0         0         0
         0         0         0         0         0         0         0         0
         0         0         0         0         0         0         0         0
         0         0         0         0         0         0         0         0
         0         0         0         0         0         0         0         0
         0         0         0         0         0         0         0         0
         0         0         0         0         0         0         0         0
         0         0         0         0         0         0         0         0
         0         0         0         0         0         0         0         0
         0         0         0         0         0         0         0         0
         0         0         0         0         0         0         0         0
         0         0         0         0         0         0         0         0
         0         0         0         0         0         0         0         0
         0         0         0         0         0         0         0         0
         0         0         0         0         0         0         0         0
         0         0         0         0         0         0         0         0
         0         0         0         0         0         0         0         0
         0         0         0         0         0         0         0         0
         0         0         0         0         0         0         0         0
         0         0         0         0         0         0         0         0
         0         0         0         0         0         0         0         0
         0         0         0         0         0         0         0         0
         0         0         0         0         0         0         0         0
         0         0         0         0         0         0         0         0
         0         0         0         0         0         0         0         0
         0         0         0         0         0         0         0         0
         0         0         0         0         0         0         0         0
         0         0         0         0         0         0         0         0
         0         0         0         0         0         0         0         0
         0         0         0         0         0         0         0         0
         0         0         0         0         0         0         0         0
         0         0         0         0         0         0         0         0
         0         0         0         0         0         0         0         0
         0         0         0         0         0         0         0         0
         0         0         0         0         0         0         0         0
         0         0         0         0         0         0         0         0
         0         0         0         0         0         0         0         0
         0         0         0         0         0         0         0         0
         0         0         0         0         0         0         0         0
         0         0         0         0         0         0         0         0
         0         0         0         0         0         0         0         0
         0         0         0         0         0         0         0         0
         0         0         0         0         0         0         0         0
         0         0         0         0         0         0         0         0
         0         0         0         0         0         0         0         0
         0         0         0         0         0         0         0         0
         0         0         0         0         0         0         0         0
         0         0         0         0         0         0         0         0
         0         0         0         0         0         0         0         0
         0         0         0         0         0         0         0         0
         0         0         0         0         0         0         0         0
         0         0         0         0         0         0         0         0
         0         0         0         0         0         0         0         0
         0         0         0         0         0         0         0         0
         0         0         0         0         0         0         0         0
         0         0         0         0         0         0         0         0
         0         0         0         0         0         0         0         0
         0         0         0         0         0         0         0         0
         0         0         0         0         0         0         0         0
         0         0         0         0         0         0         0         0
         0         0         0         0         0         0         0         0
         0         0         0         0         0         0         0         0
         0         0         0         0         0         0         0         0
         0         0         0         0         0         0         0         0
         0         0         0         0         0         0         0         0
         0         0         0         0         0         0         0         0
         0         0         0         0         0         0         0         0
         0         0         0         0         0         0         0         0
         0         0         0         0         0         0         0         0
         0         0         0         0         0         0         0         0
         0         0         0         0         0         0         0         0
         0         0         0         0         0         0         0         0
         0         0         0         0         0         0         0         0
         0         0         0         0         0         0         0         0
         0         0         0         0         0         0         0         0
         0         0         0         0         0         0         0         0
         0         0         0         0         0         0         0         0
         0         0         0         0         0         0         0         0
         0         0         0         0         0         0         0         0
         0         0         0         0         0         0         0         0
         0         0         0         0         0         0         0         0
         0         0         0         0         0         0         0         0
         0         0         0         0         0         0         0         0
         0         0         0         0         0         0         0         0
         0         0         0         0         0         0         0         0
         0         0         0         0         0         0         0         0
         0         0         0         0         0         0         0         0
         0         0         0         0         0         0         0         0
         0         0         0         0         0         0         0         0
         0         0         0         0         0         0         0         0
         0         0         0         0         0         0         0         0
         0         0         0         0         0         0         0         0
         0         0         0         0         0         0         0         0
         0         0         0         0         0         0         0         0
         0         0         0         0         0         0         0         0
         0         0         0         0         0         0         0         0
         0         0         0         0         0         0         0         0
         0         0         0         0         0         0         0         0
         0         0         0         0         0         0         0         0
         0         0         0         0         0         0         0         0
         0         0         0         0         0         0         0         0
         0         0         0         0         0         0         0         0
         0         0         0         0         0         0         0         0
         0         0         0         0         0         0         0         0
         0         0         0         0         0         0         0         0
         0         0         0         0         0         0         0         0
         0         0         0         0         0         0         0         0
         0         0         0         0         0         0         0         0
         0         0         0         0         0         0         0         0
         0         0         0         0         0         0         0         0
         0         0         0         0         0         0         0         0
         0         0         0         0         0         0         0         0
         0         0         0         0         0         0         0         0
         0         0         0         0         0         0         0         0
         0         0         0         0         0         0         0         0
         0         0         0         0         0         0         0         0
         0         0         0         0         0         0         0         0
         0         0         0         0         0         0         0         0
         0         0         0         0         0         0         0         0
         0         0         0         0         0         0         0         0
         0         0         0         0         0         0         0         0
         0         0         0         0         0         0         0         0
         0         0         0         0         0         0         0         0
         0         0         0         0         0         0         0         0
         0         0         0         0         0         0         0         0
         0         0         0         0         0         0         0         0
         0         0         0         0         0         0         0         0
         0         0         0         0         0         0         0         0
         0         0         0         0         0         0         0         0
         0         0         0         0         0         0         0         0
         0         0         0         0         0         0         0         0
         0         0         0         0         0         0         0         0
         0         0         0         0         0         0         0         0
         0         0         0         0         0         0         0         0
         0         0         0         0         0         0         0         0
         0         0         0         0         0         0         0         0
         0         0         0         0         0         0         0         0
         0         0         0         0         0         0         0         0
         0         0         0         0         0         0         0         0
         0         0         0         0         0         0         0         0
         0         0         0         0         0         0         0         0
         0         0         0         0         0         0         0         0
         0         0         0         0         0         0         0         0
         0         0         0         0         0         0         0         0
         0         0         0         0         0         0         0         0
         0         0         0         0         0         0         0         0
         0         0         0         0         0         0         0         0
         0         0         0         0         0         0         0         0
         0         0         0         0         0         0         0         0
         0         0         0         0         0         0         0         0
         0         0         0         0         0         0         0         0
         0         0         0         0         0         0         0         0
         0         0         0         0         0         0         0         0
         0         0         0         0         0         0         0         0
         0         0         0         0         0         0         0         0
         0         0         0         0         0         0         0         0
         0         0         0         0         0         0         0         0
         0         0         0         0         0         0         0         0
         0         0         0         0         0         0         0         0
         0         0         0         0         0         0         0         0
         0         0         0         0         0         0         0         0
         0         0         0         0         0         0         0         0
         0         0         0         0         0         0         0         0
         0         0         0         0         0         0         0         0
         0         0         0         0         0         0         0         0
         0         0         0         0         0         0         0         0
         0         0         0         0         0         0         0         0
         0         0         0         0         0         0         0         0
         0         0         0         0         0         0         0         0
         0         0         0         0         0         0         0         0
         0         0         0         0         0         0         0         0
         0         0         0         0         0         0         0         0
         0         0         0         0         0         0         0         0
         0         0         0         0         0         0         0         0
         0         0         0         0         0         0         0         0
         0         0         0         0         0         0         0         0
         0         0         0         0         0         0         0         0
         0         0         0         0         0         0         0         0
         0         0         0         0         0         0         0         0
         0         0         0         0         0         0         0         0
         0         0         0         0         0         0         0         0
         0         0         0         0         0         0         0         0
         0         0         0         0         0         0         0         0
         0         0         0         0         0         0         0         0
         0         0         0         0         0         0         0         0
         0         0         0         0         0         0         0         0
         0         0         0         0         0         0         0         0
         0         0         0         0         0         0         0         0
         0         0         0         0         0         0         0         0
         0         0         0         0         0         0         0         0
         0         0         0         0         0         0         0         0
         0         0         0         0         0         0         0         0
         0         0         0         0         0         0         0         0
         0         0         0         0         0         0         0         0
         0         0         0         0         0         0         0         0
         0         0         0         0         0         0         0         0
         0         0         0         0         0         0         0         0
         0         0         0         0         0         0         0         0
         0         0         0         0         0         0         0         0
         0         0         0         0         0         0         0         0
         0         0         0         0         0         0         0         0
         0         0         0         0         0         0         0         0
         0         0         0         0         0         0         0         0
         0         0         0         0         0         0         0         0
         0         0         0         0         0         0         0         0
         0         0         0         0         0         0         0         0
         0         0         0         0         0         0         0         0
         0         0         0         0         0         0         0         0
         0         0         0         0         0         0         0         0
         0         0         0         0         0         0         0         0
         0         0         0         0         0         0         0         0
         0         0         0         0         0         0         0         0
         0         0         0         0         0         0         0         0
         0         0         0         0         0         0         0         0
         0         0         0         0         0         0         0         0
         0         0         0         0         0         0         0         0
         0         0         0         0         0         0         0         0
         0         0         0         0         0         0         0         0
         0         0         0         0         0         0         0         0
         0         0         0         0         0         0         0         0
         0         0         0         0         0         0         0         0
         0         0         0         0         0         0         0         0
         0         0         0         0         0         0         0         0
         0         0         0         0         0         0         0         0
         0         0         0         0         0         0         0         0
         0         0         0         0         0         0         0         0
         0         0         0         0         0         0         0         0
         0         0         0         0         0         0         0         0
         0         0         0         0         0         0         0         0
         0         0         0         0         0         0         0         0
         0         0         0         0         0         0         0         0
         0         0         0         0         0         0         0         0
         0         0         0         0         0         0         0         0
         0         0         0         0         0         0         0         0
         0         0         0         0         0         0         0         0
         0         0         0         0         0         0         0         0
         0         0         0         0         0         0         0         0
         0         0         0         0         0         0         0         0
         0         0         0         0         0         0         0         0
         0         0         0         0         0         0         0         0
         0         0         0         0         0         0         0         0
         0         0         0         0         0         0         0         0
         0         0         0         0         0         0         0         0
         0         0         0         0         0         0         0         0
         0         0         0         0         0         0         0         0
         0         0         0         0         0         0         0         0
         0         0         0         0         0         0         0         0
         0         0         0         0         0         0         0         0
         0         0         0         0         0         0         0         0
         0         0         0         0         0         0         0         0
         0         0         0         0         0         0         0         0
         0         0         0         0         0         0         0         0
         0         0         0         0         0         0         0         0
         0         0         0         0         0         0         0         0
         0         0         0         0         0         0         0         0
         0         0         0         0         0         0         0         0
         0         0         0         0         0         0         0         0
         0         0         0         0         0         0         0         0
         0         0         0         0         0         0         0         0
         0         0         0         0         0         0         0         0
         0         0         0         0         0         0         0         0
         0         0         0         0         0         0         0         0
         0         0         0         0         0         0         0         0
         0         0         0         0         0         0         0         0
         0         0         0         0         0         0         0         0
         0         0         0         0         0         0         0         0
         0         0         0         0         0         0         0         0
         0         0         0         0         0         0         0         0
         0         0         0         0         0         0         0         0
         0         0         0         0         0         0         0         0
         0         0         0         0         0         0         0         0
         0         0         0         0         0         0         0         0
         0         0         0         0         0         0         0         0
         0         0         0         0         0         0         0         0
         0         0         0         0         0         0         0         0
         0         0         0         0         0         0         0         0
         0         0         0         0         0         0         0         0
         0         0         0         0         0         0         0         0
         0         0         0         0         0         0         0         0
         0         0         0         0         0         0         0         0
         0         0         0         0         0         0         0         0
         0         0         0         0         0         0         0         0
         0         0         0         0         0         0         0         0
         0         0         0         0         0         0         0         0
         0         0         0         0         0         0         0         0
         0         0         0         0         0         0         0         0
         0         0         0         0         0         0         0         0
         0         0         0         0         0         0         0         0
         0         0         0         0         0         0         0         0
         0         0         0         0         0         0         0         0
         0         0         0         0         0         0         0         0
         0         0         0         0         0         0         0         0
         0         0         0         0         0         0         0         0
         0         0         0         0         0         0         0         0
         0         0         0         0         0         0         0         0
         0         0         0         0         0         0         0         0
         0         0         0         0         0         0         0         0
         0         0         0         0         0         0         0         0
         0         0         0         0         0         0         0         0
         0         0         0         0         0         0         0         0
         0         0         0         0         0         0         0         0
         0         0         0         0         0         0         0         0
         0         0         0         0         0         0         0         0
         0         0         0         0         0         0         0         0
         0         0         0         0         0         0         0         0
         0         0         0         0         0         0         0         0
         0         0         0         0         0         0         0         0
         0         0         0         0         0         0         0         0
         0         0         0         0         0         0         0         0
         0         0         0         0         0         0         0         0
         0         0         0         0         0         0         0         0
         0         0         0         0         0         0         0         0
         0         0         0         0         0         0         0         0
         0         0         0         0         0         0         0         0
         0         0         0         0         0         0         0         0
         0         0         0         0         0         0         0         0
         0         0         0         0         0         0         0         0
         0         0         0         0         0         0         0         0
         0         0         0         0         0         0         0         0
         0         0         0         0         0         0         0         0
         0         0         0         0         0         0         0         0
         0         0         0         0         0         0         0         0
         0         0         0         0         0         0         0         0
         0         0         0         0         0         0         0         0
         0         0         0         0         0         0         0         0
         0         0         0         0         0         0         0         0
         0         0         0         0         0         0         0         0
         0         0         0         0         0         0         0         0
         0         0         0         0         0         0         0         0
         0         0         0         0         0         0         0         0
         0         0         0         0         0         0         0         0
         0         0         0         0         0         0         0         0
         0         0         0         0         0         0         0         0
         0         0         0         0         0         0         0         0
         0         0         0         0         0         0         0         0
         0         0         0         0         0         0         0         0
         0         0         0         0         0         0         0         0
         0         0         0         0         0         0         0         0
         0         0         0         0         0         0         0         0
         0         0         0         0         0         0         0         0
         0         0         0         0         0         0         0         0
         0         0         0         0         0         0         0         0
         0         0         0         0         0         0         0         0
         0         0         0         0         0         0         0         0
         0         0         0         0         0         0         0         0
         0         0         0         0         0         0         0         0
         0         0         0         0         0         0         0         0
         0         0         0         0         0         0         0         0
         0         0         0         0         0         0         0         0
         0         0         0         0         0         0         0         0
         0         0         0         0         0         0         0         0
         0         0         0         0         0         0         0         0
         0         0         0         0         0         0         0         0
         0         0         0         0         0         0         0         0
         0         0         0         0         0         0         0         0
         0         0         0         0         0         0         0         0
         0         0         0         0         0         0         0         0
         0         0         0         0         0         0         0         0
         0         0         0         0         0         0         0         0
         0         0         0         0         0         0         0         0
         0         0         0         0         0         0         0         0
         0         0         0         0         0         0         0         0
         0         0         0         0         0         0         0         0
         0         0         0         0         0         0         0         0
         0         0         0         0         0         0         0         0
         0         0         0         0         0         0         0         0
         0         0         0         0         0         0         0         0
         0         0         0         0         0         0         0         0
         0         0         0         0         0         0         0         0
         0         0         0         0         0         0         0         0
         0         0         0         0         0         0         0         0
         0         0         0         0         0         0         0         0
         0         0         0         0         0         0         0         0
         0         0         0         0         0         0         0         0
         0         0         0         0         0         0         0         0
         0         0         0         0         0         0         0         0
         0         0         0         0         0         0         0         0
         0         0         0         0         0         0         0         0
         0         0         0         0         0         0         0         0
         0         0         0         0         0         0         0         0
         0         0         0         0         0         0         0         0
         0         0         0         0         0         0         0         0
         0         0         0         0         0         0         0         0
         0         0         0         0         0         0         0         0
         0         0         0         0         0         0         0         0
         0         0         0         0         0         0         0         0
         0         0         0         0         0         0         0         0
         0         0         0         0         0         0         0         0
         0         0         0         0         0         0         0         0
         0         0         0         0         0         0         0         0
         0         0         0         0         0         0         0         0
         0         0         0         0         0         0         0         0
         0         0         0         0         0         0         0         0
         0         0         0         0         0         0         0         0
         0         0         0         0         0         0         0         0
         0         0         0         0         0         0         0         0
         0         0         0         0         0         0         0         0
         0         0         0         0         0         0         0         0
         0         0         0         0         0         0         0         0
         0         0         0         0         0         0         0         0
         0         0         0         0         0         0         0         0
         0         0         0         0         0         0         0         0
         0         0         0         0         0         0         0         0
         0         0         0         0         0         0         0         0
         0         0         0         0         0         0         0         0
         0         0         0         0         0         0         0         0
         0         0         0         0         0         0         0         0
         0         0         0         0         0         0         0         0
         0         0         0         0         0         0         0         0
         0         0         0         0         0         0         0         0
         0         0         0         0         0         0         0         0
         0         0         0         0         0         0         0         0
         0         0         0         0         0         0         0         0
         0         0         0         0         0         0         0         0
         0         0         0         0         0         0         0         0
         0         0         0         0         0         0         0         0
         0         0         0         0         0         0         0         0
         0         0         0         0         0         0         0         0
         0         0         0         0         0         0         0         0
         0         0         0         0         0         0         0         0
         0         0         0         0         0         0         0         0
         0         0         0         0         0         0         0         0
         0         0         0         0         0         0         0         0
         0         0         0         0         0         0         0         0
         0         0         0         0         0         0         0         0
         0         0         0         0         0         0         0         0
         0         0         0         0         0         0         0         0
         0         0         0         0         0         0         0         0
         0         0         0         0         0         0         0         0
         0         0         0         0         0         0         0         0
         0         0         0         0         0         0         0         0
         0         0         0         0         0         0         0         0
         0         0         0         0         0         0         0         0
         0         0         0         0         0         0         0         0
         0         0         0         0         0         0         0         0
         0         0         0         0         0         0         0         0
         0         0         0         0         0         0         0         0
         0         0         0         0         0         0         0         0
         0         0         0         0         0         0         0         0
         0         0         0         0         0         0         0         0
         0         0         0         0         0         0         0         0
         0         0         0         0         0         0         0         0
         0         0         0         0         0         0         0         0
         0         0         0         0         0         0         0         0
         0         0         0         0         0         0         0         0
         0         0         0         0         0         0         0         0
         0         0         0         0         0         0         0         0
         0         0         0         0         0         0         0         0
         0         0         0         0         0         0         0         0
         0         0         0         0         0         0         0         0
         0         0         0         0         0         0         0         0
         0         0         0         0         0         0         0         0
         0         0         0         0         0         0         0         0
         0         0         0         0         0         0         0         0
         0         0         0         0         0         0         0         0
         0         0         0         0         0         0         0         0
         0         0         0         0         0         0         0         0
         0         0         0         0         0         0         0         0
         0         0         0         0         0         0         0         0
         0         0         0         0         0         0         0         0
         0         0         0         0         0         0         0         0
         0         0         0         0         0         0         0         0
         0         0         0         0         0         0         0         0
         0         0         0         0         0         0         0         0
         0         0         0         0         0         0         0         0
         0         0         0         0         0         0         0         0
         0         0         0         0         0         0         0         0
         0         0         0         0         0         0         0         0
         0         0         0         0         0         0         0         0
         0         0         0         0         0         0         0         0
         0         0         0         0         0         0         0         0
         0         0         0         0         0         0         0         0
         0         0         0         0         0         0         0         0
         0         0         0         0         0         0         0         0
         0         0         0         0         0         0         0         0
         0         0         0         0         0         0         0         0
         0         0         0         0         0         0         0         0
         0         0         0         0         0         0         0         0
         0         0         0         0         0         0         0         0
         0         0         0         0         0         0         0         0
         0         0         0         0         0         0         0         0
         0         0         0         0         0         0         0         0
         0         0         0         0         0         0         0         0
         0         0         0         0         0         0         0         0
         0         0         0         0         0         0         0         0
         0         0         0         0         0         0         0         0
         0         0         0         0         0         0         0         0
         0         0         0         0         0         0         0         0
         0         0         0         0         0         0         0         0
         0         0         0         0         0         0         0         0
         0         0         0         0         0         0         0         0
         0         0         0         0         0         0         0         0
         0         0         0         0         0         0         0         0
         0         0         0         0         0         0         0         0
         0         0         0         0         0         0         0         0
         0         0         0         0         0         0         0         0
         0         0         0         0         0         0         0         0
         0         0         0         0         0         0         0         0
         0         0         0         0         0         0         0         0
         0         0         0         0         0         0         0         0
         0         0         0         0         0         0         0         0
         0         0         0         0         0         0         0         0
         0         0         0         0         0         0         0         0
         0         0         0         0         0         0         0         0
         0         0         0         0         0         0         0         0
         0         0         0         0         0         0         0         0
         0         0         0         0         0         0         0         0
         0         0         0         0         0         0         0         0
         0         0         0         0         0         0         0         0
         0         0         0         0         0         0         0         0
         0         0         0         0         0         0         0         0
         0         0         0         0         0         0         0         0
         0         0         0         0         0         0         0         0
         0         0         0         0         0         0         0         0
         0         0         0         0         0         0         0         0
         0         0         0         0         0         0         0         0
         0         0         0         0         0         0         0         0
         0         0         0         0         0         0         0         0
         0         0         0         0         0         0         0         0
         0         0         0         0         0         0         0         0
         0         0         0         0         0         0         0         0
         0         0         0         0         0         0         0         0
         0         0         0         0         0         0         0         0
         0         0         0         0         0         0         0         0
         0         0         0         0         0         0         0         0
         0         0         0         0         0         0         0         0
         0         0         0         0         0         0         0         0
         0         0         0         0         0         0         0         0
         0         0         0         0         0         0         0         0
         0         0         0         0         0         0         0         0
         0         0         0         0         0         0         0         0
         0         0         0         0         0         0         0         0
         0         0         0         0         0         0         0         0
         0         0         0         0         0         0         0         0
         0         0         0         0         0         0         0         0
         0         0         0         0         0         0         0         0
         0         0         0         0         0         0         0         0
         0         0         0         0         0         0         0         0
         0         0         0         0         0         0         0         0
         0         0         0         0         0         0         0         0
         0         0         0         0         0         0         0         0
         0         0         0         0         0         0         0         0
         0         0         0         0         0         0         0         0
         0         0         0         0         0         0         0         0
         0         0         0         0         0         0         0         0
         0         0         0         0         0         0         0         0
         0         0         0         0         0         0         0         0
         0         0         0         0         0         0         0         0
         0         0         0         0         0         0         0         0
         0         0         0         0         0         0         0         0
         0         0         0         0         0         0         0         0
         0         0         0         0         0         0         0         0
         0         0         0         0         0         0         0         0
         0         0         0         0         0         0         0         0
         0         0         0         0         0         0         0         0
         0         0         0         0         0         0         0         0
         0         0         0         0         0         0         0         0
         0         0         0         0         0         0         0         0
         0         0         0         0         0         0         0         0
         0         0         0         0         0         0         0         0
         0         0         0         0         0         0         0         0
         0         0         0         0         0         0         0         0
         0         0         0         0         0         0         0         0
         0         0         0         0         0         0         0         0
         0         0         0         0         0         0         0         0
         0         0         0         0         0         0         0         0
         0         0         0         0         0         0         0         0
         0         0         0         0         0         0         0         0
         0         0         0         0         0         0         0         0
         0         0         0         0         0         0         0         0
         0         0         0         0         0         0         0         0
         0         0         0         0         0         0         0         0
         0         0         0         0         0         0         0         0
         0         0         0         0         0         0         0         0
         0         0         0         0         0         0         0         0
         0         0         0         0         0         0         0         0
         0         0         0         0         0         0         0         0
         0         0         0         0         0         0         0         0
         0         0         0         0         0         0         0         0
         0         0         0         0         0         0         0         0
         0         0         0         0         0         0         0         0
         0         0         0         0         0         0         0         0
         0         0         0         0         0         0         0         0
         0         0         0         0         0         0         0         0
         0         0         0         0         0         0         0         0
         0         0         0         0         0         0         0         0
         0         0         0         0         0         0         0         0
         0         0         0         0         0         0         0         0
         0         0         0         0         0         0         0         0
         0         0         0         0         0         0         0         0
         0         0         0         0         0         0         0         0
         0         0         0         0         0         0         0         0
         0         0         0         0         0         0         0         0
         0         0         0         0         0         0         0         0
         0         0         0         0         0         0         0         0
         0         0         0         0         0         0         0         0
         0         0         0         0         0         0         0         0
         0         0         0         0         0         0         0         0
         0         0         0         0         0         0         0         0
         0         0         0         0         0         0         0         0
         0         0         0         0         0         0         0         0
         0         0         0         0         0         0         0         0
         0         0         0         0         0         0         0         0
         0         0         0         0         0         0         0         0
         0         0         0         0         0         0         0         0
         0         0         0         0         0         0         0         0
         0         0         0         0         0         0         0         0
         0         0         0         0         0         0         0         0
         0         0         0         0         0         0         0         0
         0         0         0         0         0         0         0         0
         0         0         0         0         0         0         0         0
         0         0         0         0         0         0         0         0
         0         0         0         0         0         0         0         0
         0         0         0         0         0         0         0         0
         0         0         0         0         0         0         0         0
         0         0         0         0         0         0         0         0
         0         0         0         0         0         0         0         0
         0         0         0         0         0         0         0         0
         0         0         0         0         0         0         0         0
         0         0         0         0         0         0         0         0
         0         0         0         0         0         0         0         0
         0         0         0         0         0         0         0         0
         0         0         0         0         0         0         0         0
         0         0         0         0         0         0         0         0
         0         0         0         0         0         0         0         0
         0         0         0         0         0         0         0         0
         0         0         0         0         0         0         0         0
         0         0         0         0         0         0         0         0
         0         0         0         0         0         0         0         0
         0         0         0         0         0         0         0         0
         0         0         0         0         0         0         0         0
         0         0         0         0         0         0         0         0
         0         0         0         0         0         0         0         0
         0         0         0         0         0         0         0         0
         0         0         0         0         0         0         0         0
         0         0         0         0         0         0         0         0
         0         0         0         0         0         0         0         0
         0         0         0         0         0         0         0         0
         0         0         0         0         0         0         0         0
         0         0         0         0         0         0         0         0
         0         0         0         0         0         0         0         0
         0         0         0         0         0         0         0         0
         0         0         0         0         0         0         0         0
         0         0         0         0         0         0         0         0
         0         0         0         0         0         0         0         0
         0         0         0         0         0         0         0         0
         0         0         0         0         0         0         0         0
         0         0         0         0         0         0         0         0
         0         0         0         0         0         0         0         0
         0         0         0         0         0         0         0         0
         0         0         0         0         0         0         0         0
         0         0         0         0         0         0         0         0
         0         0         0         0         0         0         0         0
         0         0         0         0         0         0         0         0
         0         0         0         0         0         0         0         0
         0         0         0         0         0         0         0         0
         0         0         0         0         0         0         0         0
         0         0         0         0         0         0         0         0
         0         0         0         0         0         0         0         0
         0         0         0         0         0         0         0         0
         0         0         0         0         0         0         0         0
         0         0         0         0         0         0         0         0
         0         0         0         0         0         0         0         0
         0         0         0         0         0         0         0         0
         0         0         0         0         0         0         0         0
         0         0         0         0         0         0         0         0
         0         0         0         0         0         0         0         0
         0         0         0         0         0         0         0         0
         0         0         0         0         0         0         0         0
         0         0         0         0         0         0         0         0
         0         0         0         0         0         0         0         0
         0         0         0         0         0         0         0         0
         0         0         0         0         0         0         0         0
         0         0         0         0         0         0         0         0
         0         0         0         0         0         0         0         0
         0         0         0         0         0         0         0         0
         0         0         0         0         0         0         0         0
         0         0         0         0         0         0         0         0
         0         0         0         0         0         0         0         0
         0         0         0         0         0         0         0         0
         0         0         0         0         0         0         0         0
         0         0         0         0         0         0         0         0
         0         0         0         0         0         0         0         0
         0         0         0         0         0         0         0         0
         0         0         0         0         0         0         0         0
         0         0         0         0         0         0         0         0
         0         0         0         0         0         0         0         0
         0         0         0         0         0         0         0         0
         0         0         0         0         0         0         0         0
         0         0         0         0         0         0         0         0
         0         0         0         0         0         0         0         0
         0         0         0         0         0         0         0         0
         0         0         0         0         0         0         0         0
         0         0         0         0         0         0         0         0
         0         0         0         0         0         0         0         0
         0         0         0         0         0         0         0         0
         0         0         0         0         0         0         0         0
         0         0         0         0         0         0         0         0
         0         0         0         0         0         0         0         0
         0         0         0         0         0         0         0         0
         0         0         0         0         0         0         0         0
         0         0         0         0         0         0         0         0
         0         0         0         0         0         0         0         0
         0         0         0         0         0         0         0         0
         0         0         0         0         0         0         0         0
         0         0         0         0         0         0         0         0
         0         0         0         0         0         0         0         0
         0         0         0         0         0         0         0         0
         0         0         0         0         0         0         0         0
         0         0         0         0         0         0         0         0
         0         0         0         0         0         0         0         0
         0         0         0         0         0         0         0         0
         0         0         0         0         0         0         0         0
         0         0         0         0         0         0         0         0
         0         0         0         0         0         0         0         0
         0         0         0         0         0         0         0         0
         0         0         0         0         0         0         0         0
         0         0         0         0         0         0         0         0
         0         0         0         0         0         0         0         0
         0         0         0         0         0         0         0         0
         0         0         0         0         0         0         0         0
         0         0         0         0         0         0         0         0
         0         0         0         0         0         0         0         0
         0         0         0         0         0         0         0         0
         0         0         0         0         0         0         0         0
         0         0         0         0         0         0         0         0
         0         0         0         0         0         0         0         0
         0         0         0         0         0         0         0         0
         0         0         0         0         0         0         0         0
         0         0         0         0         0         0         0         0
         0         0         0         0         0         0         0         0
         0         0         0         0         0         0         0         0
         0         0         0         0         0         0         0         0
         0         0         0         0         0         0         0         0
         0         0         0         0         0         0         0         0
         0         0         0         0         0         0         0         0
         0         0         0         0         0         0         0         0
         0         0         0         0         0         0         0         0
         0         0         0         0         0         0         0         0
         0         0         0         0         0         0         0         0
         0         0         0         0         0         0         0         0
         0         0         0         0         0         0         0         0
         0         0         0         0         0         0         0         0
         0         0         0         0         0         0         0         0
         0         0         0         0         0         0         0         0
         0         0         0         0         0         0         0         0
         0         0         0         0         0         0         0         0
         0         0         0         0         0         0         0         0
         0         0         0         0         0         0         0         0
         0         0         0         0         0         0         0         0
         0         0         0         0         0         0         0         0
         0         0         0         0         0         0         0         0
         0         0         0         0         0         0         0         0
         0         0         0         0         0         0         0         0
         0         0         0         0         0         0         0         0
         0         0         0         0         0         0         0         0
         0         0         0         0         0         0         0         0
         0         0         0         0         0         0         0         0
         0         0         0         0         0         0         0         0
         0         0         0         0         0         0         0         0
         0         0         0         0         0         0         0         0
         0         0         0         0         0         0         0         0
         0         0         0         0         0         0         0         0
         0         0         0         0         0         0         0         0
         0         0         0         0         0         0         0         0
         0         0         0         0         0         0         0         0
         0         0         0         0         0         0         0         0
         0         0         0         0         0         0         0         0
         0         0         0         0         0         0         0         0
         0         0         0         0         0         0         0         0
         0         0         0         0         0         0         0         0
         0         0         0         0         0         0         0         0
         0         0         0         0         0         0         0         0
         0         0         0         0         0         0         0         0
         0         0         0         0         0         0         0         0
         0         0         0         0         0         0         0         0
         0         0         0         0         0         0         0         0
         0         0         0         0         0         0         0         0
         0         0         0         0         0         0         0         0
         0         0         0         0         0         0         0         0
         0         0         0         0         0         0         0         0
         0         0         0         0         0         0         0         0
         0         0         0         0         0         0         0         0
         0         0         0         0         0         0         0         0
         0         0         0         0         0         0         0         0
         0         0         0         0         0         0         0         0
         0         0         0         0         0         0         0         0
         0         0         0         0         0         0         0         0
         0         0         0         0         0         0         0         0
         0         0         0         0         0         0         0         0
         0         0         0         0         0         0         0         0
         0         0         0         0         0         0         0         0
         0         0         0         0         0         0         0         0
         0         0         0         0         0         0         0         0
         0         0         0         0         0         0         0         0
         0         0         0         0         0         0         0         0
         0         0         0         0         0         0         0         0
         0         0         0         0         0         0         0         0
         0         0         0         0         0         0         0         0
         0         0         0         0         0         0         0         0
         0         0         0         0         0         0         0         0
         0         0         0         0         0         0         0         0
         0         0         0         0         0         0         0         0
         0         0         0         0         0         0         0         0
         0         0         0         0         0         0         0         0
         0         0         0         0         0         0         0         0
         0         0         0         0         0         0         0         0
         0         0         0         0         0         0         0         0
         0         0         0         0         0         0         0         0
         0         0         0         0         0         0         0         0
         0         0         0         0         0         0         0         0
         0         0         0         0         0         0         0         0
         0         0         0         0         0         0         0         0
         0         0         0         0         0         0         0         0
         0         0         0         0         0         0         0         0
         0         0         0         0         0         0         0         0
         0         0         0         0         0         0         0         0
         0         0         0         0         0         0         0         0
         0         0         0         0         0         0         0         0
         0         0         0         0         0         0         0         0
         0         0         0         0         0         0         0         0
         0         0         0         0         0         0         0         0
         0         0         0         0         0         0         0         0
         0         0         0         0         0         0         0         0
         0         0         0         0         0         0         0         0
         0         0         0         0         0         0         0         0
         0         0         0         0         0         0         0         0
         0         0         0         0         0         0         0         0
         0         0         0         0         0         0         0         0
         0         0         0         0         0         0         0         0
         0         0         0         0         0         0         0         0
         0         0         0         0         0         0         0         0
         0         0         0         0         0         0         0         0
         0         0         0         0         0         0         0         0
         0         0         0         0         0         0         0         0
         0         0         0         0         0         0         0         0
         0         0         0         0         0         0         0         0
         0         0         0         0         0         0         0         0
         0         0         0         0         0         0         0         0
         0         0         0         0         0         0         0         0
         0         0         0         0         0         0         0         0
         0         0         0         0         0         0         0         0
         0         0         0         0         0         0         0         0
         0         0         0         0         0         0         0         0
         0         0         0         0         0         0         0         0
         0         0         0         0         0         0         0         0
         0         0         0         0         0         0         0         0
         0         0         0         0         0         0         0         0
         0         0         0         0         0         0         0         0
         0         0         0         0         0         0         0         0
         0         0         0         0         0         0         0         0
         0         0         0         0         0         0         0         0
         0         0         0         0         0         0         0         0
         0         0         0         0         0         0         0         0
         0         0         0         0         0         0         0         0
         0         0         0         0         0         0         0         0
         0         0         0         0         0         0         0         0
         0         0         0         0         0         0         0         0
         0         0         0         0         0         0         0         0
         0         0         0         0         0         0         0         0
         0         0         0         0         0         0         0         0
         0         0         0         0         0         0         0         0
         0         0         0         0         0         0         0         0
         0         0         0         0         0         0         0         0
         0         0         0         0         0         0         0         0
         0         0         0         0         0         0         0         0
         0         0         0         0         0         0         0         0
         0         0         0         0         0         0         0         0
         0         0         0         0         0         0         0         0
         0         0         0         0         0         0         0         0
         0         0         0         0         0         0         0         0
         0         0         0         0         0         0         0         0
         0         0         0         0         0         0         0         0
         0         0         0         0         0         0         0         0
         0         0         0         0         0         0         0         0
         0         0         0         0         0         0         0         0
         0         0         0         0         0         0         0         0
         0         0         0         0         0         0         0         0
         0         0         0         0         0         0         0         0
         0         0         0         0         0         0         0         0
         0         0         0         0         0         0         0         0
         0         0         0         0         0         0         0         0
         0         0         0         0         0         0         0         0
         0         0         0         0         0         0         0         0
         0         0         0         0         0         0         0         0
         0         0         0         0         0         0         0         0
         0         0         0         0         0         0         0         0
         0         0         0         0         0         0         0         0
         0         0         0         0         0         0         0         0
         0         0         0         0         0         0         0         0
         0         0         0         0         0         0         0         0
         0         0         0         0         0         0         0         0
         0         0         0         0         0         0         0         0
         0         0         0         0         0         0         0         0
         0         0         0         0         0         0         0         0
         0         0         0         0         0         0         0         0
         0         0         0         0         0         0         0         0
         0         0         0         0         0         0         0         0
         0         0         0         0         0         0         0         0
         0         0         0         0         0         0         0         0
         0         0         0         0         0         0         0         0
         0         0         0         0         0         0         0         0
         0         0         0         0         0         0         0         0
         0         0         0         0         0         0         0         0
         0         0         0         0         0         0         0         0
         0         0         0         0         0         0         0         0
         0         0         0         0         0         0         0         0
         0         0         0         0         0         0         0         0
         0         0         0         0         0         0         0         0
         0         0         0         0         0         0         0         0
         0         0         0         0         0         0         0         0
         0         0         0         0         0         0         0         0
         0         0         0         0         0         0         0         0
         0         0         0         0         0         0         0         0
         0         0         0         0         0         0         0         0
         0         0         0         0         0         0         0         0
         0         0         0         0         0         0         0         0
         0         0         0         0         0         0         0         0
         0         0         0         0         0         0         0         0
         0         0         0         0         0         0         0         0
         0         0         0         0         0         0         0         0
         0         0         0         0         0         0         0         0
         0         0         0         0         0         0         0         0
         0         0         0         0         0         0         0         0
         0         0         0         0         0         0         0         0
         0         0         0         0         0         0         0         0
         0         0         0         0         0         0         0         0
         0         0         0         0         0         0         0         0
         0         0         0         0         0         0         0         0
         0         0         0         0         0         0         0         0
         0         0         0         0         0         0         0         0
         0         0         0         0         0         0         0         0
         0         0         0         0         0         0         0         0
         0         0         0         0         0         0         0         0
         0         0         0         0         0         0         0         0
         0         0         0         0         0         0         0         0
         0         0         0         0         0         0         0         0
         0         0         0         0         0         0         0         0
         0         0         0         0         0         0         0         0
         0         0         0         0         0         0         0         0
         0         0         0         0         0         0         0         0
         0         0         0         0         0         0         0         0
         0         0         0         0         0         0         0         0
         0         0         0         0         0         0         0         0
         0         0         0         0         0         0         0         0
         0         0         0         0         0         0         0         0
         0         0         0         0         0         0         0         0
         0         0         0         0         0         0         0         0
         0         0         0         0         0         0         0         0
         0         0         0         0         0         0         0         0
         0         0         0         0         0         0         0         0
         0         0         0         0         0         0         0         0
         0         0         0         0         0         0         0         0
         0         0         0         0         0         0         0         0
         0         0         0         0         0         0         0         0
         0         0         0         0         0         0         0         0
         0         0         0         0         0         0         0         0
         0         0         0         0         0         0         0         0
         0         0         0         0         0         0         0         0
         0         0         0         0         0         0         0         0
         0         0         0         0         0         0         0         0
         0         0         0         0         0         0         0         0
         0         0         0         0         0         0         0         0
         0         0         0         0         0         0         0         0
         0         0         0         0         0         0         0         0
         0         0         0         0         0         0         0         0
         0         0         0         0         0         0         0         0
         0         0         0         0         0         0         0         0
         0         0         0         0         0         0         0         0
         0         0         0         0         0         0         0         0
         0         0         0         0         0         0         0         0
         0         0         0         0         0         0         0         0
         0         0         0         0         0         0         0         0
         0         0         0         0         0         0         0         0
         0         0         0         0         0         0         0         0
         0         0         0         0         0         0         0         0
         0         0         0         0         0         0         0         0
         0         0         0         0         0         0         0         0
         0         0         0         0         0         0         0         0
         0         0         0         0         0         0         0         0
         0         0         0         0         0         0         0         0
         0         0         0         0         0         0         0         0
         0         0         0         0         0         0         0         0
         0         0         0         0         0         0         0         0
         0         0         0         0         0         0         0         0
         0         0         0         0         0         0         0         0
         0         0         0         0         0         0         0         0
         0         0         0         0         0         0         0         0
         0         0         0         0         0         0         0         0
         0         0         0         0         0         0         0         0
         0         0         0         0         0         0         0         0
         0         0         0         0         0         0         0         0
         0         0         0         0         0         0         0         0
         0         0         0         0         0         0         0         0
         0         0         0         0         0         0         0         0
         0         0         0         0         0         0         0         0
         0         0         0         0         0         0         0         0
         0         0         0         0         0         0         0         0
         0         0         0         0         0         0         0         0
         0         0         0         0         0         0         0         0
         0         0         0         0         0         0         0         0
         0         0         0         0         0         0         0         0
         0         0         0         0         0         0         0         0
         0         0         0         0         0         0         0         0
         0         0         0         0         0         0         0         0
         0         0         0         0         0         0         0         0
         0         0         0         0         0         0         0         0
         0         0         0         0         0         0         0         0
         0         0         0         0         0         0         0         0
         0         0         0         0         0         0         0         0
         0         0         0         0         0         0         0         0
         0         0         0         0         0         0         0         0
         0         0         0         0         0         0         0         0
         0         0         0         0         0         0         0         0
         0         0         0         0         0         0         0         0
         0         0         0         0         0         0         0         0
         0         0         0         0         0         0         0         0
         0         0         0         0         0         0         0         0
         0         0         0         0         0         0         0         0
         0         0         0         0         0         0         0         0
         0         0         0         0         0         0         0         0
         0         0         0         0         0         0         0         0
         0         0         0         0         0         0         0         0
         0         0         0         0         0         0         0         0
         0         0         0         0         0         0         0         0
         0         0         0         0         0         0         0         0
         0         0         0         0         0         0         0         0
         0         0         0         0         0         0         0         0
         0         0         0         0         0         0         0         0
         0         0         0         0         0         0         0         0
         0         0         0         0         0         0         0         0
         0         0         0         0         0         0         0         0
         0         0         0         0         0         0         0         0
         0         0         0         0         0         0         0         0
         0         0         0         0         0         0         0         0
         0         0         0         0         0         0         0         0
         0         0         0         0         0         0         0         0
         0         0         0         0         0         0         0         0
         0         0         0         0         0         0         0         0
         0         0         0         0         0         0         0         0
         0         0         0         0         0         0         0         0
         0         0         0         0         0         0         0         0
         0         0         0         0         0         0         0         0
         0         0         0         0         0         0         0         0
         0         0         0         0         0         0         0         0
         0         0         0         0         0         0         0         0
         0         0         0         0         0         0         0         0
         0         0         0         0         0         0         0         0
         0         0         0         0         0         0         0         0
         0         0         0         0         0         0         0         0
         0         0         0         0         0         0         0         0
         0         0         0         0         0         0         0         0
         0         0         0         0         0         0         0         0
         0         0         0         0         0         0         0         0
         0         0         0         0         0         0         0         0
         0         0         0         0         0         0         0         0
         0         0         0         0         0         0         0         0
         0         0         0         0         0         0         0         0
         0         0         0         0         0         0         0         0
         0         0         0         0         0         0         0         0
         0         0         0         0         0         0         0         0
         0         0         0         0         0         0         0         0
         0         0         0         0         0         0         0         0
         0         0         0         0         0         0         0         0
         0         0         0         0         0         0         0         0
         0         0         0         0         0         0         0         0
         0         0         0         0         0         0         0         0
         0         0         0         0         0         0         0         0
         0         0         0         0         0         0         0         0
         0         0         0         0         0         0         0         0
         0         0         0         0         0         0         0         0
         0         0         0         0         0         0         0         0
         0         0         0         0         0         0         0         0
         0         0         0         0         0         0         0         0
         0         0         0         0         0         0         0         0
         0         0         0         0         0         0         0         0
         0         0         0         0         0         0         0         0
         0         0         0         0         0         0         0         0
         0         0         0         0         0         0         0         0
         0         0         0         0         0         0         0         0
         0         0         0         0         0         0         0         0
         0         0         0         0         0         0         0         0
         0         0         0         0         0         0         0         0
         0         0         0         0         0         0         0         0
         0         0         0         0         0         0         0         0
         0         0         0         0         0         0         0         0
         0         0         0         0         0         0         0         0
         0         0         0         0         0         0         0         0
         0         0         0         0         0         0         0         0
         0         0         0         0         0         0         0         0
         0         0         0         0         0         0         0         0
         0         0         0         0         0         0         0         0
         0         0         0         0         0         0         0         0
         0         0         0         0         0         0         0         0
         0         0         0         0         0         0         0         0
         0         0         0         0         0         0         0         0
         0         0         0         0         0         0         0         0
         0         0         0         0         0         0         0         0
         0         0         0         0         0         0         0         0
         0         0         0         0         0         0         0         0
         0         0         0         0         0         0         0         0
         0         0         0         0         0         0         0         0
         0         0         0         0         0         0         0         0
         0         0         0         0         0         0         0         0
         0         0         0         0         0         0         0         0
         0         0         0         0         0         0         0         0
         0         0         0         0         0         0         0         0
         0         0         0         0         0         0         0         0
         0         0         0         0         0         0         0         0
         0         0         0         0         0         0         0         0
         0         0         0         0         0         0         0         0
         0         0         0         0         0         0         0         0
         0         0         0         0         0         0         0         0
         0         0         0         0         0         0         0         0
         0         0         0         0         0         0         0         0
         0         0         0         0         0         0         0         0
         0         0         0         0         0         0         0         0
         0         0         0         0         0         0         0         0
         0         0         0         0         0         0         0         0
         0         0         0         0         0         0         0         0
         0         0         0         0         0         0         0         0
         0         0         0         0         0         0         0         0
         0         0         0         0         0         0         0         0
         0         0         0         0         0         0         0         0
         0         0         0         0         0         0         0         0
         0         0         0         0         0         0         0         0
         0         0         0         0         0         0         0         0
         0         0         0         0         0         0         0         0
         0         0         0         0         0         0         0         0
         0         0         0         0         0         0         0         0
         0         0         0         0         0         0         0         0
         0         0         0         0         0         0         0         0
         0         0         0         0         0         0         0         0
         0         0         0         0         0         0         0         0
         0         0         0         0         0         0         0         0
         0         0         0         0         0         0         0         0
         0         0         0         0         0         0         0         0
         0         0         0         0         0         0         0         0
         0         0         0         0         0         0         0         0
         0         0         0         0         0         0         0         0
         0         0         0         0         0         0         0         0
         0         0         0         0         0         0         0         0
         0         0         0         0         0         0         0         0
         0         0         0         0         0         0         0         0
         0         0         0         0         0         0         0         0
         0         0         0         0         0         0         0         0
         0         0         0         0         0         0         0         0
         0         0         0         0         0         0         0         0
         0         0         0         0         0         0         0         0
         0         0         0         0         0         0         0         0
         0         0         0         0         0         0         0         0
         0         0         0         0         0         0         0         0
         0         0         0         0         0         0         0         0
         0         0         0         0         0         0         0         0
         0         0         0         0         0         0         0         0
         0         0         0         0         0         0         0         0
         0         0         0         0         0         0         0         0
         0         0         0         0         0         0         0         0
         0         0         0         0         0         0         0         0
         0         0         0         0         0         0         0         0
         0         0         0         0         0         0         0         0
         0         0         0         0         0         0         0         0
         0         0         0         0         0         0         0         0
         0         0         0         0         0         0         0         0
         0         0         0         0         0         0         0         0
         0         0         0         0         0         0         0         0
         0         0         0         0         0         0         0         0
         0         0         0         0         0         0         0         0
         0         0         0         0         0         0         0         0
         0         0         0         0         0         0         0         0
         0         0         0         0         0         0         0         0
         0         0         0         0         0         0         0         0
         0         0         0         0         0         0         0         0
         0         0         0         0         0         0         0         0
         0         0         0         0         0         0         0         0
         0         0         0         0         0         0         0         0
         0         0         0         0         0         0         0         0
         0         0         0         0         0         0         0         0
         0         0         0         0         0         0         0         0
         0         0         0         0         0         0         0         0
         0         0         0         0         0         0         0         0
         0         0         0         0         0         0         0         0
         0         0         0         0         0         0         0         0
         0         0         0         0         0         0         0         0
         0         0         0         0         0         0         0         0
         0         0         0         0         0         0         0         0
         0         0         0         0         0         0         0         0
         0         0         0         0         0         0         0         0
         0         0         0         0         0         0         0         0
         0         0         0         0         0         0         0         0
         0         0         0         0         0         0         0         0
         0         0         0         0         0         0         0         0
         0         0         0         0         0         0         0         0
         0         0         0         0         0         0         0         0
         0         0         0         0         0         0         0         0
         0         0         0         0         0         0         0         0
         0         0         0         0         0         0         0         0
         0         0         0         0         0         0         0         0
         0         0         0         0         0         0         0         0
         0         0         0         0         0         0         0         0
         0         0         0         0         0         0         0         0
         0         0         0         0         0         0         0         0
         0         0         0         0         0         0         0         0
         0         0         0         0         0         0         0         0
         0         0         0         0         0         0         0         0
         0         0         0         0         0         0         0         0
         0         0         0         0         0         0         0         0
         0         0         0         0         0         0         0         0
         0         0         0         0         0         0         0         0
         0         0         0         0         0         0         0         0
         0         0         0         0         0         0         0         0
         0         0         0         0         0         0         0         0
         0         0         0         0         0         0         0         0
         0         0         0         0         0         0         0         0
         0         0         0         0         0         0         0         0
         0         0         0         0         0         0         0         0
         0         0         0         0         0         0         0         0
         0         0         0         0         0         0         0         0
         0         0         0         0         0         0         0         0
         0         0         0         0         0         0         0         0
         0         0         0         0         0         0         0         0
         0         0         0         0         0         0         0         0
         0         0         0         0         0         0         0         0
         0         0         0         0         0         0         0         0
         0         0         0         0         0         0         0         0
         0         0         0         0         0         0         0         0
         0         0         0         0         0         0         0         0
         0         0         0         0         0         0         0         0
         0         0         0         0         0         0         0         0
         0         0         0         0         0         0         0         0
         0         0         0         0         0         0         0         0
         0         0         0         0         0         0         0         0
         0         0         0         0         0         0         0         0
         0         0         0         0         0         0         0         0
         0         0         0         0         0         0         0         0
         0         0         0         0         0         0         0         0
         0         0         0         0         0         0         0         0
         0         0         0         0         0         0         0         0
         0         0         0         0         0         0         0         0
         0         0         0         0         0         0         0         0
         0         0         0         0         0         0         0         0
         0         0         0         0         0         0         0         0
         0         0         0         0         0         0         0         0
         0         0         0         0         0         0         0         0
         0         0         0         0         0         0         0         0
         0         0         0         0         0         0         0         0
         0         0         0         0         0         0         0         0
         0         0         0         0         0         0         0         0
         0         0         0         0         0         0         0         0
         0         0         0         0         0         0         0         0
         0         0         0         0         0         0         0         0
         0         0         0         0         0         0         0         0
         0         0         0         0         0         0         0         0
         0         0         0         0         0         0         0         0
         0         0         0         0         0         0         0         0
         0         0         0         0         0         0         0         0
         0         0         0         0         0         0         0         0
         0         0         0         0         0         0         0         0
         0         0         0         0         0         0         0         0
         0         0         0         0         0         0         0         0
         0         0         0         0         0         0         0         0
         0         0         0         0         0         0         0         0
         0         0         0         0         0         0         0         0
         0         0         0         0         0         0         0         0
         0         0         0         0         0         0         0         0
         0         0         0         0         0         0         0         0
         0         0         0         0         0         0         0         0
         0         0         0         0         0         0         0         0
         0         0         0         0         0         0         0         0
         0         0         0         0         0         0         0         0
         0         0         0         0         0         0         0         0
         0         0         0         0         0         0         0         0
         0         0         0         0         0         0         0         0
         0         0         0         0         0         0         0         0
         0         0         0         0         0         0         0         0
         0         0         0         0         0         0         0         0
         0         0         0         0         0         0         0         0
         0         0         0         0         0         0         0         0
         0         0         0         0         0         0         0         0
         0         0         0         0         0         0         0         0
         0         0         0         0         0         0         0         0
         0         0         0         0         0         0         0         0
         0         0         0         0         0         0         0         0
         0         0         0         0         0         0         0         0
         0         0         0         0         0         0         0         0
         0         0         0         0         0         0         0         0
         0         0         0         0         0         0         0         0
         0         0         0         0         0         0         0         0
         0         0         0         0         0         0         0         0
         0         0         0         0         0         0         0         0
         0         0         0         0         0         0         0         0
         0         0         0         0         0         0         0         0
         0         0         0         0         0         0         0         0
         0         0         0         0         0         0         0         0
         0         0         0         0         0         0         0         0
         0         0         0         0         0         0         0         0
         0         0         0         0         0         0         0         0
         0         0         0         0         0         0         0         0
         0         0         0         0         0         0         0         0
         0         0         0         0         0         0         0         0
         0         0         0         0         0         0         0         0
         0         0         0         0         0         0         0         0
         0         0         0         0         0         0         0         0
         0         0         0         0         0         0         0         0
         0         0         0         0         0         0         0         0
         0         0         0         0         0         0         0         0
         0         0         0         0         0         0         0         0
         0         0         0         0         0         0         0         0
         0         0         0         0         0         0         0         0
         0         0         0         0         0         0         0         0
         0         0         0         0         0         0         0         0
         0         0         0         0         0         0         0         0
         0         0         0         0         0         0         0         0
         0         0         0         0         0         0         0         0
         0         0         0         0         0         0         0         0
         0         0         0         0         0         0         0         0
         0         0         0         0         0         0         0         0
         0         0         0         0         0         0         0         0
         0         0         0         0         0         0         0         0
         0         0         0         0         0         0         0         0
         0         0         0         0         0         0         0         0
         0         0         0         0         0         0         0         0
         0         0         0         0         0         0         0         0
         0         0         0         0         0         0         0         0
         0         0         0         0         0         0         0         0
         0         0         0         0         0         0         0         0
         0         0         0         0         0         0         0         0
         0         0         0         0         0         0         0         0
         0         0         0         0         0         0         0         0
         0         0         0         0         0         0         0         0
         0         0         0         0         0         0         0         0
         0         0         0         0         0         0         0         0
         0         0         0         0         0         0         0         0
         0         0         0         0         0         0         0         0
         0         0         0         0         0         0         0         0
         0         0         0         0         0         0         0         0
         0         0         0         0         0         0         0         0
         0         0         0         0         0         0         0         0
         0         0         0         0         0         0         0         0
         0         0         0         0         0         0         0         0
         0         0         0         0         0         0         0         0
         0         0         0         0         0         0         0         0
         0         0         0         0         0         0         0         0
         0         0         0         0         0         0         0         0
         0         0         0         0         0         0         0         0
         0         0         0         0         0         0         0         0
         0         0         0         0         0         0         0         0
         0         0         0         0         0         0         0         0
         0         0         0         0         0         0         0         0
         0         0         0         0         0         0         0         0
         0         0         0         0         0         0         0         0
         0         0         0         0         0         0         0         0
         0         0         0         0         0         0         0         0
         0         0         0         0         0         0         0         0
         0         0         0         0         0         0         0         0
         0         0         0         0         0         0         0         0
         0         0         0         0         0         0         0         0
         0         0         0         0         0         0         0         0
         0         0         0         0         0         0         0         0
         0         0         0         0         0         0         0         0
         0         0         0         0         0         0         0         0
         0         0         0         0         0         0         0         0
         0         0         0         0         0         0         0         0
         0         0         0         0         0         0         0         0
         0         0         0         0         0         0         0         0
         0         0         0         0         0         0         0         0
         0         0         0         0         0         0         0         0
         0         0         0         0         0         0         0         0
         0         0         0         0         0         0         0         0
         0         0         0         0         0         0         0         0
         0         0         0         0         0         0         0         0
         0         0         0         0         0         0         0         0
         0         0         0         0         0         0         0         0
         0         0         0         0         0         0         0         0
         0         0         0         0         0         0         0         0
         0         0         0         0         0         0         0         0
         0         0         0         0         0         0         0         0
         0         0         0         0         0         0         0         0
         0         0         0         0         0         0         0         0
         0         0         0         0         0         0         0         0
         0         0         0         0         0         0         0         0
         0         0         0         0         0         0         0         0
         0         0         0         0         0         0         0         0
         0         0         0         0         0         0         0         0
         0         0         0         0         0         0         0         0
         0         0         0         0         0         0         0         0
         0         0         0         0         0         0         0         0
         0         0         0         0         0         0         0         0
         0         0         0         0         0         0         0         0
         0         0         0         0         0         0         0         0
         0         0         0         0         0         0         0         0
         0         0         0         0         0         0         0         0
         0         0         0         0         0         0         0         0
         0         0         0         0         0         0         0         0
         0         0         0         0         0         0         0         0
         0         0         0         0         0         0         0         0
         0         0         0         0         0         0         0         0
         0         0         0         0         0         0         0         0
         0         0         0         0         0         0         0         0
         0         0         0         0         0         0         0         0
         0         0         0         0         0         0         0         0
         0         0         0         0         0         0         0         0
         0         0         0         0         0         0         0         0
         0         0         0         0         0         0         0         0
         0         0         0         0         0         0         0         0
         0         0         0         0         0         0         0         0
         0         0         0         0         0         0         0         0
         0         0         0         0         0         0         0         0
         0         0         0         0         0         0         0         0
         0         0         0         0         0         0         0         0
         0         0         0         0         0         0         0         0
         0         0         0         0         0         0         0         0
         0         0         0         0         0         0         0         0
         0         0         0         0         0         0         0         0
         0         0         0         0         0         0         0         0
         0         0         0         0         0         0         0         0
         0         0         0         0         0         0         0         0
         0         0         0         0         0         0         0         0
         0         0         0         0         0         0         0         0
         0         0         0         0         0         0         0         0
         0         0         0         0         0         0         0         0
         0         0         0         0         0         0         0         0
         0         0         0         0         0         0         0         0
         0         0         0         0         0         0         0         0
         0         0         0         0         0         0         0         0
         0         0         0         0         0         0         0         0
         0         0         0         0         0         0         0         0
         0         0         0         0         0         0         0         0
         0         0         0         0         0         0         0         0
         0         0         0         0         0         0         0         0
         0         0         0         0         0         0         0         0
         0         0         0         0         0         0         0         0
         0         0         0         0         0         0         0         0
         0         0         0         0         0         0         0         0
         0         0         0         0         0         0         0         0
         0         0         0         0         0         0         0         0
         0         0         0         0         0         0         0         0
         0         0         0         0         0         0         0         0
         0         0         0         0         0         0         0         0
         0         0         0         0         0         0         0         0
         0         0         0         0         0         0         0         0
         0         0         0         0         0         0         0         0
         0         0         0         0         0         0         0         0
         0         0         0         0         0         0         0         0
         0         0         0         0         0         0         0         0
         0         0         0         0         0         0         0         0
         0         0         0         0         0         0         0         0
         0         0         0         0         0         0         0         0
         0         0         0         0         0         0         0         0
         0         0         0         0         0         0         0         0
         0         0         0         0         0         0         0         0
         0         0         0         0         0         0         0         0
         0         0         0         0         0         0         0         0
         0         0         0         0         0         0         0         0
         0         0         0         0         0         0         0         0
         0         0         0         0         0         0         0         0
         0         0         0         0         0         0         0         0
         0         0         0         0         0         0         0         0
         0         0         0         0         0         0         0         0
         0         0         0         0         0         0         0         0
         0         0         0         0         0         0         0         0
         0         0         0         0         0         0         0         0
         0         0         0         0         0         0         0         0
         0         0         0         0         0         0         0         0
         0         0         0         0         0         0         0         0
         0         0         0         0         0         0         0         0
         0         0         0         0         0         0         0         0
         0         0         0         0         0         0         0         0
         0         0         0         0         0         0         0         0
         0         0         0         0         0         0         0         0
         0         0         0         0         0         0         0         0
         0         0         0         0         0         0         0         0
         0         0         0         0         0         0         0         0
         0         0         0         0         0         0         0         0
         0         0         0         0         0         0         0         0
         0         0         0         0         0         0         0         0
         0         0         0         0         0         0         0         0
         0         0         0         0         0         0         0         0
         0         0         0         0         0         0         0         0
         0         0         0         0         0         0         0         0
         0         0         0         0         0         0         0         0
         0         0         0         0         0         0         0         0
         0         0         0         0         0         0         0         0
         0         0         0         0         0         0         0         0
         0         0         0         0         0         0         0         0
         0         0         0         0         0         0         0         0
         0         0         0         0         0         0         0         0
         0         0         0         0         0         0         0         0
         0         0         0         0         0         0         0         0
         0         0         0         0         0         0         0         0
         0         0         0         0         0         0         0         0
         0         0         0         0         0         0         0         0
         0         0         0         0         0         0         0         0
         0         0         0         0         0         0         0         0
         0         0         0         0         0         0         0         0
         0         0         0         0         0         0         0         0
         0         0         0         0         0         0         0         0
         0         0         0         0         0         0         0         0
         0         0         0         0         0         0         0         0
         0         0         0         0         0         0         0         0
         0         0         0         0         0         0         0         0
         0         0         0         0         0         0         0         0
         0         0         0         0         0         0         0         0
         0         0         0         0         0         0         0         0
         0         0         0         0         0         0         0         0
         0         0         0         0         0         0         0         0
         0         0         0         0         0         0         0         0
         0         0         0         0         0         0         0         0
         0         0         0         0         0         0         0         0
         0         0         0         0         0         0         0         0
         0         0         0         0         0         0         0         0
         0         0         0         0         0         0         0         0
         0         0         0         0         0         0         0         0
         0         0         0         0         0         0         0         0
         0         0         0         0         0         0         0         0
         0         0         0         0         0         0         0         0
         0         0         0         0         0         0         0         0
         0         0         0         0         0         0         0         0
         0         0         0         0         0         0         0         0
         0         0         0         0         0         0         0         0
         0         0         0         0         0         0         0         0
         0         0         0         0         0         0         0         0
         0         0         0         0         0         0         0         0
         0         0         0         0         0         0         0         0
         0         0         0         0         0         0         0         0
         0         0         0         0         0         0         0         0
         0         0         0         0         0         0         0         0
         0         0         0         0         0         0         0         0
         0         0         0         0         0         0         0         0
         0         0         0         0         0         0         0         0
         0         0         0         0         0         0         0         0
         0         0         0         0         0         0         0         0
         0         0         0         0         0         0         0         0
         0         0         0         0         0         0         0         0
         0         0         0         0         0         0         0         0
         0         0         0         0         0         0         0         0
         0         0         0         0         0         0         0         0
         0         0         0         0         0         0         0         0
         0         0         0         0         0         0         0         0
         0         0         0         0         0         0         0         0
         0         0         0         0         0         0         0         0
         0         0         0         0         0         0         0         0
         0         0         0         0         0         0         0         0
         0         0         0         0         0         0         0         0
         0         0         0         0         0         0         0         0
         0         0         0         0         0         0         0         0
         0         0         0         0         0         0         0         0
         0         0         0         0         0         0         0         0
         0         0         0         0         0         0         0         0
         0         0         0         0         0         0         0         0
         0         0         0         0         0         0         0         0
         0         0         0         0         0         0         0         0
         0         0         0         0         0         0         0         0
         0         0         0         0         0         0         0         0
         0         0         0         0         0         0         0         0
         0         0         0         0         0         0         0         0
         0         0         0         0         0         0         0         0
         0         0         0         0         0         0         0         0
         0         0         0         0         0         0         0         0
         0         0         0         0         0         0         0         0
         0         0         0         0         0         0         0         0
         0         0         0         0         0         0         0         0
         0         0         0         0         0         0         0         0
         0         0         0         0         0         0         0         0
         0         0         0         0         0         0         0         0
         0         0         0         0         0         0         0         0
         0         0         0         0         0         0         0         0
         0         0         0         0         0         0         0         0
         0         0         0         0         0         0         0         0
         0         0         0         0         0         0         0         0
         0         0         0         0         0         0         0         0
         0         0         0         0         0         0         0         0
         0         0         0         0         0         0         0         0
         0         0         0         0         0         0         0         0
         0         0         0         0         0         0         0         0
         0         0         0         0         0         0         0         0
         0         0         0         0         0         0         0         0
         0         0         0         0         0         0         0         0
         0         0         0         0         0         0         0         0
         0         0         0         0         0         0         0         0
         0         0         0         0         0         0         0         0
         0         0         0         0         0         0         0         0
         0         0         0         0         0         0         0         0
         0         0         0         0         0         0         0         0
         0         0         0         0         0         0         0         0
         0         0         0         0         0         0         0         0
         0         0         0         0         0         0         0         0
         0         0         0         0         0         0         0         0
         0         0         0         0         0         0         0         0
         0         0         0         0         0         0         0         0
         0         0         0         0         0         0         0         0
         0         0         0         0         0         0         0         0
         0         0         0         0         0         0         0         0
         0         0         0         0         0         0         0         0
         0         0         0         0         0         0         0         0
         0         0         0         0         0         0         0         0
         0         0         0         0         0         0         0         0
         0         0         0         0         0         0         0         0
         0         0         0         0         0         0         0         0
         0         0         0         0         0         0         0         0
         0         0         0         0         0         0         0         0
         0         0         0         0         0         0         0         0
         0         0         0         0         0         0         0         0
         0         0         0         0         0         0         0         0
         0         0         0         0         0         0         0         0
         0         0         0         0         0         0         0         0
         0         0         0         0         0         0         0         0
         0         0         0         0         0         0         0         0
         0         0         0         0         0         0         0         0
         0         0         0         0         0         0         0         0
         0         0         0         0         0         0         0         0
         0         0         0         0         0         0         0         0
         0         0         0         0         0         0         0         0
         0         0         0         0         0         0         0         0
         0         0         0         0         0         0         0         0
         0         0         0         0         0         0         0         0
         0         0         0         0         0         0         0         0
         0         0         0         0         0         0         0         0
         0         0         0         0         0         0         0         0
         0         0         0         0         0         0         0         0
         0         0         0         0         0         0         0         0
         0         0         0         0         0         0         0         0
         0         0         0         0         0         0         0         0
         0         0         0         0         0         0         0         0
         0         0         0         0         0         0         0         0
         0         0         0         0         0         0         0         0
         0         0         0         0         0         0         0         0
         0         0         0         0         0         0         0         0
         0         0         0         0         0         0         0         0
         0         0         0         0         0         0         0         0
         0         0         0         0         0         0         0         0
         0         0         0         0         0         0         0         0
         0         0         0         0         0         0         0         0
         0         0         0         0         0         0         0         0
         0         0         0         0         0         0         0         0
         0         0         0         0         0         0         0         0
         0         0         0         0         0         0         0         0
         0         0         0         0         0         0         0         0
         0         0         0         0         0         0         0         0
         0         0         0         0         0         0         0         0
         0         0         0         0         0         0         0         0
         0         0         0         0         0         0         0         0
         0         0         0         0         0         0         0         0
         0         0         0         0         0         0         0         0
         0         0         0         0         0         0         0         0
         0         0         0         0         0         0         0         0
         0         0         0         0         0         0         0         0
         0         0         0         0         0         0         0         0
         0         0         0         0         0         0         0         0
         0         0         0         0         0         0         0         0
         0         0         0         0         0         0         0         0
         0         0         0         0         0         0         0         0
         0         0         0         0         0         0         0         0
         0         0         0         0         0         0         0         0
         0         0         0         0         0         0         0         0
         0         0         0         0         0         0         0         0
         0         0         0         0         0         0         0         0
         0         0         0         0         0         0         0         0
         0         0         0         0         0         0         0         0
         0         0         0         0         0         0         0         0
         0         0         0         0         0         0         0         0
         0         0         0         0         0         0         0         0
         0         0         0         0         0         0         0         0
         0         0         0         0         0         0         0         0
         0         0         0         0         0         0         0         0
         0         0         0         0         0         0         0         0
         0         0         0         0         0         0         0         0
         0         0         0         0         0         0         0         0
         0         0         0         0         0         0         0         0
         0         0         0         0         0         0         0         0
         0         0         0         0         0         0         0         0
         0         0         0         0         0         0         0         0
         0         0         0         0         0         0         0         0
         0         0         0         0         0         0         0         0
         0         0         0         0         0         0         0         0
         0         0         0         0         0         0         0         0
         0         0         0         0         0         0         0         0
         0         0         0         0         0         0         0         0
         0         0         0         0         0         0         0         0
         0         0         0         0         0         0         0         0
         0         0         0         0         0         0         0         0
         0         0         0         0         0         0         0         0
         0         0         0         0         0         0         0         0
         0         0         0         0         0         0         0         0
         0         0         0         0         0         0         0         0
         0         0         0         0         0         0         0         0
         0         0         0         0         0         0         0         0
         0         0         0         0         0         0         0         0
         0         0         0         0         0         0         0         0
         0         0         0         0         0         0         0         0
         0         0         0         0         0         0         0         0
         0         0         0         0         0         0         0         0
         0         0         0         0         0         0         0         0
         0         0         0         0         0         0         0         0
         0         0         0         0         0         0         0         0
         0         0         0         0         0         0         0         0
         0         0         0         0         0         0         0         0
         0         0         0         0         0         0         0         0
         0         0         0         0         0         0         0         0
         0         0         0         0         0         0         0         0
         0         0         0         0         0         0         0         0
         0         0         0         0         0         0         0         0
         0         0         0         0         0         0         0         0
         0         0         0         0         0         0         0         0
         0         0         0         0         0         0         0         0
         0         0         0         0         0         0         0         0
         0         0         0         0         0         0         0         0
         0         0         0         0         0         0         0         0
         0         0         0         0         0         0         0         0
         0         0         0         0         0         0         0         0
         0         0         0         0         0         0         0         0
         0         0         0         0         0         0         0         0
         0         0         0         0         0         0         0         0
         0         0         0         0         0         0         0         0
         0         0         0         0         0         0         0         0
         0         0         0         0         0         0         0         0
         0         0         0         0         0         0         0         0
         0         0         0         0         0         0         0         0
         0         0         0         0         0         0         0         0
         0         0         0         0         0         0         0         0
         0         0         0         0         0         0         0         0
         0         0         0         0         0         0         0         0
         0         0         0         0         0         0         0         0
         0         0         0         0         0         0         0         0
         0         0         0         0         0         0         0         0
         0         0         0         0         0         0         0         0
         0         0         0         0         0         0         0         0
         0         0         0         0         0         0         0         0
         0         0         0         0         0         0         0         0
         0         0         0         0         0         0         0         0
         0         0         0         0         0         0         0         0
         0         0         0         0         0         0         0         0
         0         0         0         0         0         0         0         0
         0         0         0         0         0         0         0         0
         0         0         0         0         0         0         0         0
         0         0         0         0         0         0         0         0
         0         0         0         0         0         0         0         0
         0         0         0         0         0         0         0         0
         0         0         0         0         0         0         0         0
         0         0         0         0         0         0         0         0
         0         0         0         0         0         0         0         0
         0         0         0         0         0         0         0         0
         0         0         0         0         0         0         0         0
         0         0         0         0         0         0         0         0
         0         0         0         0         0         0         0         0
         0         0         0         0         0         0         0         0
         0         0         0         0         0         0         0         0
         0         0         0         0         0         0         0         0
         0         0         0         0         0         0         0         0
         0         0         0         0         0         0         0         0
         0         0         0         0         0         0         0         0
         0         0         0         0         0         0         0         0
         0         0         0         0         0         0         0         0
         0         0         0         0         0         0         0         0
         0         0         0         0         0         0         0         0
         0         0         0         0         0         0         0         0
         0         0         0         0         0         0         0         0
         0         0         0         0         0         0         0         0
         0         0         0         0         0         0         0         0
         0         0         0         0         0         0         0         0
         0         0         0         0         0         0         0         0
         0         0         0         0         0         0         0         0
         0         0         0         0         0         0         0         0
         0         0         0         0         0         0         0         0
         0         0         0         0         0         0         0         0
         0         0         0         0         0         0         0         0
         0         0         0         0         0         0         0         0
         0         0         0         0         0         0         0         0
         0         0         0         0         0         0         0         0
         0         0         0         0         0         0         0         0
         0         0         0         0         0         0         0         0
         0         0         0         0         0         0         0         0
         0         0         0         0         0         0         0         0
         0         0         0         0         0         0         0         0
         0         0         0         0         0         0         0         0
         0         0         0         0         0         0         0         0
         0         0         0         0         0         0         0         0
         0         0         0         0         0         0         0         0
         0         0         0         0         0         0         0         0
         0         0         0         0         0         0         0         0
         0         0         0         0         0         0         0         0
         0         0         0         0         0         0         0         0
         0         0         0         0         0         0         0         0
         0         0         0         0         0         0         0         0
         0         0         0         0         0         0         0         0
         0         0         0         0         0         0         0         0
         0         0         0         0         0         0         0         0
         0         0         0         0         0         0         0         0
         0         0         0         0         0         0         0         0
         0         0         0         0         0         0         0         0
         0         0         0         0         0         0         0         0
         0         0         0         0         0         0         0         0
         0         0         0         0         0         0         0         0
         0         0         0         0         0         0         0         0
         0         0         0         0         0         0         0         0
         0         0         0         0         0         0         0         0
         0         0         0         0         0         0         0         0
         0         0         0         0         0         0         0         0
         0         0         0         0         0         0         0         0
         0         0         0         0         0         0         0         0
         0         0         0         0         0         0         0         0
         0         0         0         0         0         0         0         0
         0         0         0         0         0         0         0         0
         0         0         0         0         0         0         0         0
         0         0         0         0         0         0         0         0
         0         0         0         0         0         0         0         0
         0         0         0         0         0         0         0         0
         0         0         0         0         0         0         0         0
         0         0         0         0         0         0         0         0
         0         0         0         0         0         0         0         0
         0         0         0         0         0         0         0         0
         0         0         0         0         0         0         0         0
         0         0         0         0         0         0         0         0
         0         0         0         0         0         0         0         0
         0         0         0         0         0         0         0         0
         0         0         0         0         0         0         0         0
         0         0         0         0         0         0         0         0
         0         0         0         0         0         0         0         0
         0         0         0         0         0         0         0         0
         0         0         0         0         0         0         0         0
         0         0         0         0         0         0         0         0
         0         0         0         0         0         0         0         0
         0         0         0         0         0         0         0         0
         0         0         0         0         0         0         0         0
         0         0         0         0         0         0         0         0
         0         0         0         0         0         0         0         0
         0         0         0         0         0         0         0         0
         0         0         0         0         0         0         0         0
         0         0         0         0         0         0         0         0
         0         0         0         0         0         0         0         0
         0         0         0         0         0         0         0         0
         0         0         0         0         0         0         0         0
         0         0         0         0         0         0         0         0
         0         0         0         0         0         0         0         0
         0         0         0         0         0         0         0         0
         0         0         0         0         0         0         0         0
         0         0         0         0         0         0         0         0
         0         0         0         0         0         0         0         0
         0         0         0         0         0         0         0         0
         0         0         0         0         0         0         0         0
         0         0         0         0         0         0         0         0
         0         0         0         0         0         0         0         0
         0         0         0         0         0         0         0         0
         0         0         0         0         0         0         0         0
         0         0         0         0         0         0         0         0
         0         0         0         0         0         0         0         0
         0         0         0         0         0         0         0         0
         0         0         0         0         0         0         0         0
         0         0         0         0         0         0         0         0
         0         0         0         0         0         0         0         0
         0         0         0         0         0         0         0         0
         0         0         0         0         0         0         0         0
         0         0         0         0         0         0         0         0
         0         0         0         0         0         0         0         0
         0         0         0         0         0         0         0         0
         0         0         0         0         0         0         0         0
         0         0         0         0         0         0         0         0
         0         0         0         0         0         0         0         0
         0         0         0         0         0         0         0         0
         0         0         0         0         0         0         0         0
         0         0         0         0         0         0         0         0
         0         0         0         0         0         0         0         0
         0         0         0         0         0         0         0         0
         0         0         0         0         0         0         0         0
         0         0         0         0         0         0         0         0
         0         0         0         0         0         0         0         0
         0         0         0         0         0         0         0         0
         0         0         0         0         0         0         0         0
         0         0         0         0         0         0         0         0
         0         0         0         0         0         0         0         0
         0         0         0         0         0         0         0         0
         0         0         0         0         0         0         0         0
         0         0         0         0         0         0         0         0
         0         0         0         0         0         0         0         0
         0         0         0         0         0         0         0         0
         0         0         0         0         0         0         0         0
         0         0         0         0         0         0         0         0
         0         0         0         0         0         0         0         0
         0         0         0         0         0         0         0         0
         0         0         0         0         0         0         0         0
         0         0         0         0         0         0         0         0
         0         0         0         0         0         0         0         0
         0         0         0         0         0         0         0         0
         0         0         0         0         0         0         0         0
         0         0         0         0         0         0         0         0
         0         0         0         0         0         0         0         0
         0         0         0         0         0         0         0         0
         0         0         0         0         0         0         0         0
         0         0         0         0         0         0         0         0
         0         0         0         0         0         0         0         0
         0         0         0         0         0         0         0         0
         0         0         0         0         0         0         0         0
         0         0         0         0         0         0         0         0
         0         0         0         0         0         0         0         0
         0         0         0         0         0         0         0         0
         0         0         0         0         0         0         0         0
         0         0         0         0         0         0         0         0
         0         0         0         0         0         0         0         0
         0         0         0         0         0         0         0         0
         0         0         0         0         0         0         0         0
         0         0         0         0         0         0         0         0
         0         0         0         0         0         0         0         0
         0         0         0         0         0         0         0         0
         0         0         0         0         0         0         0         0
         0         0         0         0         0         0         0         0
         0         0         0         0         0         0         0         0
         0         0         0         0         0         0         0         0
         0         0         0         0         0         0         0         0
         0         0         0         0         0         0         0         0
         0         0         0         0         0         0         0         0
         0         0         0         0         0         0         0         0
         0         0         0         0         0         0         0         0
         0         0         0         0         0         0         0         0
         0         0         0         0         0         0         0         0
         0         0         0         0         0         0         0         0
         0         0         0         0         0         0         0         0
         0         0         0         0         0         0         0         0
         0         0         0         0         0         0         0         0
         0         0         0         0         0         0         0         0
         0         0         0         0         0         0         0         0
         0         0         0         0         0         0         0         0
         0         0         0         0         0         0         0         0
         0         0         0         0         0         0         0         0
         0         0         0         0         0         0         0         0
         0         0         0         0         0         0         0         0
         0         0         0         0         0         0         0         0
         0         0         0         0         0         0         0         0
         0         0         0         0         0         0         0         0
         0         0         0         0         0         0         0         0
         0         0         0         0         0         0         0         0
         0         0         0         0         0         0         0         0
         0         0         0         0         0         0         0         0
         0         0         0         0         0         0         0         0
         0         0         0         0         0         0         0         0
         0         0         0         0         0         0         0         0
         0         0         0         0         0         0         0         0
         0         0         0         0         0         0         0         0
         0         0         0         0         0         0         0         0
         0         0         0         0         0         0         0         0
         0         0         0         0         0         0         0         0
         0         0         0         0         0         0         0         0
         0         0         0         0         0         0         0         0
         0         0         0         0         0         0         0         0
         0         0         0         0         0         0         0         0
         0         0         0         0         0         0         0         0
         0         0         0         0         0         0         0         0
         0         0         0         0         0         0         0         0
         0         0         0         0         0         0         0         0
         0         0         0         0         0         0         0         0
         0         0         0         0         0         0         0         0
         0         0         0         0         0         0         0         0
         0         0         0         0         0         0         0         0
         0         0         0         0         0         0         0         0
         0         0         0         0         0         0         0         0
         0         0         0         0         0         0         0         0
         0         0         0         0         0         0         0         0
         0         0         0         0         0         0         0         0
         0         0         0         0         0         0         0         0
         0         0         0         0         0         0         0         0
         0         0         0         0         0         0         0         0
         0         0         0         0         0         0         0         0
         0         0         0         0         0         0         0         0
         0         0         0         0         0         0         0         0
         0         0         0         0         0         0         0         0
         0         0         0         0         0         0         0         0
         0         0         0         0         0         0         0         0
         0         0         0         0         0         0         0         0
         0         0         0         0         0         0         0         0
         0         0         0         0         0         0         0         0
         0         0         0         0         0         0         0         0
         0         0         0         0         0         0         0         0
         0         0         0         0         0         0         0         0
         0         0         0         0         0         0         0         0
         0         0         0         0         0         0         0         0
         0         0         0         0         0         0         0         0
         0         0         0         0         0         0         0         0
         0         0         0         0         0         0         0         0
         0         0         0         0         0         0         0         0
         0         0         0         0         0         0         0         0
         0         0         0         0         0         0         0         0
         0         0         0         0         0         0         0         0
         0         0         0         0         0         0         0         0
         0         0         0         0         0         0         0         0
         0         0         0         0         0         0         0         0
         0         0         0         0         0         0         0         0
         0         0         0         0         0         0         0         0
         0         0         0         0         0         0         0         0
         0         0         0         0         0         0         0         0
         0         0         0         0         0         0         0         0
         0         0         0         0         0         0         0         0
         0         0         0         0         0         0         0         0
         0         0         0         0         0         0         0         0
         0         0         0         0         0         0         0         0
         0         0         0         0         0         0         0         0
         0         0         0         0         0         0         0         0
         0         0         0         0         0         0         0         0
         0         0         0         0         0         0         0         0
         0         0         0         0         0         0         0         0
         0         0         0         0         0         0         0         0
         0         0         0         0         0         0         0         0
         0         0         0         0         0         0         0         0
         0         0         0         0         0         0         0         0
         0         0         0         0         0         0         0         0
         0         0         0         0         0         0         0         0
         0         0         0         0         0         0         0         0
         0         0         0         0         0         0         0         0
         0         0         0         0         0         0         0         0
         0         0         0         0         0         0         0         0
         0         0         0         0         0         0         0         0
         0         0         0         0         0         0         0         0
         0         0         0         0         0         0         0         0
         0         0         0         0         0         0         0         0
         0         0         0         0         0         0         0         0
         0         0         0         0         0         0         0         0
         0         0         0         0         0         0         0         0
         0         0         0         0         0         0         0         0
         0         0         0         0         0         0         0         0
         0         0         0         0         0         0         0         0
         0         0         0         0         0         0         0         0
         0         0         0         0         0         0         0         0
         0         0         0         0         0         0         0         0
         0         0         0         0         0         0         0         0
         0         0         0         0         0         0         0         0
         0         0         0         0         0         0         0         0
         0         0         0         0         0         0         0         0
         0         0         0         0         0         0         0         0
         0         0         0         0         0         0         0         0
         0         0         0         0         0         0         0         0
         0         0         0         0         0         0         0         0
         0         0         0         0         0         0         0         0
         0         0         0         0         0         0         0         0
         0         0         0         0         0         0         0         0
         0         0         0         0         0         0         0         0
         0         0         0         0         0         0         0         0
         0         0         0         0         0         0         0         0
         0         0         0         0         0         0         0         0
         0         0         0         0         0         0         0         0
         0         0         0         0         0         0         0         0
         0         0         0         0         0         0         0         0
         0         0         0         0         0         0         0         0
         0         0         0         0         0         0         0         0
         0         0         0         0         0         0         0         0
         0         0         0         0         0         0         0         0
         0         0         0         0         0         0         0         0
         0         0         0         0         0         0         0         0
         0         0         0         0         0         0         0         0
         0         0         0         0         0         0         0         0
         0         0         0         0         0         0         0         0
         0         0         0         0         0         0         0         0
         0         0         0         0         0         0         0         0
         0         0         0         0         0         0         0         0
         0         0         0         0         0         0         0         0
         0         0         0         0         0         0         0         0
         0         0         0         0         0         0         0         0
         0         0         0         0         0         0         0         0
         0         0         0         0         0         0         0         0
         0         0         0         0         0         0         0         0
         0         0         0         0         0         0         0         0
         0         0         0         0         0         0         0         0
         0         0         0         0         0         0         0         0
         0         0         0         0         0         0         0         0
         0         0         0         0         0         0         0         0
         0         0         0         0         0         0         0         0
         0         0         0         0         0         0         0         0
         0         0         0         0         0         0         0         0
         0         0         0         0         0         0         0         0
         0         0         0         0         0         0         0         0
         0         0         0         0         0         0         0         0
         0         0         0         0         0         0         0         0
         0         0         0         0         0         0         0         0
         0         0         0         0         0         0         0         0
         0         0         0         0         0         0         0         0
         0         0         0         0         0         0         0         0
         0         0         0         0         0         0         0         0
         0         0         0         0         0         0         0         0
         0         0         0         0         0         0         0         0
         0         0         0         0         0         0         0         0
         0         0         0         0         0         0         0         0
         0         0         0         0         0         0         0         0
         0         0         0         0         0         0         0         0
         0         0         0         0         0         0         0         0
         0         0         0         0         0         0         0         0
         0         0         0         0         0         0         0         0
         0         0         0         0         0         0         0         0
         0         0         0         0         0         0         0         0
         0         0         0         0         0         0         0         0
         0         0         0         0         0         0         0         0
         0         0         0         0         0         0         0         0
         0         0         0         0         0         0         0         0
         0         0         0         0         0         0         0         0
         0         0         0         0         0         0         0         0
         0         0         0         0         0         0         0         0
         0         0         0         0         0         0         0         0
         0         0         0         0         0         0         0         0
         0         0         0         0         0         0         0         0
         0         0         0         0         0         0         0         0
         0         0         0         0         0         0         0         0
         0         0         0         0         0         0         0         0
         0         0         0         0         0         0         0         0
         0         0         0         0         0         0         0         0
         0         0         0         0         0         0         0         0
         0         0         0         0         0         0         0         0
         0         0         0         0         0         0         0         0
         0         0         0         0         0         0         0         0
         0         0         0         0         0         0         0         0
         0         0         0         0         0         0         0         0
         0         0         0         0         0         0         0         0
         0         0         0         0         0         0         0         0
         0         0         0         0         0         0         0         0
         0         0         0         0         0         0         0         0
         0         0         0         0         0         0         0         0
         0         0         0         0         0         0         0         0
         0         0         0         0         0         0         0         0
         0         0         0         0         0         0         0         0
         0         0         0         0         0         0         0         0
         0         0         0         0         0         0         0         0
         0         0         0         0         0         0         0         0
         0         0         0         0         0         0         0         0
         0         0         0         0         0         0         0         0
         0         0         0         0         0         0         0         0
         0         0         0         0         0         0         0         0
         0         0         0         0         0         0         0         0
         0         0         0         0         0         0         0         0
         0         0         0         0         0         0         0         0
         0         0         0         0         0         0         0         0
         0         0         0         0         0         0         0         0
         0         0         0         0         0         0         0         0
         0         0         0         0         0         0         0         0
         0         0         0         0         0         0         0         0
         0         0         0         0         0         0         0         0
         0         0         0         0         0         0         0         0
         0         0         0         0         0         0         0         0
         0         0         0         0         0         0         0         0
         0         0         0         0         0         0         0         0
         0         0         0         0         0         0         0         0
         0         0         0         0         0         0         0         0
         0         0         0         0         0         0         0         0
         0         0         0         0         0         0         0         0
         0         0         0         0         0         0         0         0
         0         0         0         0         0         0         0         0
         0         0         0         0         0         0         0         0
         0         0         0         0         0         0         0         0
         0         0         0         0         0         0         0         0
         0         0         0         0         0         0         0         0
         0         0         0         0         0         0         0         0
         0         0         0         0         0         0         0         0
         0         0         0         0         0         0         0         0
         0         0         0         0         0         0         0         0
         0         0         0         0         0         0         0         0
         0         0         0         0         0         0         0         0
         0         0         0         0         0         0         0         0
         0         0         0         0         0         0         0         0
         0         0         0         0         0         0         0         0
         0         0         0         0         0         0         0         0
         0         0         0         0         0         0         0         0
         0         0         0         0         0         0         0         0
         0         0         0         0         0         0         0         0
         0         0         0         0         0         0         0         0
         0         0         0         0         0         0         0         0
         0         0         0         0         0         0         0         0
         0         0         0         0         0         0         0         0
         0         0         0         0         0         0         0         0
         0         0         0         0         0         0         0         0
         0         0         0         0         0         0         0         0
         0         0         0         0         0         0         0         0
         0         0         0         0         0         0         0         0
         0         0         0         0         0         0         0         0
         0         0         0         0         0         0         0         0
         0         0         0         0         0         0         0         0
         0         0         0         0         0         0         0         0
         0         0         0         0         0         0         0         0
         0         0         0         0         0         0         0         0
         0         0         0         0         0         0         0         0
         0         0         0         0         0         0         0         0
         0         0         0         0         0         0         0         0
         0         0         0         0         0         0         0         0
         0         0         0         0         0         0         0         0
         0         0         0         0         0         0         0         0
         0         0         0         0         0         0         0         0
         0         0         0         0         0         0         0         0
         0         0         0         0         0         0         0         0
         0         0         0         0         0         0         0         0
         0         0         0         0         0         0         0         0
         0         0         0         0         0         0         0         0
         0         0         0         0         0         0         0         0
         0         0         0         0         0         0         0         0
         0         0         0         0         0         0         0         0
         0         0         0         0         0         0         0         0
         0         0         0         0         0         0         0         0
         0         0         0         0         0         0         0         0
         0         0         0         0         0         0         0         0
         0         0         0         0         0         0         0         0
         0         0         0         0         0         0         0         0
         0         0         0         0         0         0         0         0
         0         0         0         0         0         0         0         0
         0         0         0         0         0         0         0         0
         0         0         0         0         0         0         0         0
         0         0         0         0         0         0         0         0
         0         0         0         0         0         0         0         0
         0         0         0         0         0         0         0         0
         0         0         0         0         0         0         0         0
         0         0         0         0         0         0         0         0
         0         0         0         0         0         0         0         0
         0         0         0         0         0         0         0         0
         0         0         0         0         0         0         0         0
         0         0         0         0         0         0         0         0
         0         0         0         0         0         0         0         0
         0         0         0         0         0         0         0         0
         0         0         0         0         0         0         0         0
         0         0         0         0         0         0         0         0
         0         0         0         0         0         0         0         0
         0         0         0         0         0         0         0         0
         0         0         0         0         0         0         0         0
         0         0         0         0         0         0         0         0
         0         0         0         0         0         0         0         0
         0         0         0         0         0         0         0         0
         0         0         0         0         0         0         0         0
         0         0         0         0         0         0         0         0
         0         0         0         0         0         0         0         0
         0         0         0         0         0         0         0         0
         0         0         0         0         0         0         0         0
         0         0         0         0         0         0         0         0
         0         0         0         0         0         0         0         0
         0         0         0         0         0         0         0         0
         0         0         0         0         0         0         0         0
         0         0         0         0         0         0         0         0
         0         0         0         0         0         0         0         0
         0         0         0         0         0         0         0         0
         0         0         0         0         0         0         0         0
         0         0         0         0         0         0         0         0
         0         0         0         0         0         0         0         0
         0         0         0         0         0         0         0         0
         0         0         0         0         0         0         0         0
         0         0         0         0         0         0         0         0
         0         0         0         0         0         0         0         0
         0         0         0         0         0         0         0         0
         0         0         0         0         0         0         0         0
         0         0         0         0         0         0         0         0
         0         0         0         0         0         0         0         0
         0         0         0         0         0         0         0         0
         0         0         0         0         0         0         0         0
         0         0         0         0         0         0         0         0
         0         0         0         0         0         0         0         0
         0         0         0         0         0         0         0         0
         0         0         0         0         0         0         0         0
         0         0         0         0         0         0         0         0
         0         0         0         0         0         0         0         0
         0         0         0         0         0         0         0         0
         0         0         0         0         0         0         0         0
         0         0         0         0         0         0         0         0
         0         0         0         0         0         0         0         0
         0         0         0         0         0         0         0         0
         0         0         0         0         0         0         0         0
         0         0         0         0         0         0         0         0
         0         0         0         0         0         0         0         0
         0         0         0         0         0         0         0         0
         0         0         0         0         0         0         0         0
         0         0         0         0         0         0         0         0
         0         0         0         0         0         0         0         0
         0         0         0         0         0         0         0         0
         0         0         0         0         0         0         0         0
         0         0         0         0         0         0         0         0
         0         0         0         0         0         0         0         0
         0         0         0         0         0         0         0         0
         0         0         0         0         0         0         0         0
         0         0         0         0         0         0         0         0
         0         0         0         0         0         0         0         0
         0         0         0         0         0         0         0         0
         0         0         0         0         0         0         0         0
         0         0         0         0         0         0         0         0
         0         0         0         0         0         0         0         0
         0         0         0         0         0         0         0         0
         0         0         0         0         0         0         0         0
         0         0         0         0         0         0         0         0
         0         0         0         0         0         0         0         0
         0         0         0         0         0         0         0         0
         0         0         0         0         0         0         0         0
         0         0         0         0         0         0         0         0
         0         0         0         0         0         0         0         0
         0         0         0         0         0         0         0         0
         0         0         0         0         0         0         0         0
         0         0         0         0         0         0         0         0
         0         0         0         0         0         0         0         0
         0         0         0         0         0         0         0         0
         0         0         0         0         0         0         0         0
         0         0         0         0         0         0         0         0
         0         0         0         0         0         0         0         0
         0         0         0         0         0         0         0         0
         0         0         0         0         0         0         0         0
         0         0         0         0         0         0         0         0
         0         0         0         0         0         0         0         0
         0         0         0         0         0         0         0         0
         0         0         0         0         0         0         0         0
         0         0         0         0         0         0         0         0
         0         0         0         0         0         0         0         0
         0         0         0         0         0         0         0         0
         0         0         0         0         0         0         0         0
         0         0         0         0         0         0         0         0
         0         0         0         0         0         0         0         0
         0         0         0         0         0         0         0         0
         0         0         0         0         0         0         0         0
         0         0         0         0         0         0         0         0
         0         0         0         0         0         0         0         0
         0         0         0         0         0         0         0         0
         0         0         0         0         0         0         0         0
         0         0         0         0         0         0         0         0
         0         0         0         0         0         0         0         0
         0         0         0         0         0         0         0         0
         0         0         0         0         0         0         0         0
         0         0         0         0         0         0         0         0
         0         0         0         0         0         0         0         0
         0         0         0         0         0         0         0         0
         0         0         0         0         0         0         0         0
         0         0         0         0         0         0         0         0
         0         0         0         0         0         0         0         0
         0         0         0         0         0         0         0         0
         0         0         0         0         0         0         0         0
         0         0         0         0         0         0         0         0
         0         0         0         0         0         0         0         0
         0         0         0         0         0         0         0         0
         0         0         0         0         0         0         0         0
         0         0         0         0         0         0         0         0
         0         0         0         0         0         0         0         0
         0         0         0         0         0         0         0         0
         0         0         0         0         0         0         0         0
         0         0         0         0         0         0         0         0
         0         0         0         0         0         0         0         0
         0         0         0         0         0         0         0         0
         0         0         0         0         0         0         0         0
         0         0         0         0         0         0         0         0
         0         0         0         0         0         0         0         0
         0         0         0         0         0         0         0         0
         0         0         0         0         0         0         0         0
         0         0         0         0         0         0         0         0
         0         0         0         0         0         0         0         0
         0         0         0         0         0         0         0         0
         0         0         0         0         0         0         0         0
         0         0         0         0         0         0         0         0
         0         0         0         0         0         0         0         0
         0         0         0         0         0         0         0         0
         0         0         0         0         0         0         0         0
         0         0         0         0         0         0         0         0
         0         0         0         0         0         0         0         0
         0         0         0         0         0         0         0         0
         0         0         0         0         0         0         0         0
         0         0         0         0         0         0         0         0
         0         0         0         0         0         0         0         0
         0         0         0         0         0         0         0         0
         0         0         0         0         0         0         0         0
         0         0         0         0         0         0         0         0
         0         0         0         0         0         0         0         0
         0         0         0         0         0         0         0         0
         0         0         0         0         0         0         0         0
         0         0         0         0         0         0         0         0
         0         0         0         0         0         0         0         0
         0         0         0         0         0         0         0         0
         0         0         0         0         0         0         0         0
         0         0         0         0         0         0         0         0
         0         0         0         0         0         0         0         0
         0         0         0         0         0         0         0         0
         0         0         0         0         0         0         0         0
         0         0         0         0         0         0         0         0
         0         0         0         0         0         0         0         0
         0         0         0         0         0         0         0         0
         0         0         0         0         0         0         0         0
         0         0         0         0         0         0         0         0
         0         0         0         0         0         0         0         0
         0         0         0         0         0         0         0         0
         0         0         0         0         0         0         0         0
         0         0         0         0         0         0         0         0
         0         0         0         0         0         0         0         0
         0         0         0         0         0         0         0         0
         0         0         0         0         0         0         0         0
         0         0         0         0         0         0         0         0
         0         0         0         0         0         0         0         0
         0         0         0         0         0         0         0         0
         0         0         0         0         0         0         0         0
         0         0         0         0         0         0         0         0
         0         0         0         0         0         0         0         0
         0         0         0         0         0         0         0         0
         0         0         0         0         0         0         0         0
         0         0         0         0         0         0         0         0
         0         0         0         0         0         0         0         0
         0         0         0         0         0         0         0         0
         0         0         0         0         0         0         0         0
         0         0         0         0         0         0         0         0
         0         0         0         0         0         0         0         0
         0         0         0         0         0         0         0         0
         0         0         0         0         0         0         0         0
         0         0         0         0         0         0         0         0
         0         0         0         0         0         0         0         0
         0         0         0         0         0         0         0         0
         0         0         0         0         0         0         0         0
         0         0         0         0         0         0         0         0
         0         0         0         0         0         0         0         0
         0         0         0         0         0         0         0         0
         0         0         0         0         0         0         0         0
         0         0         0         0         0         0         0         0
         0         0         0         0         0         0         0         0
         0         0         0         0         0         0         0         0
         0         0         0         0         0         0         0         0
         0         0         0         0         0         0         0         0
         0         0         0         0         0         0         0         0
         0         0         0         0         0         0         0         0
         0         0         0         0         0         0         0         0
         0         0         0         0         0         0         0         0
         0         0         0         0         0         0         0         0
         0         0         0         0         0         0         0         0
         0         0         0         0         0         0         0         0
         0         0         0         0         0         0         0         0
         0         0         0         0         0         0         0         0
         0         0         0         0         0         0         0         0
         0         0         0         0         0         0         0         0
         0         0         0         0         0         0         0         0
         0         0         0         0         0         0         0         0
         0         0         0         0         0         0         0         0
         0         0         0         0         0         0         0         0
         0         0         0         0         0         0         0         0
         0         0         0         0         0         0         0         0
         0         0         0         0         0         0         0         0
         0         0         0         0         0         0         0         0
         0         0         0         0         0         0         0         0
         0         0         0         0         0         0         0         0
         0         0         0         0         0         0         0         0
         0         0         0         0         0         0         0         0
         0         0         0         0         0         0         0         0
         0         0         0         0         0         0         0         0
         0         0         0         0         0         0         0         0
         0         0         0         0         0         0         0         0
         0         0         0         0         0         0         0         0
         0         0         0         0         0         0         0         0
         0         0         0         0         0         0         0         0
         0         0         0         0         0         0         0         0
         0         0         0         0         0         0         0         0
         0         0         0         0         0         0         0         0
         0         0         0         0         0         0         0         0
         0         0         0         0         0         0         0         0
         0         0         0         0         0         0         0         0
         0         0         0         0         0         0         0         0
         0         0         0         0         0         0         0         0
         0         0         0         0         0         0         0         0
         0         0         0         0         0         0         0         0
         0         0         0         0         0         0         0         0
         0         0         0         0         0         0         0         0
         0         0         0         0         0         0         0         0
         0         0         0         0         0         0         0         0
         0         0         0         0         0         0         0         0
         0         0         0         0         0         0         0         0
         0         0         0         0         0         0         0         0
         0         0         0         0         0         0         0         0
         0         0         0         0         0         0         0         0
         0         0         0         0         0         0         0         0
         0         0         0         0         0         0         0         0
         0         0         0         0         0         0         0         0
         0         0         0         0         0         0         0         0
         0         0         0         0         0         0         0         0
         0         0         0         0         0         0         0         0
         0         0         0         0         0         0         0         0
         0         0         0         0         0         0         0         0
         0         0         0         0         0         0         0         0
         0         0         0         0         0         0         0         0
         0         0         0         0         0         0         0         0
         0         0         0         0         0         0         0         0
         0         0         0         0         0         0         0         0
         0         0         0         0         0         0         0         0
         0         0         0         0         0         0         0         0
         0         0         0         0         0         0         0         0
         0         0         0         0         0         0         0         0
         0         0         0         0         0         0         0         0
         0         0         0         0         0         0         0         0
         0         0         0         0         0         0         0         0
         0         0         0         0         0         0         0         0
         0         0         0         0         0         0         0         0
         0         0         0         0         0         0         0         0
         0         0         0         0         0         0         0         0
         0         0         0         0         0         0         0         0
         0         0         0         0         0         0         0         0
         0         0         0         0         0         0         0         0
         0         0         0         0         0         0         0         0
         0         0         0         0         0         0         0         0
         0         0         0         0         0         0         0         0
         0         0         0         0         0         0         0         0
         0         0         0         0         0         0         0         0
         0         0         0         0         0         0         0         0
         0         0         0         0         0         0         0         0
         0         0         0         0         0         0         0         0
         0         0         0         0         0         0         0         0
         0         0         0         0         0         0         0         0
         0         0         0         0         0         0         0         0
         0         0         0         0         0         0         0         0
         0         0         0         0         0         0         0         0
         0         0         0         0         0         0         0         0
         0         0         0         0         0         0         0         0
         0         0         0         0         0         0         0         0
         0         0         0         0         0         0         0         0
         0         0         0         0         0         0         0         0
         0         0         0         0         0         0         0         0
         0         0         0         0         0         0         0         0
         0         0         0         0         0         0         0         0
         0         0         0         0         0         0         0         0
         0         0         0         0         0         0         0         0
         0         0         0         0         0         0         0         0
         0         0         0         0         0         0         0         0
         0         0         0         0         0         0         0         0
         0         0         0         0         0         0         0         0
         0         0         0         0         0         0         0         0
         0         0         0         0         0         0         0         0
         0         0         0         0         0         0         0         0
         0         0         0         0         0         0         0         0
         0         0         0         0         0         0         0         0
         0         0         0         0         0         0         0         0
         0         0         0         0         0         0         0         0
         0         0         0         0         0         0         0         0
         0         0         0         0         0         0         0         0
         0         0         0         0         0         0         0         0
         0         0         0         0         0         0         0         0
         0         0         0         0         0         0         0         0
         0         0         0         0         0         0         0         0
         0         0         0         0         0         0         0         0
         0         0         0         0         0         0         0         0
         0         0         0         0         0         0         0         0
         0         0         0         0         0         0         0         0
         0         0         0         0         0         0         0         0
         0         0         0         0         0         0         0         0
         0         0         0         0         0         0         0         0
         0         0         0         0         0         0         0         0
         0         0         0         0         0         0         0         0
         0         0         0         0         0         0         0         0
         0         0         0         0         0         0         0         0
         0         0         0         0         0         0         0         0
         0         0         0         0         0         0         0         0
         0         0         0         0         0         0         0         0
         0         0         0         0         0         0         0         0
         0         0         0         0         0         0         0         0
         0         0         0         0         0         0         0         0
         0         0         0         0         0         0         0         0
         0         0         0         0         0         0         0         0
         0         0         0         0         0         0         0         0
         0         0         0         0         0         0         0         0
         0         0         0         0         0         0         0         0
         0         0         0         0         0         0         0         0
         0         0         0         0         0         0         0         0
         0         0         0         0         0         0         0         0
         0         0         0         0         0         0         0         0
         0         0         0         0         0         0         0         0
         0         0         0         0         0         0         0         0
         0         0         0         0         0         0         0         0
         0         0         0         0         0         0         0         0
         0         0         0         0         0         0         0         0
         0         0         0         0         0         0         0         0
         0         0         0         0         0         0         0         0
         0         0         0         0         0         0         0         0
         0         0         0         0         0         0         0         0
         0         0         0         0         0         0         0         0
         0         0         0         0         0         0         0         0
         0         0         0         0         0         0         0         0
         0         0         0         0         0         0         0         0
         0         0         0         0         0         0         0         0
         0         0         0         0         0         0         0         0
         0         0         0         0         0         0         0         0
         0         0         0         0         0         0         0         0
         0         0         0         0         0         0         0         0
         0         0         0         0         0         0         0         0
         0         0         0         0         0         0         0         0
         0         0         0         0         0         0         0         0
         0         0         0         0         0         0         0         0
         0         0         0         0         0         0         0         0
         0         0         0         0         0         0         0         0
         0         0         0         0         0         0         0         0
         0         0         0         0         0         0         0         0
         0         0         0         0         0         0         0         0
         0         0         0         0         0         0         0         0
         0         0         0         0         0         0         0         0
         0         0         0         0         0         0         0         0
         0         0         0         0         0         0         0         0
         0         0         0         0         0         0         0         0
         0         0         0         0         0         0         0         0
         0         0         0         0         0         0         0         0
         0         0         0         0         0         0         0         0
         0         0         0         0         0         0         0         0
         0         0         0         0         0         0         0         0
         0         0         0         0         0         0         0         0
         0         0         0         0         0         0         0         0
         0         0         0         0         0         0         0         0
         0         0         0         0         0         0         0         0
         0         0         0         0         0         0         0         0
         0         0         0         0         0         0         0         0
         0         0         0         0         0         0         0         0
         0         0         0         0         0         0         0         0
         0         0         0         0         0         0         0         0
         0         0         0         0         0         0         0         0
         0         0         0         0         0         0         0         0
         0         0         0         0         0         0         0         0
         0         0         0         0         0         0         0         0
         0         0         0         0         0         0         0         0
         0         0         0         0         0         0         0         0
         0         0         0         0         0         0         0         0
         0         0         0         0         0         0         0         0
         0         0         0         0         0         0         0         0
         0         0         0         0         0         0         0         0
         0         0         0         0         0         0         0         0
         0         0         0         0         0         0         0         0
         0         0         0         0         0         0         0         0
         0         0         0         0         0         0         0         0
         0         0         0         0         0         0         0         0
         0         0         0         0         0         0         0         0
         0         0         0         0         0         0         0         0
         0         0         0         0         0         0         0         0
         0         0         0         0         0         0         0         0
         0         0         0         0         0         0         0         0
         0         0         0         0         0         0         0         0
         0         0         0         0         0         0         0         0
         0         0         0         0         0         0         0         0
         0         0         0         0         0         0         0         0
         0         0         0         0         0         0         0         0
         0         0         0         0         0         0         0         0
         0         0         0         0         0         0         0         0
         0         0         0         0         0         0         0         0
         0         0         0         0         0         0         0         0
         0         0         0         0         0         0         0         0
         0         0         0         0         0         0         0         0
         0         0         0         0         0         0         0         0
         0         0         0         0         0         0         0         0
         0         0         0         0         0         0         0         0
         0         0         0         0         0         0         0         0
         0         0         0         0         0         0         0         0
         0         0         0         0         0         0         0         0
         0         0         0         0         0         0         0         0
         0         0         0         0         0         0         0         0
         0         0         0         0         0         0         0         0
         0         0         0         0         0         0         0         0
         0         0         0         0         0         0         0         0
         0         0         0         0         0         0         0         0
         0         0         0         0         0         0         0         0
         0         0         0         0         0         0         0         0
         0         0         0         0         0         0         0         0
         0         0         0         0         0         0         0         0
         0         0         0         0         0         0         0         0
         0         0         0         0         0         0         0         0
         0         0         0         0         0         0         0         0
         0         0         0         0         0         0         0         0
         0         0         0         0         0         0         0         0
         0         0         0         0         0         0         0         0
         0         0         0         0         0         0         0         0
         0         0         0         0         0         0         0         0
         0         0         0         0         0         0         0         0
         0         0         0         0         0         0         0         0
         0         0         0         0         0         0         0         0
         0         0         0         0         0         0         0         0
         0         0         0         0         0         0         0         0
         0         0         0         0         0         0         0         0
         0         0         0         0         0         0         0         0
         0         0         0         0         0         0         0         0
         0         0         0         0         0         0         0         0
         0         0         0         0         0         0         0         0
         0         0         0         0         0         0         0         0
         0         0         0         0         0         0         0         0
         0         0         0         0         0         0         0         0
         0         0         0         0         0         0         0         0
         0         0         0         0         0         0         0         0
         0         0         0         0         0         0         0         0
         0         0         0         0         0         0         0         0
         0         0         0         0         0         0         0         0
         0         0         0         0         0         0         0         0
         0         0         0         0         0         0         0         0
         0         0         0         0         0         0         0         0
         0         0         0         0         0         0         0         0
         0         0         0         0         0         0         0         0
         0         0         0         0         0         0         0         0
         0         0         0         0         0         0         0         0
         0         0         0         0         0         0         0         0
         0         0         0         0         0         0         0         0
         0         0         0         0         0         0         0         0
         0         0         0         0         0         0         0         0
         0         0         0         0         0         0         0         0
         0         0         0         0         0         0         0         0
         0         0         0         0         0         0         0         0
         0         0         0         0         0         0         0         0
         0         0         0         0         0         0         0         0
         0         0         0         0         0         0         0         0
         0         0         0         0         0         0         0         0
         0         0         0         0         0         0         0         0
         0         0         0         0         0         0         0         0
         0         0         0         0         0         0         0         0
         0         0         0         0         0         0         0         0
         0         0         0         0         0         0         0         0
         0         0         0         0         0         0         0         0
         0         0         0         0         0         0         0         0
         0         0         0         0         0         0         0         0
         0         0         0         0         0         0         0         0
         0         0         0         0         0         0         0         0
         0         0         0         0         0         0         0         0
         0         0         0         0         0         0         0         0
         0         0         0         0         0         0         0         0
         0         0         0         0         0         0         0         0
         0         0         0         0         0         0         0         0
         0         0         0         0         0         0         0         0
         0         0         0         0         0         0         0         0
         0         0         0         0         0         0         0         0
         0         0         0         0         0         0         0         0
         0         0         0         0         0         0         0         0
         0         0         0         0         0         0         0         0
         0         0         0         0         0         0         0         0
         0         0         0         0         0         0         0         0
         0         0         0         0         0         0         0         0
         0         0         0         0         0         0         0         0
         0         0         0         0         0         0         0         0
         0         0         0         0         0         0         0         0
         0         0         0         0         0         0         0         0
         0         0         0         0         0         0         0         0
         0         0         0         0         0         0         0         0
         0         0         0         0         0         0         0         0
         0         0         0         0         0         0         0         0
         0         0         0         0         0         0         0         0
         0         0         0         0         0         0         0         0
         0         0         0         0         0         0         0         0
         0         0         0         0         0         0         0         0
         0         0         0         0         0         0         0         0
         0         0         0         0         0         0         0         0
         0         0         0         0         0         0         0         0
         0         0         0         0         0         0         0         0
         0         0         0         0         0         0         0         0
         0         0         0         0         0         0         0         0
         0         0         0         0         0         0         0         0
         0         0         0         0         0         0         0         0
         0         0         0         0         0         0         0         0
         0         0         0         0         0         0         0         0
         0         0         0         0         0         0         0         0
         0         0         0         0         0         0         0         0
         0         0         0         0         0         0         0         0
         0         0         0         0         0         0         0         0
         0         0         0         0         0         0         0         0
         0         0         0         0         0         0         0         0
         0         0         0         0         0         0         0         0
         0         0         0         0         0         0         0         0
         0         0         0         0         0         0         0         0
         0         0         0         0         0         0         0         0
         0         0         0         0         0         0         0         0
         0         0         0         0         0         0         0         0
         0         0         0         0         0         0         0         0
         0         0         0         0         0         0         0         0
         0         0         0         0         0         0         0         0
         0         0         0         0         0         0         0         0
         0         0         0         0         0         0         0         0
         0         0         0         0         0         0         0         0
         0         0         0         0         0         0         0         0
         0         0         0         0         0         0         0         0
         0         0         0         0         0         0         0         0
         0         0         0         0         0         0         0         0
         0         0         0         0         0         0         0         0
         0         0         0         0         0         0         0         0
         0         0         0         0         0         0         0         0
         0         0         0         0         0         0         0         0
         0         0         0         0         0         0         0         0
         0         0         0         0         0         0         0         0
         0         0         0         0         0         0         0         0
         0         0         0         0         0         0         0         0
         0         0         0         0         0         0         0         0
         0         0         0         0         0         0         0         0
         0         0         0         0         0         0         0         0
         0         0         0         0         0         0         0         0
         0         0         0         0         0         0         0         0
         0         0         0         0         0         0         0         0
         0         0         0         0         0         0         0         0
         0         0         0         0         0         0         0         0
         0         0         0         0         0         0         0         0
         0         0         0         0         0         0         0         0
         0         0         0         0         0         0         0         0
         0         0         0         0         0         0         0         0
         0         0         0         0         0         0         0         0
         0         0         0         0         0         0         0         0
         0         0         0         0         0         0         0         0
         0         0         0         0         0         0         0         0
         0         0         0         0         0         0         0         0
         0         0         0         0         0         0         0         0
         0         0         0         0         0         0         0         0
         0         0         0         0         0         0         0         0
         0         0         0         0         0         0         0         0
         0         0         0         0         0         0         0         0
         0         0         0         0         0         0         0         0
         0         0         0         0         0         0         0         0
         0         0         0         0         0         0         0         0
         0         0         0         0         0         0         0         0
         0         0         0         0         0         0         0         0
         0         0         0         0         0         0         0         0
         0         0         0         0         0         0         0         0
         0         0         0         0         0         0         0         0
         0         0         0         0         0         0         0         0
         0         0         0         0         0         0         0         0
         0         0         0         0         0         0         0         0
         0         0         0         0         0         0         0         0
         0         0         0         0         0         0         0         0
         0         0         0         0         0         0         0         0
         0         0         0         0         0         0         0         0
         0         0         0         0         0         0         0         0
         0         0         0         0         0         0         0         0
         0         0         0         0         0         0         0         0
         0         0         0         0         0         0         0         0
         0         0         0         0         0         0         0         0
         0         0         0         0         0         0         0         0
         0         0         0         0         0         0         0         0
         0         0         0         0         0         0         0         0
         0         0         0         0         0         0         0         0
         0         0         0         0         0         0         0         0
         0         0         0         0         0         0         0         0
         0         0         0         0         0         0         0         0
         0         0         0         0         0         0         0         0
         0         0         0         0         0         0         0         0
         0         0         0         0         0         0         0         0
         0         0         0         0         0         0         0         0
         0         0         0         0         0         0         0         0
         0         0         0         0         0         0         0         0
         0         0         0         0         0         0         0         0
         0         0         0         0         0         0         0         0
         0         0         0         0         0         0         0         0
         0         0         0         0         0         0         0         0
         0         0         0         0         0         0         0         0
         0         0         0         0         0         0         0         0
         0         0         0         0         0         0         0         0
         0         0         0         0         0         0         0         0
         0         0         0         0         0         0         0         0
         0         0         0         0         0         0         0         0
         0         0         0         0         0         0         0         0
         0         0         0         0         0         0         0         0
         0         0         0         0         0         0         0         0
         0         0         0         0         0         0         0         0
         0         0         0         0         0         0         0         0
         0         0         0         0         0         0         0         0
         0         0         0         0         0         0         0         0
         0         0         0         0         0         0         0         0
         0         0         0         0         0         0         0         0
         0         0         0         0         0         0         0         0
         0         0         0         0         0         0         0         0
         0         0         0         0         0         0         0         0
         0         0         0         0         0         0         0         0
         0         0         0         0         0         0         0         0
         0         0         0         0         0         0         0         0
         0         0         0         0         0         0         0         0
         0         0         0         0         0         0         0         0
         0         0         0         0         0         0         0         0
         0         0         0         0         0         0         0         0
         0         0         0         0         0         0         0         0
         0         0         0         0         0         0         0         0
         0         0         0         0         0         0         0         0
         0         0         0         0         0         0         0         0
         0         0         0         0         0         0         0         0
         0         0         0         0         0         0         0         0
         0         0         0         0         0         0         0         0
         0         0         0         0         0         0         0         0
         0         0         0         0         0         0         0         0
         0         0         0         0         0         0         0         0
         0         0         0         0         0         0         0         0
         0         0         0         0         0         0         0         0
         0         0         0         0         0         0         0         0
         0         0         0         0         0         0         0         0
         0         0         0         0         0         0         0         0
         0         0         0         0         0         0         0         0
         0         0         0         0         0         0         0         0
         0         0         0         0         0         0         0         0
         0         0         0         0         0         0         0         0
         0         0         0         0         0         0         0         0
         0         0         0         0         0         0         0         0
         0         0         0         0         0         0         0         0
         0         0         0         0         0         0         0         0
         0         0         0         0         0         0         0         0
         0         0         0         0         0         0         0         0
         0         0         0         0         0         0         0         0
         0         0         0         0         0         0         0         0
         0         0         0         0         0         0         0         0
         0         0         0         0         0         0         0         0
         0         0         0         0         0         0         0         0
         0         0         0         0         0         0         0         0
         0         0         0         0         0         0         0         0
         0         0         0         0         0         0         0         0
         0         0         0         0         0         0         0         0
         0         0         0         0         0         0         0         0
         0         0         0         0         0         0         0         0
         0         0         0         0         0         0         0         0
         0         0         0         0         0         0         0         0
         0         0         0         0         0         0         0         0
         0         0         0         0         0         0         0         0
         0         0         0         0         0         0         0         0
         0         0         0         0         0         0         0         0
         0         0         0         0         0         0         0         0
         0         0         0         0         0         0         0         0
         0         0         0         0         0         0         0         0
         0         0         0         0         0         0         0         0
         0         0         0         0         0         0         0         0
         0         0         0         0         0         0         0         0
         0         0         0         0         0         0         0         0
         0         0         0         0         0         0         0         0
         0         0         0         0         0         0         0         0
         0         0         0         0         0         0         0         0
         0         0         0         0         0         0         0         0
         0         0         0         0         0         0         0         0
         0         0         0         0         0         0         0         0
         0         0         0         0         0         0         0         0
         0         0         0         0         0         0         0         0
         0         0         0         0         0         0         0         0
         0         0         0         0         0         0         0         0
         0         0         0         0         0         0         0         0
         0         0         0         0         0         0         0         0
         0         0         0         0         0         0         0         0
         0         0         0         0         0         0         0         0
         0         0         0         0         0         0         0         0
         0         0         0         0         0         0         0         0
         0         0         0         0         0         0         0         0
         0         0         0         0         0         0         0         0
         0         0         0         0         0         0         0         0
         0         0         0         0         0         0         0         0
         0         0         0         0         0         0         0         0
         0         0         0         0         0         0         0         0
         0         0         0         0         0         0         0         0
         0         0         0         0         0         0         0         0
         0         0         0         0         0         0         0         0
         0         0         0         0         0         0         0         0
         0         0         0         0         0         0         0         0
         0         0         0         0         0         0         0         0
         0         0         0         0         0         0         0         0
         0         0         0         0         0         0         0         0
         0         0         0         0         0         0         0         0
         0         0         0         0         0         0         0         0
         0         0         0         0         0         0         0         0
         0         0         0         0         0         0         0         0
         0         0         0         0         0         0         0         0
         0         0         0         0         0         0         0         0
         0         0         0         0         0         0         0         0
         0         0         0         0         0         0         0         0
         0         0         0         0         0         0         0         0
         0         0         0         0         0         0         0         0
         0         0         0         0         0         0         0         0
         0         0         0         0         0         0         0         0
         0         0         0         0         0         0         0         0
         0         0         0         0         0         0         0         0
         0         0         0         0         0         0         0         0
         0         0         0         0         0         0         0         0
         0         0         0         0         0         0         0         0
         0         0         0         0         0         0         0         0
         0         0         0         0         0         0         0         0
         0         0         0         0         0         0         0         0
         0         0         0         0         0         0         0         0
         0         0         0         0         0         0         0         0
         0         0         0         0         0         0         0         0
         0         0         0         0         0         0         0         0
         0         0         0         0         0         0         0         0
         0         0         0         0         0         0         0         0
         0         0         0         0         0         0         0         0
         0         0         0         0         0         0         0         0
         0         0         0         0         0         0         0         0
         0         0         0         0         0         0         0         0
         0         0         0         0         0         0         0         0
         0         0         0         0         0         0         0         0
         0         0         0         0         0         0         0         0
         0         0         0         0         0         0         0         0
         0         0         0         0         0         0         0         0
         0         0         0         0         0         0         0         0
         0         0         0         0         0         0         0         0
         0         0         0         0         0         0         0         0
         0         0         0         0         0         0         0         0
         0         0         0         0         0         0         0         0
         0         0         0         0         0         0         0         0
         0         0         0         0         0         0         0         0
         0         0         0         0         0         0         0         0
         0         0         0         0         0         0         0         0
         0         0         0         0         0         0         0         0
         0         0         0         0         0         0         0         0
         0         0         0         0         0         0         0         0
         0         0         0         0         0         0         0         0
         0         0         0         0         0         0         0         0
         0         0         0         0         0         0         0         0
         0         0         0         0         0         0         0         0
         0         0         0         0         0         0         0         0
         0         0         0         0         0         0         0         0
         0         0         0         0         0         0         0         0
         0         0         0         0         0         0         0         0
         0         0         0         0         0         0         0         0
         0         0         0         0         0         0         0         0
         0         0         0         0         0         0         0         0
         0         0         0         0         0         0         0         0
         0         0         0         0         0         0         0         0
         0         0         0         0         0         0         0         0
         0         0         0         0         0         0         0         0
         0         0         0         0         0         0         0         0
         0         0         0         0         0         0         0         0
         0         0         0         0         0         0         0         0
         0         0         0         0         0         0         0         0
         0         0         0         0         0         0         0         0
         0         0         0         0         0         0         0         0
         0         0         0         0         0         0         0         0
         0         0         0         0         0         0         0         0
         0         0         0         0         0         0         0         0
         0         0         0         0         0         0         0         0
         0         0         0         0         0         0         0         0
         0         0         0         0         0         0         0         0
         0         0         0         0         0         0         0         0
         0         0         0         0         0         0         0         0
         0         0         0         0         0         0         0         0
         0         0         0         0         0         0         0         0
         0         0         0         0         0         0         0         0
         0         0         0         0         0         0         0         0
         0         0         0         0         0         0         0         0
         0         0         0         0         0         0         0         0
         0         0         0         0         0         0         0         0
         0         0         0         0         0         0         0         0
         0         0         0         0         0         0         0         0
         0         0         0         0         0         0         0         0
         0         0         0         0         0         0         0         0
         0         0         0         0         0         0         0         0
         0         0         0         0         0         0         0         0
         0         0         0         0         0         0         0         0
         0         0         0         0         0         0         0         0
         0         0         0         0         0         0         0         0
         0         0         0         0         0         0         0         0
         0         0         0         0         0         0         0         0
         0         0         0         0         0         0         0         0
         0         0         0         0         0         0         0         0
         0         0         0         0         0         0         0         0
         0         0         0         0         0         0         0         0
         0         0         0         0         0         0         0         0
         0         0         0         0         0         0         0         0
         0         0         0         0         0         0         0         0
         0         0         0         0         0         0         0         0
         0         0         0         0         0         0         0         0
         0         0         0         0         0         0         0         0
         0         0         0         0         0         0         0         0
         0         0         0         0         0         0         0         0
         0         0         0         0         0         0         0         0
         0         0         0         0         0         0         0         0
         0         0         0         0         0         0         0         0
         0         0         0         0         0         0         0         0
         0         0         0         0         0         0         0         0
         0         0         0         0         0         0         0         0
         0         0         0         0         0         0         0         0
         0         0         0         0         0         0         0         0
         0         0         0         0         0         0         0         0
         0         0         0         0         0         0         0         0
         0         0         0         0         0         0         0         0
         0         0         0         0         0         0         0         0
         0         0         0         0         0         0         0         0
         0         0         0         0         0         0         0         0
         0         0         0         0         0         0         0         0
         0         0         0         0         0         0         0         0
         0         0         0         0         0         0         0         0
         0         0         0         0         0         0         0         0
         0         0         0         0         0         0         0         0
         0         0         0         0         0         0         0         0
         0         0         0         0         0         0         0         0
         0         0         0         0         0         0         0         0
         0         0         0         0         0         0         0         0
         0         0         0         0         0         0         0         0
         0         0         0         0         0         0         0         0
         0         0         0         0         0         0         0         0
         0         0         0         0         0         0         0         0
         0         0         0         0         0         0         0         0
         0         0         0         0         0         0         0         0
         0         0         0         0         0         0         0         0
         0         0         0         0         0         0         0         0
         0         0         0         0         0         0         0         0
         0         0         0         0         0         0         0         0
         0         0         0         0         0         0         0         0
         0         0         0         0         0         0         0         0
         0         0         0         0         0         0         0         0
         0         0         0         0         0         0         0         0
         0         0         0         0         0         0         0         0
         0         0         0         0         0         0         0         0
         0         0         0         0         0         0         0         0
         0         0         0         0         0         0         0         0
         0         0         0         0         0         0         0         0
         0         0         0         0         0         0         0         0
         0         0         0         0         0         0         0         0
         0         0         0         0         0         0         0         0
         0         0         0         0         0         0         0         0
         0         0         0         0         0         0         0         0
         0         0         0         0         0         0         0         0
         0         0         0         0         0         0         0         0
         0         0         0         0         0         0         0         0
         0         0         0         0         0         0         0         0
         0         0         0         0         0         0         0         0
         0         0         0         0         0         0         0         0
         0         0         0         0         0         0         0         0
         0         0         0         0         0         0         0         0
         0         0         0         0         0         0         0         0
         0         0         0         0         0         0         0         0
         0         0         0         0         0         0         0         0
         0         0         0         0         0         0         0         0
         0         0         0         0         0         0         0         0
         0         0         0         0         0         0         0         0
         0         0         0         0         0         0         0         0
         0         0         0         0         0         0         0         0
         0         0         0         0         0         0         0         0
         0         0         0         0         0         0         0         0
         0         0         0         0         0         0         0         0
         0         0         0         0         0         0         0         0
         0         0         0         0         0         0         0         0
         0         0         0         0         0         0         0         0
         0         0         0         0         0         0         0         0
         0         0         0         0         0         0         0         0
         0         0         0         0         0         0         0         0
         0         0         0         0         0         0         0         0
         0         0         0         0         0         0         0         0
         0         0         0         0         0         0         0         0
         0         0         0         0         0         0         0         0
         0         0         0         0         0         0         0         0
         0         0         0         0         0         0         0         0
         0         0         0         0         0         0         0         0
         0         0         0         0         0         0         0         0
         0         0         0         0         0         0         0         0
         0         0         0         0         0         0         0         0
         0         0         0         0         0         0         0         0
         0         0         0         0         0         0         0         0
         0         0         0         0         0         0         0         0
         0         0         0         0         0         0         0         0
         0         0         0         0         0         0         0         0
         0         0         0         0         0         0         0         0
         0         0         0         0         0         0         0         0
         0         0         0         0         0         0         0         0
         0         0         0         0         0         0         0         0
         0         0         0         0         0         0         0         0
         0         0         0         0         0         0         0         0
         0         0         0         0         0         0         0         0
         0         0         0         0         0         0         0         0
         0         0         0         0         0         0         0         0
         0         0         0         0         0         0         0         0
         0         0         0         0         0         0         0         0
         0         0         0         0         0         0         0         0
         0         0         0         0         0         0         0         0
         0         0         0         0         0         0         0         0
         0         0         0         0         0         0         0         0
         0         0         0         0         0         0         0         0
         0         0         0         0         0         0         0         0
         0         0         0         0         0         0         0         0
         0         0         0         0         0         0         0         0
         0         0         0         0         0         0         0         0
         0         0         0         0         0         0         0         0
         0         0         0         0         0         0         0         0
         0         0         0         0         0         0         0         0
         0         0         0         0         0         0         0         0
         0         0         0         0         0         0         0         0
         0         0         0         0         0         0         0         0
         0         0         0         0         0         0         0         0
         0         0         0         0         0         0         0         0
         0         0         0         0         0         0         0         0
         0         0         0         0         0         0         0         0
         0         0         0         0         0         0         0         0
         0         0         0         0         0         0         0         0
         0         0         0         0         0         0         0         0
         0         0         0         0         0         0         0         0
         0         0         0         0         0         0         0         0
         0         0         0         0         0         0         0         0
         0         0         0         0         0         0         0         0
         0         0         0         0         0         0         0         0
         0         0         0         0         0         0         0         0
         0         0         0         0         0         0         0         0
         0         0         0         0         0         0         0         0
         0         0         0         0         0         0         0         0
         0         0         0         0         0         0         0         0
         0         0         0         0         0         0         0         0
         0         0         0         0         0         0         0         0
         0         0         0         0         0         0         0         0
         0         0         0         0         0         0         0         0
         0         0         0         0         0         0         0         0
         0         0         0         0         0         0         0         0
         0         0         0         0         0         0         0         0
         0         0         0         0         0         0         0         0
         0         0         0         0         0         0         0         0
         0         0         0         0         0         0         0         0
         0         0         0         0         0         0         0         0
         0         0         0         0         0         0         0         0
         0         0         0         0         0         0         0         0
         0         0         0         0         0         0         0         0
         0         0         0         0         0         0         0         0
         0         0         0         0         0         0         0         0
         0         0         0         0         0         0         0         0
         0         0         0         0         0         0         0         0
         0         0         0         0         0         0         0         0
         0         0         0         0         0         0         0         0
         0         0         0         0         0         0         0         0
         0         0         0         0         0         0         0         0
         0         0         0         0         0         0         0         0
         0         0         0         0         0         0         0         0
         0         0         0         0         0         0         0         0
         0         0         0         0         0         0         0         0
         0         0         0         0         0         0         0         0
         0         0         0         0         0         0         0         0
         0         0         0         0         0         0         0         0
         0         0         0         0         0         0         0         0
         0         0         0         0         0         0         0         0
         0         0         0         0         0         0         0         0
         0         0         0         0         0         0         0         0
         0         0         0         0         0         0         0         0
         0         0         0         0         0         0         0         0
         0         0         0         0         0         0         0         0
         0         0         0         0         0         0         0         0
         0         0         0         0         0         0         0         0
         0         0         0         0         0         0         0         0
         0         0         0         0         0         0         0         0
         0         0         0         0         0         0         0         0
         0         0         0         0         0         0         0         0
         0         0         0         0         0         0         0         0
         0         0         0         0         0         0         0         0
         0         0         0         0         0         0         0         0
         0         0         0         0         0         0         0         0
         0         0         0         0         0         0         0         0
         0         0         0         0         0         0         0         0
         0         0         0         0         0         0         0         0
         0         0         0         0         0         0         0         0
         0         0         0         0         0         0         0         0
         0         0         0         0         0         0         0         0
         0         0         0         0         0         0         0         0
         0         0         0         0         0         0         0         0
         0         0         0         0         0         0         0         0
         0         0         0         0         0         0         0         0
         0         0         0         0         0         0         0         0
         0         0         0         0         0         0         0         0
         0         0         0         0         0         0         0         0
         0         0         0         0         0         0         0         0
         0         0         0         0         0         0         0         0
         0         0         0         0         0         0         0         0
         0         0         0         0         0         0         0         0
         0         0         0         0         0         0         0         0
         0         0         0         0         0         0         0         0
         0         0         0         0         0         0         0         0
         0         0         0         0         0         0         0         0
         0         0         0         0         0         0         0         0
         0         0         0         0         0         0         0         0
         0         0         0         0         0         0         0         0
         0         0         0         0         0         0         0         0
         0         0         0         0         0         0         0         0
         0         0         0         0         0         0         0         0
         0         0         0         0         0         0         0         0
         0         0         0         0         0         0         0         0
         0         0         0         0         0         0         0         0
         0         0         0         0         0         0         0         0
         0         0         0         0         0         0         0         0
         0         0         0         0         0         0         0         0
         0         0         0         0         0         0         0         0
         0         0         0         0         0         0         0         0
         0         0         0         0         0         0         0         0
         0         0         0         0         0         0         0         0
         0         0         0         0         0         0         0         0
         0         0         0         0         0         0         0         0
         0         0         0         0         0         0         0         0
         0         0         0         0         0         0         0         0
         0         0         0         0         0         0         0         0
         0         0         0         0         0         0         0         0
         0         0         0         0         0         0         0         0
         0         0         0         0         0         0         0         0
         0         0         0         0         0         0         0         0
         0         0         0         0         0         0         0         0
         0         0         0         0         0         0         0         0
         0         0         0         0         0         0         0         0
         0         0         0         0         0         0         0         0
         0         0         0         0         0         0         0         0
         0         0         0         0         0         0         0         0
         0         0         0         0         0         0         0         0
         0         0         0         0         0         0         0         0
         0         0         0         0         0         0         0         0
         0         0         0         0         0         0         0         0
         0         0         0         0         0         0         0         0
         0         0         0         0         0         0         0         0
         0         0         0         0         0         0         0         0
         0         0         0         0         0         0         0         0
         0         0         0         0         0         0         0         0
         0         0         0         0         0         0         0         0
         0         0         0         0         0         0         0         0
         0         0         0         0         0         0         0         0
         0         0         0         0         0         0         0         0
         0         0         0         0         0         0         0         0
         0         0         0         0         0         0         0         0
         0         0         0         0         0         0         0         0
         0         0         0         0         0         0         0         0
         0         0         0         0         0         0         0         0
         0         0         0         0         0         0         0         0
         0         0         0         0         0         0         0         0
         0         0         0         0         0         0         0         0
         0         0         0         0         0         0         0         0
         0         0         0         0         0         0         0         0
         0         0         0         0         0         0         0         0
         0         0         0         0         0         0         0         0
         0         0         0         0         0         0         0         0
         0         0         0         0         0         0         0         0
         0         0         0         0         0         0         0         0
         0         0         0         0         0         0         0         0
         0         0         0         0         0         0         0         0
         0         0         0         0         0         0         0         0
         0         0         0         0         0         0         0         0
         0         0         0         0         0         0         0         0
         0         0         0         0         0         0         0         0
         0         0         0         0         0         0         0         0
         0         0         0         0         0         0         0         0
         0         0         0         0         0         0         0         0
         0         0         0         0         0         0         0         0
         0         0         0         0         0         0         0         0
         0         0         0         0         0         0         0         0
         0         0         0         0         0         0         0         0
         0         0         0         0         0         0         0         0
         0         0         0         0         0         0         0         0
         0         0         0         0         0         0         0         0
         0         0         0         0         0         0         0         0
         0         0         0         0         0         0         0         0
         0         0         0         0         0         0         0         0
         0         0         0         0         0         0         0         0
         0         0         0         0         0         0         0         0
         0         0         0         0         0         0         0         0
         0         0         0         0         0         0         0         0
         0         0         0         0         0         0         0         0
         0         0         0         0         0         0         0         0
         0         0         0         0         0         0         0         0
         0         0         0         0         0         0         0         0
         0         0         0         0         0         0         0         0
         0         0         0         0         0         0         0         0
         0         0         0         0         0         0         0         0
         0         0         0         0         0         0         0         0
         0         0         0         0         0         0         0         0
         0         0         0         0         0         0         0         0
         0         0         0         0         0         0         0         0
         0         0         0         0         0         0         0         0
         0         0         0         0         0         0         0         0
         0         0         0         0         0         0         0         0
         0         0         0         0         0         0         0         0
         0         0         0         0         0         0         0         0
         0         0         0         0         0         0         0         0
         0         0         0         0         0         0         0         0
         0         0         0         0         0         0         0         0
         0         0         0         0         0         0         0         0
         0         0         0         0         0         0         0         0
         0         0         0         0         0         0         0         0
         0         0         0         0         0         0         0         0
         0         0         0         0         0         0         0         0
         0         0         0         0         0         0         0         0
         0         0         0         0         0         0         0         0
         0         0         0         0         0         0         0         0
         0         0         0         0         0         0         0         0
         0         0         0         0         0         0         0         0
         0         0         0         0         0         0         0         0
         0         0         0         0         0         0         0         0
         0         0         0         0         0         0         0         0
         0         0         0         0         0         0         0         0
         0         0         0         0         0         0         0         0
         0         0         0         0         0         0         0         0
         0         0         0         0         0         0         0         0
         0         0         0         0         0         0         0         0
         0         0         0         0         0         0         0         0
         0         0         0         0         0         0         0         0
         0         0         0         0         0         0         0         0
         0         0         0         0         0         0         0         0
         0         0         0         0         0         0         0         0
         0         0         0         0         0         0         0         0
         0         0         0         0         0         0         0         0
         0         0         0         0         0         0         0         0
         0         0         0         0         0         0         0         0
         0         0         0         0         0         0         0         0
         0         0         0         0         0         0         0         0
         0         0         0         0         0         0         0         0
         0         0         0         0         0         0         0         0
         0         0         0         0         0         0         0         0
         0         0         0         0         0         0         0         0
         0         0         0         0         0         0         0         0
         0         0         0         0         0         0         0         0
         0         0         0         0         0         0         0         0
         0         0         0         0         0         0         0         0
         0         0         0         0         0         0         0         0
         0         0         0         0         0         0         0         0
         0         0         0         0         0         0         0         0
         0         0         0         0         0         0         0         0
         0         0         0         0         0         0         0         0
         0         0         0         0         0         0         0         0
         0         0         0         0         0         0         0         0
         0         0         0         0         0         0         0         0
         0         0         0         0         0         0         0         0
         0         0         0         0         0         0         0         0
         0         0         0         0         0         0         0         0
         0         0         0         0         0         0         0         0
         0         0         0         0         0         0         0         0
         0         0         0         0         0         0         0         0
         0         0         0         0         0         0         0         0
         0         0         0         0         0         0         0         0
         0         0         0         0         0         0         0         0
         0         0         0         0         0         0         0         0
         0         0         0         0         0         0         0         0
         0         0         0         0         0         0         0         0
         0         0         0         0         0         0         0         0
         0         0         0         0         0         0         0         0
         0         0         0         0         0         0         0         0
         0         0         0         0         0         0         0         0
         0         0         0         0         0         0         0         0
         0         0         0         0         0         0         0         0
         0         0         0         0         0         0         0         0
         0         0         0         0         0         0         0         0
         0         0         0         0         0         0         0         0
         0         0         0         0         0         0         0         0
         0         0         0         0         0         0         0         0
         0         0         0         0         0         0         0         0
         0         0         0         0         0         0         0         0
         0         0         0         0         0         0         0         0
         0         0         0         0         0         0         0         0
         0         0         0         0         0         0         0         0
         0         0         0         0         0         0         0         0
         0         0         0         0         0         0         0         0
         0         0         0         0         0         0         0         0
         0         0         0         0         0         0         0         0
         0         0         0         0         0         0         0         0
         0         0         0         0         0         0         0         0
         0         0         0         0         0         0         0         0
         0         0         0         0         0         0         0         0
         0         0         0         0         0         0         0         0
         0         0         0         0         0         0         0         0
         0         0         0         0         0         0         0         0
         0         0         0         0         0         0         0         0
         0         0         0         0         0         0         0         0
         0         0         0         0         0         0         0         0
         0         0         0         0         0         0         0         0
         0         0         0         0         0         0         0         0
         0         0         0         0         0         0         0         0
         0         0         0         0         0         0         0         0
         0         0         0         0         0         0         0         0
         0         0         0         0         0         0         0         0
         0         0         0         0         0         0         0         0
         0         0         0         0         0         0         0         0
         0         0         0         0         0         0         0         0
         0         0         0         0         0         0         0         0
         0         0         0         0         0         0         0         0
         0         0         0         0         0         0         0         0
         0         0         0         0         0         0         0         0
         0         0         0         0         0         0         0         0
         0         0         0         0         0         0         0         0
         0         0         0         0         0         0         0         0
         0         0         0         0         0         0         0         0
         0         0         0         0         0         0         0         0
         0         0         0         0         0         0         0         0
         0         0         0         0         0         0         0         0
         0         0         0         0         0         0         0         0
         0         0         0         0         0         0         0         0
         0         0         0         0         0         0         0         0
         0         0         0         0         0         0         0         0
         0         0         0         0         0         0         0         0
         0         0         0         0         0         0         0         0
         0         0         0         0         0         0         0         0
         0         0         0         0         0         0         0         0
         0         0         0         0         0         0         0         0
         0         0         0         0         0         0         0         0
         0         0         0         0         0         0         0         0
         0         0         0         0         0         0         0         0
         0         0         0         0         0         0         0         0
         0         0         0         0         0         0         0         0
         0         0         0         0         0         0         0         0
         0         0         0         0         0         0         0         0
         0         0         0         0         0         0         0         0
         0         0         0         0         0         0         0         0
         0         0         0         0         0         0         0         0
         0         0         0         0         0         0         0         0
         0         0         0         0         0         0         0         0
         0         0         0         0         0         0         0         0
         0         0         0         0         0         0         0         0
         0         0         0         0         0         0         0         0
         0         0         0         0         0         0         0         0
         0         0         0         0         0         0         0         0
         0         0         0         0         0         0         0         0
         0         0         0         0         0         0         0         0
         0         0         0         0         0         0         0         0
         0         0         0         0         0         0         0         0
         0         0         0         0         0         0         0         0
         0         0         0         0         0         0         0         0
         0         0         0         0         0         0         0         0
         0         0         0         0         0         0         0         0
         0         0         0         0         0         0         0         0
         0         0         0         0         0         0         0         0
         0         0         0         0         0         0         0         0
         0         0         0         0         0         0         0         0
         0         0         0         0         0         0         0         0
         0         0         0         0         0         0         0         0
         0         0         0         0         0         0         0         0
         0         0         0         0         0         0         0         0
         0         0         0         0         0         0         0         0
         0         0         0         0         0         0         0         0
         0         0         0         0         0         0         0         0
         0         0         0         0         0         0         0         0
         0         0         0         0         0         0         0         0
         0         0         0         0         0         0         0         0
         0         0         0         0         0         0         0         0
         0         0         0         0         0         0         0         0
         0         0         0         0         0         0         0         0
         0         0         0         0         0         0         0         0
         0         0         0         0         0         0         0         0
         0         0         0         0         0         0         0         0
         0         0         0         0         0         0         0         0
         0         0         0         0         0         0         0         0
         0         0         0         0         0         0         0         0
         0         0         0         0         0         0         0         0
         0         0         0         0         0         0         0         0
         0         0         0         0         0         0         0         0
         0         0         0         0         0         0         0         0
         0         0         0         0         0         0         0         0
         0         0         0         0         0         0         0         0
         0         0         0         0         0         0         0         0
         0         0         0         0         0         0         0         0
         0         0         0         0         0         0         0         0
         0         0         0         0         0         0         0         0
         0         0         0         0         0         0         0         0
         0         0         0         0         0         0         0         0
         0         0         0         0         0         0         0         0
         0         0         0         0         0         0         0         0
         0         0         0         0         0         0         0         0
         0         0         0         0         0         0         0         0
         0         0         0         0         0         0         0         0
         0         0         0         0         0         0         0         0
         0         0         0         0         0         0         0         0
         0         0         0         0         0         0         0         0
         0         0         0         0         0         0         0         0
         0         0         0         0         0         0         0         0
         0         0         0         0         0         0         0         0
         0         0         0         0         0         0         0         0
         0         0         0         0         0         0         0         0
         0         0         0         0         0         0         0         0
         0         0         0         0         0         0         0         0
         0         0         0         0         0         0         0         0
         0         0         0         0         0         0         0         0
         0         0         0         0         0         0         0         0
         0         0         0         0         0         0         0         0
         0         0         0         0         0         0         0         0
         0         0         0         0         0         0         0         0
         0         0         0         0         0         0         0         0
         0         0         0         0         0         0         0         0
         0         0         0         0         0         0         0         0
         0         0         0         0         0         0         0         0
         0         0         0         0         0         0         0         0
         0         0         0         0         0         0         0         0
         0         0         0         0         0         0         0         0
         0         0         0         0         0         0         0         0
         0         0         0         0         0         0         0         0
         0         0         0         0         0         0         0         0
         0         0         0         0         0         0         0         0
         0         0         0         0         0         0         0         0
         0         0         0         0         0         0         0         0
         0         0         0         0         0         0         0         0
         0         0         0         0         0         0         0         0
         0         0         0         0         0         0         0         0
         0         0         0         0         0         0         0         0
         0         0         0         0         0         0         0         0
         0         0         0         0         0         0         0         0
         0         0         0         0         0         0         0         0
         0         0         0         0         0         0         0         0
         0         0         0         0         0         0         0         0
         0         0         0         0         0         0         0         0
         0         0         0         0         0         0         0         0
         0         0         0         0         0         0         0         0
         0         0         0         0         0         0         0         0
         0         0         0         0         0         0         0         0
         0         0         0         0         0         0         0         0
         0         0         0         0         0         0         0         0
         0         0         0         0         0         0         0         0
         0         0         0         0         0         0         0         0
         0         0         0         0         0         0         0         0
         0         0         0         0         0         0         0         0
         0         0         0         0         0         0         0         0
         0         0         0         0         0         0         0         0
         0         0         0         0         0         0         0         0
         0         0         0         0         0         0         0         0
         0         0         0         0         0         0         0         0
         0         0         0         0         0         0         0         0
         0         0         0         0         0         0         0         0
         0         0         0         0         0         0         0         0
         0         0         0         0         0         0         0         0
         0         0         0         0         0         0         0         0
         0         0         0         0         0         0         0         0
         0         0         0         0         0         0         0         0
         0         0         0         0         0         0         0         0
         0         0         0         0         0         0         0         0
         0         0         0         0         0         0         0         0
         0         0         0         0         0         0         0         0
         0         0         0         0         0         0         0         0
         0         0         0         0         0         0         0         0
         0         0         0         0         0         0         0         0
         0         0         0         0         0         0         0         0
         0         0         0         0         0         0         0         0
         0         0         0         0         0         0         0         0
         0         0         0         0         0         0         0         0
         0         0         0         0         0         0         0         0
         0         0         0         0         0         0         0         0
         0         0         0         0         0         0         0         0
         0         0         0         0         0         0         0         0
         0         0         0         0         0         0         0         0
         0         0         0         0         0         0         0         0
         0         0         0         0         0         0         0         0
         0         0         0         0         0         0         0         0
         0         0         0         0         0         0         0         0
         0         0         0         0         0         0         0         0
         0         0         0         0         0         0         0         0
         0         0         0         0         0         0         0         0
         0         0         0         0         0         0         0         0
         0         0         0         0         0         0         0         0
         0         0         0         0         0         0         0         0
         0         0         0         0         0         0         0         0
         0         0         0         0         0         0         0         0
         0         0         0         0         0         0         0         0
         0         0         0         0         0         0         0         0
         0         0         0         0         0         0         0         0
         0         0         0         0         0         0         0         0
         0         0         0         0         0         0         0         0
         0         0         0         0         0         0         0         0
         0         0         0         0         0         0         0         0
         0         0         0         0         0         0         0         0
         0         0         0         0         0         0         0         0
         0         0         0         0         0         0         0         0
         0         0         0         0         0         0         0         0
         0         0         0         0         0         0         0         0
         0         0         0         0         0         0         0         0
         0         0         0         0         0         0         0         0
         0         0         0         0         0         0         0         0
         0         0         0         0         0         0         0         0
         0         0         0         0         0         0         0         0
         0         0         0         0         0         0         0         0
         0         0         0         0         0         0         0         0
         0         0         0         0         0         0         0         0
         0         0         0         0         0         0         0         0
         0         0         0         0         0         0         0         0
         0         0         0         0         0         0         0         0
         0         0         0         0         0         0         0         0
         0         0         0         0         0         0         0         0
         0         0         0         0         0         0         0         0
         0         0         0         0         0         0         0         0
         0         0         0         0         0         0         0         0
         0         0         0         0         0         0         0         0
         0         0         0         0         0         0         0         0
         0         0         0         0         0         0         0         0
         0         0         0         0         0         0         0         0
         0         0         0         0         0         0         0         0
         0         0         0         0         0         0         0         0
         0         0         0         0         0         0         0         0
         0         0         0         0         0         0         0         0
         0         0         0         0         0         0         0         0
         0         0         0         0         0         0         0         0
         0         0         0         0         0         0         0         0
         0         0         0         0         0         0         0         0
         0         0         0         0         0         0         0         0
         0         0         0         0         0         0         0         0
         0         0         0         0         0         0         0         0
         0         0         0         0         0         0         0         0
         0         0         0         0         0         0         0         0
         0         0         0         0         0         0         0         0
         0         0         0         0         0         0         0         0
         0         0         0         0         0         0         0         0
         0         0         0         0         0         0         0         0
         0         0         0         0         0         0         0         0
         0         0         0         0         0         0         0         0
         0         0         0         0         0         0         0         0
         0         0         0         0         0         0         0         0
         0         0         0         0         0         0         0         0
         0         0         0         0         0         0         0         0
         0         0         0         0         0         0         0         0
         0         0         0         0         0         0         0         0
         0         0         0         0         0         0         0         0
         0         0         0         0         0         0         0         0
         0         0         0         0         0         0         0         0
         0         0         0         0         0         0         0         0
         0         0         0         0         0         0         0         0
         0         0         0         0         0         0         0         0
         0         0         0         0         0         0         0         0
         0         0         0         0         0         0         0         0
         0         0         0         0         0         0         0         0
         0         0         0         0         0         0         0         0
         0         0         0         0         0         0         0         0
         0         0         0         0         0         0         0         0
         0         0         0         0         0         0         0         0
         0         0         0         0         0         0         0         0
         0         0         0         0         0         0         0         0
         0         0         0         0         0         0         0         0
         0         0         0         0         0         0         0         0
         0         0         0         0         0         0         0         0
         0         0         0         0         0         0         0         0
         0         0         0         0         0         0         0         0
         0         0         0         0         0         0         0         0
         0         0         0         0         0         0         0         0
         0         0         0         0         0         0         0         0
         0         0         0         0         0         0         0         0
         0         0         0         0         0         0         0         0
         0         0         0         0         0         0         0         0
         0         0         0         0         0         0         0         0
         0         0         0         0         0         0         0         0
         0         0         0         0         0         0         0         0
         0         0         0         0         0         0         0         0
         0         0         0         0         0         0         0         0
         0         0         0         0         0         0         0         0
         0         0         0         0         0         0         0         0
         0         0         0         0         0         0         0         0
         0         0         0         0         0         0         0         0
         0         0         0         0         0         0         0         0
         0         0         0         0         0         0         0         0
         0         0         0         0         0         0         0         0
         0         0         0         0         0         0         0         0
         0         0         0         0         0         0         0         0
         0         0         0         0         0         0         0         0
         0         0         0         0         0         0         0         0
         0         0         0         0         0         0         0         0
         0         0         0         0         0         0         0         0
         0         0         0         0         0         0         0         0
         0         0         0         0         0         0         0         0
         0         0         0         0         0         0         0         0
         0         0         0         0         0         0         0         0
         0         0         0         0         0         0         0         0
         0         0         0         0         0         0         0         0
         0         0         0         0         0         0         0         0
         0         0         0         0         0         0         0         0
         0         0         0         0         0         0         0         0
         0         0         0         0         0         0         0         0
         0         0         0         0         0         0         0         0
         0         0         0         0         0         0         0         0
         0         0         0         0         0         0         0         0
         0         0         0         0         0         0         0         0
         0         0         0         0         0         0         0         0
         0         0         0         0         0         0         0         0
         0         0         0         0         0         0         0         0
         0         0         0         0         0         0         0         0
         0         0         0         0         0         0         0         0
         0         0         0         0         0         0         0         0
         0         0         0         0         0         0         0         0
         0         0         0         0         0         0         0         0
         0         0         0         0         0         0         0         0
         0         0         0         0         0         0         0         0
         0         0         0         0         0         0         0         0
         0         0         0         0         0         0         0         0
         0         0         0         0         0         0         0         0
         0         0         0         0         0         0         0         0
         0         0         0         0         0         0         0         0
         0         0         0         0         0         0         0         0
         0         0         0         0         0         0         0         0
         0         0         0         0         0         0         0         0
         0         0         0         0         0         0         0         0
         0         0         0         0         0         0         0         0
         0         0         0         0         0         0         0         0
         0         0         0         0         0         0         0         0
         0         0         0         0         0         0         0         0
         0         0         0         0         0         0         0         0
         0         0         0         0         0         0         0         0
         0         0         0         0         0         0         0         0
         0         0         0         0         0         0         0         0
         0         0         0         0         0         0         0         0
         0         0         0         0         0         0         0         0
         0         0         0         0         0         0         0         0
         0         0         0         0         0         0         0         0
         0         0         0         0         0         0         0         0
         0         0         0         0         0         0         0         0
         0         0         0         0         0         0         0         0
         0         0         0         0         0         0         0         0
         0         0         0         0         0         0         0         0
         0         0         0         0         0         0         0         0
         0         0         0         0         0         0         0         0
         0         0         0         0         0         0         0         0
         0         0         0         0         0         0         0         0
         0         0         0         0         0         0         0         0
         0         0         0         0         0         0         0         0
         0         0         0         0         0         0         0         0
         0         0         0         0         0         0         0         0
         0         0         0         0         0         0         0         0
         0         0         0         0         0         0         0         0
         0         0         0         0         0         0         0         0
         0         0         0         0         0         0         0         0
         0         0         0         0         0         0         0         0
         0         0         0         0         0         0         0         0
         0         0         0         0         0         0         0         0
         0         0         0         0         0         0         0         0
         0         0         0         0         0         0         0         0
         0         0         0         0         0         0         0         0
         0         0         0         0         0         0         0         0
         0         0         0         0         0         0         0         0
         0         0         0         0         0         0         0         0
         0         0         0         0         0         0         0         0
         0         0         0         0         0         0         0         0
         0         0         0         0         0         0         0         0
         0         0         0         0         0         0         0         0
         0         0         0         0         0         0         0         0
         0         0         0         0         0         0         0         0
         0         0         0         0         0         0         0         0
         0         0         0         0         0         0         0         0
         0         0         0         0         0         0         0         0
         0         0         0         0         0         0         0         0
         0         0         0         0         0         0         0         0
         0         0         0         0         0         0         0         0
         0         0         0         0         0         0         0         0
         0         0         0         0         0         0         0         0
         0         0         0         0         0         0         0         0
         0         0         0         0         0         0         0         0
         0         0         0         0         0         0         0         0
         0         0         0         0         0         0         0         0
         0         0         0         0         0         0         0         0
         0         0         0         0         0         0         0         0
         0         0         0         0         0         0         0         0
         0         0         0         0         0         0         0         0
         0         0         0         0         0         0         0         0
         0         0         0         0         0         0         0         0
         0         0         0         0         0         0         0         0
         0         0         0         0         0         0         0         0
         0         0         0         0         0         0         0         0
         0         0         0         0         0         0         0         0
         0         0         0         0         0         0         0         0
         0         0         0         0         0         0         0         0
         0         0         0         0         0         0         0         0
         0         0         0         0         0         0         0         0
         0         0         0         0         0         0         0         0
         0         0         0         0         0         0         0         0
         0         0         0         0         0         0         0         0
         0         0         0         0         0         0         0         0
         0         0         0         0         0         0         0         0
         0         0         0         0         0         0         0         0
         0         0         0         0         0         0         0         0
         0         0         0         0         0         0         0         0
         0         0         0         0         0         0         0         0
         0         0         0         0         0         0         0         0
         0         0         0         0         0         0         0         0
         0         0         0         0         0         0         0         0
         0         0         0         0         0         0         0         0
         0         0         0         0         0         0         0         0
         0         0         0         0         0         0         0         0
         0         0         0         0         0         0         0         0
         0         0         0         0         0         0         0         0
         0         0         0         0         0         0         0         0
         0         0         0         0         0         0         0         0
         0         0         0         0         0         0         0         0
         0         0         0         0         0         0         0         0
         0         0         0         0         0         0         0         0
         0         0         0         0         0         0         0         0
         0         0         0         0         0         0         0         0
         0         0         0         0         0         0         0         0
         0         0         0         0         0         0         0         0
         0         0         0         0         0         0         0         0
         0         0         0         0         0         0         0         0
         0         0         0         0         0         0         0         0
         0         0         0         0         0         0         0         0
         0         0         0         0         0         0         0         0
         0         0         0         0         0         0         0         0
         0         0         0         0         0         0         0         0
         0         0         0         0         0         0         0         0
         0         0         0         0         0         0         0         0
         0         0         0         0         0         0         0         0
         0         0         0         0         0         0         0         0
         0         0         0         0         0         0         0         0
         0         0         0         0         0         0         0         0
         0         0         0         0         0         0         0         0
         0         0         0         0         0         0         0         0
         0         0         0         0         0         0         0         0
         0         0         0         0         0         0         0         0
         0         0         0         0         0         0         0         0
         0         0         0         0         0         0         0         0
         0         0         0         0         0         0         0         0
         0         0         0         0         0         0         0         0
         0         0         0         0         0         0         0         0
         0         0         0         0         0         0         0         0
         0         0         0         0         0         0         0         0
         0         0         0         0         0         0         0         0
         0         0         0         0         0         0         0         0
         0         0         0         0         0         0         0         0
         0         0         0         0         0         0         0         0
         0         0         0         0         0         0         0         0
         0         0         0         0         0         0         0         0
         0         0         0         0         0         0         0         0
         0         0         0         0         0         0         0         0
         0         0         0         0         0         0         0         0
         0         0         0         0         0         0         0         0
         0         0         0         0         0         0         0         0
         0         0         0         0         0         0         0         0
         0         0         0         0         0         0         0         0
         0         0         0         0         0         0         0         0
         0         0         0         0         0         0         0         0
         0         0         0         0         0         0         0         0
         0         0         0         0         0         0         0         0
         0         0         0         0         0         0         0         0
         0         0         0         0         0         0         0         0
         0         0         0         0         0         0         0         0
         0         0         0         0         0         0         0         0
         0         0         0         0         0         0         0         0
         0         0         0         0         0         0         0         0
         0         0         0         0         0         0         0         0
         0         0         0         0         0         0         0         0
         0         0         0         0         0         0         0         0
         0         0         0         0         0         0         0         0
         0         0         0         0         0         0         0         0
         0         0         0         0         0         0         0         0
         0         0         0         0         0         0         0         0
         0         0         0         0         0         0         0         0
         0         0         0         0         0         0         0         0
         0         0         0         0         0         0         0         0
         0         0         0         0         0         0         0         0
         0         0         0         0         0         0         0         0
         0         0         0         0         0         0         0         0
         0         0         0         0         0         0         0         0
         0         0         0         0         0         0         0         0
         0         0         0         0         0         0         0         0
         0         0         0         0         0         0         0         0
         0         0         0         0         0         0         0         0
         0         0         0         0         0         0         0         0
         0         0         0         0         0         0         0         0
         0         0         0         0         0         0         0         0
         0         0         0         0         0         0         0         0
         0         0         0         0         0         0         0         0
         0         0         0         0         0         0         0         0
         0         0         0         0         0         0         0         0
         0         0         0         0         0         0         0         0
         0         0         0         0         0         0         0         0
         0         0         0         0         0         0         0         0
         0         0         0         0         0         0         0         0
         0         0         0         0         0         0         0         0
         0         0         0         0         0         0         0         0
         0         0         0         0         0         0         0         0
         0         0         0         0         0         0         0         0
         0         0         0         0         0         0         0         0
         0         0         0         0         0         0         0         0
         0         0         0         0         0         0         0         0
         0         0         0         0         0         0         0         0
         0         0         0         0         0         0         0         0
         0         0         0         0         0         0         0         0
         0         0         0         0         0         0         0         0
         0         0         0         0         0         0         0         0
         0         0         0         0         0         0         0         0
         0         0         0         0         0         0         0         0
         0         0         0         0         0         0         0         0
         0         0         0         0         0         0         0         0
         0         0         0         0         0         0         0         0
         0         0         0         0         0         0         0         0
         0         0         0         0         0         0         0         0
         0         0         0         0         0         0         0         0
         0         0         0         0         0         0         0         0
         0         0         0         0         0         0         0         0
         0         0         0         0         0         0         0         0
         0         0         0         0         0         0         0         0
         0         0         0         0         0         0         0         0
         0         0         0         0         0         0         0         0
         0         0         0         0         0         0         0         0
         0         0         0         0         0         0         0         0
         0         0         0         0         0         0         0         0
         0         0         0         0         0         0         0         0
         0         0         0         0         0         0         0         0
         0         0         0         0         0         0         0         0
         0         0         0         0         0         0         0         0
         0         0         0         0         0         0         0         0
         0         0         0         0         0         0         0         0
         0         0         0         0         0         0         0         0
         0         0         0         0         0         0         0         0
         0         0         0         0         0         0         0         0
         0         0         0         0         0         0         0         0
         0         0         0         0         0         0         0         0
         0         0         0         0         0         0         0         0
         0         0         0         0         0         0         0         0
         0         0         0         0         0         0         0         0
         0         0         0         0         0         0         0         0
         0         0         0         0         0         0         0         0
         0         0         0         0         0         0         0         0
         0         0         0         0         0         0         0         0
         0         0         0         0         0         0         0         0
         0         0         0         0         0         0         0         0
         0         0         0         0         0         0         0         0
         0         0         0         0         0         0         0         0
         0         0         0         0         0         0         0         0
         0         0         0         0         0         0         0         0
         0         0         0         0         0         0         0         0
         0         0         0         0         0         0         0         0
         0         0         0         0         0         0         0         0
         0         0         0         0         0         0         0         0
         0         0         0         0         0         0         0         0
         0         0         0         0         0         0         0         0
         0         0         0         0         0         0         0         0
         0         0         0         0         0         0         0         0
         0         0         0         0         0         0         0         0
         0         0         0         0         0         0         0         0
         0         0         0         0         0         0         0         0
         0         0         0         0         0         0         0         0
         0         0         0         0         0         0         0         0
         0         0         0         0         0         0         0         0
         0         0         0         0         0         0         0         0
         0         0         0         0         0         0         0         0
         0         0         0         0         0         0         0         0
         0         0         0         0         0         0         0         0
         0         0         0         0         0         0         0         0
         0         0         0         0         0         0         0         0
         0         0         0         0         0         0         0         0
         0         0         0         0         0         0         0         0
         0         0         0         0         0         0         0         0
         0         0         0         0         0         0         0         0
         0         0         0         0         0         0         0         0
         0         0         0         0         0         0         0         0
         0         0         0         0         0         0         0         0
         0         0         0         0         0         0         0         0
         0         0         0         0         0         0         0         0
         0         0         0         0         0         0         0         0
         0         0         0         0         0         0         0         0
         0         0         0         0         0         0         0         0
         0         0         0         0         0         0         0         0
         0         0         0         0         0         0         0         0
         0         0         0         0         0         0         0         0
         0         0         0         0         0         0         0         0
         0         0         0         0         0         0         0         0
         0         0         0         0         0         0         0         0
         0         0         0         0         0         0         0         0
         0         0         0         0         0         0         0         0
         0         0         0         0         0         0         0         0
         0         0         0         0         0         0         0         0
         0         0         0         0         0         0         0         0
         0         0         0         0         0         0         0         0
         0         0         0         0         0         0         0         0
         0         0         0         0         0         0         0         0
         0         0         0         0         0         0         0         0
         0         0         0         0         0         0         0         0
         0         0         0         0         0         0         0         0
         0         0         0         0         0         0         0         0
         0         0         0         0         0         0         0         0
         0         0         0         0         0         0         0         0
         0         0         0         0         0         0         0         0
         0         0         0         0         0         0         0         0
         0         0         0         0         0         0         0         0
         0         0         0         0         0         0         0         0
         0         0         0         0         0         0         0         0
         0         0         0         0         0         0         0         0
         0         0         0         0         0         0         0         0
         0         0         0         0         0         0         0         0
         0         0         0         0         0         0         0         0
         0         0         0         0         0         0         0         0
         0         0         0         0         0         0         0         0
         0         0         0         0         0         0         0         0
         0         0         0         0         0         0         0         0
         0         0         0         0         0         0         0         0
         0         0         0         0         0         0         0         0
         0         0         0         0         0         0         0         0
         0         0         0         0         0         0         0         0
         0         0         0         0         0         0         0         0
         0         0         0         0         0         0         0         0
         0         0         0         0         0         0         0         0
         0         0         0         0         0         0         0         0
         0         0         0         0         0         0         0         0
         0         0         0         0         0         0         0         0
         0         0         0         0         0         0         0         0
         0         0         0         0         0         0         0         0
         0         0         0         0         0         0         0         0
         0         0         0         0         0         0         0         0
         0         0         0         0         0         0         0         0
         0         0         0         0         0         0         0         0
         0         0         0         0         0         0         0         0
         0         0         0         0         0         0         0         0
         0         0         0         0         0         0         0         0
         0         0         0         0         0         0         0         0
         0         0         0         0         0         0         0         0
         0         0         0         0         0         0         0         0
         0         0         0         0         0         0         0         0
         0         0         0         0         0         0         0         0
         0         0         0         0         0         0         0         0
         0         0         0         0         0         0         0         0
         0         0         0         0         0         0         0         0
         0         0         0         0         0         0         0         0
         0         0         0         0         0         0         0         0
         0         0         0         0         0         0         0         0
         0         0         0         0         0         0         0         0
         0         0         0         0         0         0         0         0
         0         0         0         0         0         0         0         0
         0         0         0         0         0         0         0         0
         0         0         0         0         0         0         0         0
         0         0         0         0         0         0         0         0
         0         0         0         0         0         0         0         0
         0         0         0         0         0         0         0         0
         0         0         0         0         0         0         0         0
         0         0         0         0         0         0         0         0
         0         0         0         0         0         0         0         0
         0         0         0         0         0         0         0         0
         0         0         0         0         0         0         0         0
         0         0         0         0         0         0         0         0
         0         0         0         0         0         0         0         0
         0         0         0         0         0         0         0         0
         0         0         0         0         0         0         0         0
         0         0         0         0         0         0         0         0
         0         0         0         0         0         0         0         0
         0         0         0         0         0         0         0         0
         0         0         0         0         0         0         0         0
         0         0         0         0         0         0         0         0
         0         0         0         0         0         0         0         0
         0         0         0         0         0         0         0         0
         0         0         0         0         0         0         0         0
         0         0         0         0         0         0         0         0
         0         0         0         0         0         0         0         0
         0         0         0         0         0         0         0         0
         0         0         0         0         0         0         0         0
         0         0         0         0         0         0         0         0
         0         0         0         0         0         0         0         0
         0         0         0         0         0         0         0         0
         0         0         0         0         0         0         0         0
         0         0         0         0         0         0         0         0
         0         0         0         0         0         0         0         0
         0         0         0         0         0         0         0         0
         0         0         0         0         0         0         0         0
         0         0         0         0         0         0         0         0
         0         0         0         0         0         0         0         0
         0         0         0         0         0         0         0         0
         0         0         0         0         0         0         0         0
         0         0         0         0         0         0         0         0
         0         0         0         0         0         0         0         0
         0         0         0         0         0         0         0         0
         0         0         0         0         0         0         0         0
         0         0         0         0         0         0         0         0
         0         0         0         0         0         0         0         0
         0         0         0         0         0         0         0         0
         0         0         0         0         0         0         0         0
         0         0         0         0         0         0         0         0
         0         0         0         0         0         0         0         0
         0         0         0         0         0         0         0         0
         0         0         0         0         0         0         0         0
         0         0         0         0         0         0         0         0
         0         0         0         0         0         0         0         0
         0         0         0         0         0         0         0         0
         0         0         0         0         0         0         0         0
         0         0         0         0         0         0         0         0
         0         0         0         0         0         0         0         0
         0         0         0         0         0         0         0         0
         0         0         0         0         0         0         0         0
         0         0         0         0         0         0         0         0
         0         0         0         0         0         0         0         0
         0         0         0         0         0         0         0         0
         0         0         0         0         0         0         0         0
         0         0         0         0         0         0         0         0
         0         0         0         0         0         0         0         0
         0         0         0         0         0         0         0         0
         0         0         0         0         0         0         0         0
         0         0         0         0         0         0         0         0
         0         0         0         0         0         0         0         0
         0         0         0         0         0         0         0         0
         0         0         0         0         0         0         0         0
         0         0         0         0         0         0         0         0
         0         0         0         0         0         0         0         0
         0         0         0         0         0         0         0         0
         0         0         0         0         0         0         0         0
         0         0         0         0         0         0         0         0
         0         0         0         0         0         0         0         0
         0         0         0         0         0         0         0         0
         0         0         0         0         0         0         0         0
         0         0         0         0         0         0         0         0
         0         0         0         0         0         0         0         0
         0         0         0         0         0         0         0         0
         0         0         0         0         0         0         0         0
         0         0         0         0         0         0         0         0
         0         0         0         0         0         0         0         0
         0         0         0         0         0         0         0         0
         0         0         0         0         0         0         0         0
         0         0         0         0         0         0         0         0
         0         0         0         0         0         0         0         0
         0         0         0         0         0         0         0         0
         0         0         0         0         0         0         0         0
         0         0         0         0         0         0         0         0
         0         0         0         0         0         0         0         0
         0         0         0         0         0         0         0         0
         0         0         0         0         0         0         0         0
         0         0         0         0         0         0         0         0
         0         0         0         0         0         0         0         0
         0         0         0         0         0         0         0         0
         0         0         0         0         0         0         0         0
         0         0         0         0         0         0         0         0
         0         0         0         0         0         0         0         0
         0         0         0         0         0         0         0         0
         0         0         0         0         0         0         0         0
         0         0         0         0         0         0         0         0
         0         0         0         0         0         0         0         0
         0         0         0         0         0         0         0         0
         0         0         0         0         0         0         0         0
         0         0         0         0         0         0         0         0
         0         0         0         0         0         0         0         0
         0         0         0         0         0         0         0         0
         0         0         0         0         0         0         0         0
         0         0         0         0         0         0         0         0
         0         0         0         0         0         0         0         0
         0         0         0         0         0         0         0         0
         0         0         0         0         0         0         0         0
         0         0         0         0         0         0         0         0
         0         0         0         0         0         0         0         0
         0         0         0         0         0         0         0         0
         0         0         0         0         0         0         0         0
         0         0         0         0         0         0         0         0
         0         0         0         0         0         0         0         0
         0         0         0         0         0         0         0         0
         0         0         0         0         0         0         0         0
         0         0         0         0         0         0         0         0
         0         0         0         0         0         0         0         0
         0         0         0         0         0         0         0         0
         0         0         0         0         0         0         0         0
         0         0         0         0         0         0         0         0
         0         0         0         0         0         0         0         0
         0         0         0         0         0         0         0         0
         0         0         0         0         0         0         0         0
         0         0         0         0         0         0         0         0
         0         0         0         0         0         0         0         0
         0         0         0         0         0         0         0         0
         0         0         0         0         0         0         0         0
         0         0         0         0         0         0         0         0
         0         0         0         0         0         0         0         0
         0         0         0         0         0         0         0         0
         0         0         0         0         0         0         0         0
         0         0         0         0         0         0         0         0
         0         0         0         0         0         0         0         0
         0         0         0         0         0         0         0         0
         0         0         0         0         0         0         0         0
         0         0         0         0         0         0         0         0
         0         0         0         0         0         0         0         0
         0         0         0         0         0         0         0         0
         0         0         0         0         0         0         0         0
         0         0         0         0         0         0         0         0
         0         0         0         0         0         0         0         0
         0         0         0         0         0         0         0         0
         0         0         0         0         0         0         0         0
         0         0         0         0         0         0         0         0
         0         0         0         0         0         0         0         0
         0         0         0         0         0         0         0         0
         0         0         0         0         0         0         0         0
         0         0         0         0         0         0         0         0
         0         0         0         0         0         0         0         0
         0         0         0         0         0         0         0         0
         0         0         0         0         0         0         0         0
         0         0         0         0         0         0         0         0
         0         0         0         0         0         0         0         0
         0         0         0         0         0         0         0         0
         0         0         0         0         0         0         0         0
         0         0         0         0         0         0         0         0
         0         0         0         0         0         0         0         0
         0         0         0         0         0         0         0         0
         0         0         0         0         0         0         0         0
         0         0         0         0         0         0         0         0
         0         0         0         0         0         0         0         0
         0         0         0         0         0         0         0         0
         0         0         0         0         0         0         0         0
         0         0         0         0         0         0         0         0
         0         0         0         0         0         0         0         0
         0         0         0         0         0         0         0         0
         0         0         0         0         0         0         0         0
         0         0         0         0         0         0         0         0
         0         0         0         0         0         0         0         0
         0         0         0         0         0         0         0         0
         0         0         0         0         0         0         0         0
         0         0         0         0         0         0         0         0
         0         0         0         0         0         0         0         0
         0         0         0         0         0         0         0         0
         0         0         0         0         0         0         0         0
         0         0         0         0         0         0         0         0
         0         0         0         0         0         0         0         0
         0         0         0         0         0         0         0         0
         0         0         0         0         0         0         0         0
         0         0         0         0         0         0         0         0
         0         0         0         0         0         0         0         0
         0         0         0         0         0         0         0         0
         0         0         0         0         0         0         0         0
         0         0         0         0         0         0         0         0
         0         0         0         0         0         0         0         0
         0         0         0         0         0         0         0         0
         0         0         0         0         0         0         0         0
         0         0         0         0         0         0         0         0
         0         0         0         0         0         0         0         0
         0         0         0         0         0         0         0         0
         0         0         0         0         0         0         0         0
         0         0         0         0         0         0         0         0
         0         0         0         0         0         0         0         0
         0         0         0         0         0         0         0         0
         0         0         0         0         0         0         0         0
         0         0         0         0         0         0         0         0
         0         0         0         0         0         0         0         0
         0         0         0         0         0         0         0         0
         0         0         0         0         0         0         0         0
         0         0         0         0         0         0         0         0
         0         0         0         0         0         0         0         0
         0         0         0         0         0         0         0         0
         0         0         0         0         0         0         0         0
         0         0         0         0         0         0         0         0
         0         0         0         0         0         0         0         0
         0         0         0         0         0         0         0         0
         0         0         0         0         0         0         0         0
         0         0         0         0         0         0         0         0
         0         0         0         0         0         0         0         0
         0         0         0         0         0         0         0         0
         0         0         0         0         0         0         0         0
         0         0         0         0         0         0         0         0
         0         0         0         0         0         0         0         0
         0         0         0         0         0         0         0         0
         0         0         0         0         0         0         0         0
         0         0         0         0         0         0         0         0
         0         0         0         0         0         0         0         0
         0         0         0         0         0         0         0         0
         0         0         0         0         0         0         0         0
         0         0         0         0         0         0         0         0
         0         0         0         0         0         0         0         0
         0         0         0         0         0         0         0         0
         0         0         0         0         0         0         0         0
         0         0         0         0         0         0         0         0
         0         0         0         0         0         0         0         0
         0         0         0         0         0         0         0         0
         0         0         0         0         0         0         0         0
         0         0         0         0         0         0         0         0
         0         0         0         0         0         0         0         0
         0         0         0         0         0         0         0         0
         0         0         0         0         0         0         0         0
         0         0         0         0         0         0         0         0
         0         0         0         0         0         0         0         0
         0         0         0         0         0         0         0         0
         0         0         0         0         0         0         0         0
         0         0         0         0         0         0         0         0
         0         0         0         0         0         0         0         0
         0         0         0         0         0         0         0         0
         0         0         0         0         0         0         0         0
         0         0         0         0         0         0         0         0
         0         0         0         0         0         0         0         0
         0         0         0         0         0         0         0         0
         0         0         0         0         0         0         0         0
         0         0         0         0         0         0         0         0
         0         0         0         0         0         0         0         0
         0         0         0         0         0         0         0         0
         0         0         0         0         0         0         0         0
         0         0         0         0         0         0         0         0
         0         0         0         0         0         0         0         0
         0         0         0         0         0         0         0         0
         0         0         0         0         0         0         0         0
         0         0         0         0         0         0         0         0
         0         0         0         0         0         0         0         0
         0         0         0         0         0         0         0         0
         0         0         0         0         0         0         0         0
         0         0         0         0         0         0         0         0
         0         0         0         0         0         0         0         0
         0         0         0         0         0         0         0         0
         0         0         0         0         0         0         0         0
         0         0         0         0         0         0         0         0
         0         0         0         0         0         0         0         0
         0         0         0         0         0         0         0         0
         0         0         0         0         0         0         0         0
         0         0         0         0         0         0         0         0
         0         0         0         0         0         0         0         0
         0         0         0         0         0         0         0         0
         0         0         0         0         0         0         0         0
         0         0         0         0         0         0         0         0
         0         0         0         0         0         0         0         0
         0         0         0         0         0         0         0         0
         0         0         0         0         0         0         0         0
         0         0         0         0         0         0         0         0
         0         0         0         0         0         0         0         0
         0         0         0         0         0         0         0         0
         0         0         0         0         0         0         0         0
         0         0         0         0         0         0         0         0
         0         0         0         0         0         0         0         0
         0         0         0         0         0         0         0         0
         0         0         0         0         0         0         0         0
         0         0         0         0         0         0         0         0
         0         0         0         0         0         0         0         0
         0         0         0         0         0         0         0         0
         0         0         0         0         0         0         0         0
         0         0         0         0         0         0         0         0
         0         0         0         0         0         0         0         0
         0         0         0         0         0         0         0         0
         0         0         0         0         0         0         0         0
         0         0         0         0         0         0         0         0
         0         0         0         0         0         0         0         0
         0         0         0         0         0         0         0         0
         0         0         0         0         0         0         0         0
         0         0         0         0         0         0         0         0
         0         0         0         0         0         0         0         0
         0         0         0         0         0         0         0         0
         0         0         0         0         0         0         0         0
         0         0         0         0         0         0         0         0
         0         0         0         0         0         0         0         0
         0         0         0         0         0         0         0         0
         0         0         0         0         0         0         0         0
         0         0         0         0         0         0         0         0
         0         0         0         0         0         0         0         0
         0         0         0         0         0         0         0         0
         0         0         0         0         0         0         0         0
         0         0         0         0         0         0         0         0
         0         0         0         0         0         0         0         0
         0         0         0         0         0         0         0         0
         0         0         0         0         0         0         0         0
         0         0         0         0         0         0         0         0
         0         0         0         0         0         0         0         0
         0         0         0         0         0         0         0         0
         0         0         0         0         0         0         0         0
         0         0         0         0         0         0         0         0
         0         0         0         0         0         0         0         0
         0         0         0         0         0         0         0         0
         0         0         0         0         0         0         0         0
         0         0         0         0         0         0         0         0
         0         0         0         0         0         0         0         0
         0         0         0         0         0         0         0         0
         0         0         0         0         0         0         0         0
         0         0         0         0         0         0         0         0
         0         0         0         0         0         0         0         0
         0         0         0         0         0         0         0         0
         0         0         0         0         0         0         0         0
         0         0         0         0         0         0         0         0
         0         0         0         0         0         0         0         0
         0         0         0         0         0         0         0         0
         0         0         0         0         0         0         0         0
         0         0         0         0         0         0         0         0
         0         0         0         0         0         0         0         0
         0         0         0         0         0         0         0         0
         0         0         0         0         0         0         0         0
         0         0         0         0         0         0         0         0
         0         0         0         0         0         0         0         0
         0         0         0         0         0         0         0         0
         0         0         0         0         0         0         0         0
         0         0         0         0         0         0         0         0
         0         0         0         0         0         0         0         0
         0         0         0         0         0         0         0         0
         0         0         0         0         0         0         0         0
         0         0         0         0         0         0         0         0
         0         0         0         0         0         0         0         0
         0         0         0         0         0         0         0         0
         0         0         0         0         0         0         0         0
         0         0         0         0         0         0         0         0
         0         0         0         0         0         0         0         0
         0         0         0         0         0         0         0         0
         0         0         0         0         0         0         0         0
         0         0         0         0         0         0         0         0
         0         0         0         0         0         0         0         0
         0         0         0         0         0         0         0         0
         0         0         0         0         0         0         0         0
         0         0         0         0         0         0         0         0
         0         0         0         0         0         0         0         0
         0         0         0         0         0         0         0         0
         0         0         0         0         0         0         0         0
         0         0         0         0         0         0         0         0
         0         0         0         0         0         0         0         0
         0         0         0         0         0         0         0         0
         0         0         0         0         0         0         0         0
         0         0         0         0         0         0         0         0
         0         0         0         0         0         0         0         0
         0         0         0         0         0         0         0         0
         0         0         0         0         0         0         0         0
         0         0         0         0         0         0         0         0
         0         0         0         0         0         0         0         0
         0         0         0         0         0         0         0         0
         0         0         0         0         0         0         0         0
         0         0         0         0         0         0         0         0
         0         0         0         0         0         0         0         0
         0         0         0         0         0         0         0         0
         0         0         0         0         0         0         0         0
         0         0         0         0         0         0         0         0
         0         0         0         0         0         0         0         0
         0         0         0         0         0         0         0         0
         0         0         0         0         0         0         0         0
         0         0         0         0         0         0         0         0
         0         0         0         0         0         0         0         0
         0         0         0         0         0         0         0         0
         0         0         0         0         0         0         0         0
         0         0         0         0         0         0         0         0
         0         0         0         0         0         0         0         0
         0         0         0         0         0         0         0         0
         0         0         0         0         0         0         0         0
         0         0         0         0         0         0         0         0
         0         0         0         0         0         0         0         0
         0         0         0         0         0         0         0         0
         0         0         0         0         0         0         0         0
         0         0         0         0         0         0         0         0
         0         0         0         0         0         0         0         0
         0         0         0         0         0         0         0         0
         0         0         0         0         0         0         0         0
         0         0         0         0         0         0         0         0
         0         0         0         0         0         0         0         0
         0         0         0         0         0         0         0         0
         0         0         0         0         0         0         0         0
         0         0         0         0         0         0         0         0
         0         0         0         0         0         0         0         0
         0         0         0         0         0         0         0         0
         0         0         0         0         0         0         0         0
         0         0         0         0         0         0         0         0
         0         0         0         0         0         0         0         0
         0         0         0         0         0         0         0         0
         0         0         0         0         0         0         0         0
         0         0         0         0         0         0         0         0
         0         0         0         0         0         0         0         0
         0         0         0         0         0         0         0         0
         0         0         0         0         0         0         0         0
         0         0         0         0         0         0         0         0
         0         0         0         0         0         0         0         0
         0         0         0         0         0         0         0         0
         0         0         0         0         0         0         0         0
         0         0         0         0         0         0         0         0
         0         0         0         0         0         0         0         0
         0         0         0         0         0         0         0         0
         0         0         0         0         0         0         0         0
         0         0         0         0         0         0         0         0
         0         0         0         0         0         0         0         0
         0         0         0         0         0         0         0         0
         0         0         0         0         0         0         0         0
         0         0         0         0         0         0         0         0
         0         0         0         0         0         0         0         0
         0         0         0         0         0         0         0         0
         0         0         0         0         0         0         0         0
         0         0         0         0         0         0         0         0
         0         0         0         0         0         0         0         0
         0         0         0         0         0         0         0         0
         0         0         0         0         0         0         0         0
         0         0         0         0         0         0         0         0
         0         0         0         0         0         0         0         0
         0         0         0         0         0         0         0         0
         0         0         0         0         0         0         0         0
         0         0         0         0         0         0         0         0
         0         0         0         0         0         0         0         0
         0         0         0         0         0         0         0         0
         0         0         0         0         0         0         0         0
         0         0         0         0         0         0         0         0
         0         0         0         0         0         0         0         0
         0         0         0         0         0         0         0         0
         0         0         0         0         0         0         0         0
         0         0         0         0         0         0         0         0
         0         0         0         0         0         0         0         0
         0         0         0         0         0         0         0         0
         0         0         0         0         0         0         0         0
         0         0         0         0         0         0         0         0
         0         0         0         0         0         0         0         0
         0         0         0         0         0         0         0         0
         0         0         0         0         0         0         0         0
         0         0         0         0         0         0         0         0
         0         0         0         0         0         0         0         0
         0         0         0         0         0         0         0         0
         0         0         0         0         0         0         0         0
         0         0         0         0         0         0         0         0
         0         0         0         0         0         0         0         0
         0         0         0         0         0         0         0         0
         0         0         0         0         0         0         0         0
         0         0         0         0         0         0         0         0
         0         0         0         0         0         0         0         0
         0         0         0         0         0         0         0         0
         0         0         0         0         0         0         0         0
         0         0         0         0         0         0         0         0
         0         0         0         0         0         0         0         0
         0         0         0         0         0         0         0         0
         0         0         0         0         0         0         0         0
         0         0         0         0         0         0         0         0
         0         0         0         0         0         0         0         0
         0         0         0         0         0         0         0         0
         0         0         0         0         0         0         0         0
         0         0         0         0         0         0         0         0
         0         0         0         0         0         0         0         0
         0         0         0         0         0         0         0         0
         0         0         0         0         0         0         0         0
         0         0         0         0         0         0         0         0
         0         0         0         0         0         0         0         0
         0         0         0         0         0         0         0         0
         0         0         0         0         0         0         0         0
         0         0         0         0         0         0         0         0
         0         0         0         0         0         0         0         0
         0         0         0         0         0         0         0         0
         0         0         0         0         0         0         0         0
         0         0         0         0         0         0         0         0
         0         0         0         0         0         0         0         0
         0         0         0         0         0         0         0         0
         0         0         0         0         0         0         0         0
         0         0         0         0         0         0         0         0
         0         0         0         0         0         0         0         0
         0         0         0         0         0         0         0         0
         0         0         0         0         0         0         0         0
         0         0         0         0         0         0         0         0
         0         0         0         0         0         0         0         0
         0         0         0         0         0         0         0         0
         0         0         0         0         0         0         0         0
         0         0         0         0         0         0         0         0
         0         0         0         0         0         0         0         0
         0         0         0         0         0         0         0         0
         0         0         0         0         0         0         0         0
         0         0         0         0         0         0         0         0
         0         0         0         0         0         0         0         0
         0         0         0         0         0         0         0         0
         0         0         0         0         0         0         0         0
         0         0         0         0         0         0         0         0
         0         0         0         0         0         0         0         0
         0         0         0         0         0         0         0         0
         0         0         0         0         0         0         0         0
         0         0         0         0         0         0         0         0
         0         0         0         0         0         0         0         0
         0         0         0         0         0         0         0         0
         0         0         0         0         0         0         0         0
         0         0         0         0         0         0         0         0
         0         0         0         0         0         0         0         0
         0         0         0         0         0         0         0         0
         0         0         0         0         0         0         0         0
         0         0         0         0         0         0         0         0
         0         0         0         0         0         0         0         0
         0         0         0         0         0         0         0         0
         0         0         0         0         0         0         0         0
         0         0         0         0         0         0         0         0
         0         0         0         0         0         0         0         0
         0         0         0         0         0         0         0         0
         0         0         0         0         0         0         0         0
         0         0         0         0         0         0         0         0
         0         0         0         0         0         0         0         0
         0         0         0         0         0         0         0         0
         0         0         0         0         0         0         0         0
         0         0         0         0         0         0         0         0
         0         0         0         0         0         0         0         0
         0         0         0         0         0         0         0         0
         0         0         0         0         0         0         0         0
         0         0         0         0         0         0         0         0
         0         0         0         0         0         0         0         0
         0         0         0         0         0         0         0         0
         0         0         0         0         0         0         0         0
         0         0         0         0         0         0         0         0
         0         0         0         0         0         0         0         0
         0         0         0         0         0         0         0         0
         0         0         0         0         0         0         0         0
         0         0         0         0         0         0         0         0
         0         0         0         0         0         0         0         0
         0         0         0         0         0         0         0         0
         0         0         0         0         0         0         0         0
         0         0         0         0         0         0         0         0
         0         0         0         0         0         0         0         0
         0         0         0         0         0         0         0         0
         0         0         0         0         0         0         0         0
         0         0         0         0         0         0         0         0
         0         0         0         0         0         0         0         0
         0         0         0         0         0         0         0         0
         0         0         0         0         0         0         0         0
         0         0         0         0         0         0         0         0
         0         0         0         0         0         0         0         0
         0         0         0         0         0         0         0         0
         0         0         0         0         0         0         0         0
         0         0         0         0         0         0         0         0
         0         0         0         0         0         0         0         0
         0         0         0         0         0         0         0         0
         0         0         0         0         0         0         0         0
         0         0         0         0         0         0         0         0
         0         0         0         0         0         0         0         0
         0         0         0         0         0         0         0         0
         0         0         0         0         0         0         0         0
         0         0         0         0         0         0         0         0
         0         0         0         0         0         0         0         0
         0         0         0         0         0         0         0         0
         0         0         0         0         0         0         0         0
         0         0         0         0         0         0         0         0
         0         0         0         0         0         0         0         0
         0         0         0         0         0         0         0         0
         0         0         0         0         0         0         0         0
         0         0         0         0         0         0         0         0
         0         0         0         0         0         0         0         0
         0         0         0         0         0         0         0         0
         0         0         0         0         0         0         0         0
         0         0         0         0         0         0         0         0
         0         0         0         0         0         0         0         0
         0         0         0         0         0         0         0         0
         0         0         0         0         0         0         0         0
         0         0         0         0         0         0         0         0
         0         0         0         0         0         0         0         0
         0         0         0         0         0         0         0         0
         0         0         0         0         0         0         0         0
         0         0         0         0         0         0         0         0
         0         0         0         0         0         0         0         0
         0         0         0         0         0         0         0         0
         0         0         0         0         0         0         0         0
         0         0         0         0         0         0         0         0
         0         0         0         0         0         0         0         0
         0         0         0         0         0         0         0         0
         0         0         0         0         0         0         0         0
         0         0         0         0         0         0         0         0
         0         0         0         0         0         0         0         0
         0         0         0         0         0         0         0         0
         0         0         0         0         0         0         0         0
         0         0         0         0         0         0         0         0
         0         0         0         0         0         0         0         0
         0         0         0         0         0         0         0         0
         0         0         0         0         0         0         0         0
         0         0         0         0         0         0         0         0
         0         0         0         0         0         0         0         0
         0         0         0         0         0         0         0         0
         0         0         0         0         0         0         0         0
         0         0         0         0         0         0         0         0
         0         0         0         0         0         0         0         0
         0         0         0         0         0         0         0         0
         0         0         0         0         0         0         0         0
         0         0         0         0         0         0         0         0
         0         0         0         0         0         0         0         0
         0         0         0         0         0         0         0         0
         0         0         0         0         0         0         0         0
         0         0         0         0         0         0         0         0
         0         0         0         0         0         0         0         0
         0         0         0         0         0         0         0         0
         0         0         0         0         0         0         0         0
         0         0         0         0         0         0         0         0
         0         0         0         0         0         0         0         0
         0         0         0         0         0         0         0         0
         0         0         0         0         0         0         0         0
         0         0         0         0         0         0         0         0
         0         0         0         0         0         0         0         0
         0         0         0         0         0         0         0         0
         0         0         0         0         0         0         0         0
         0         0         0         0         0         0         0         0
         0         0         0         0         0         0         0         0
         0         0         0         0         0         0         0         0
         0         0         0         0         0         0         0         0
         0         0         0         0         0         0         0         0
         0         0         0         0         0         0         0         0
         0         0         0         0         0         0         0         0
         0         0         0         0         0         0         0         0
         0         0         0         0         0         0         0         0
         0         0         0         0         0         0         0         0
         0         0         0         0         0         0         0         0
         0         0         0         0         0         0         0         0
         0         0         0         0         0         0         0         0
         0         0         0         0         0         0         0         0
         0         0         0         0         0         0         0         0
         0         0         0         0         0         0         0         0
         0         0         0         0         0         0         0         0
         0         0         0         0         0         0         0         0
         0         0         0         0         0         0         0         0
         0         0         0         0         0         0         0         0
         0         0         0         0         0         0         0         0
         0         0         0         0         0         0         0         0
         0         0         0         0         0         0         0         0
         0         0         0         0         0         0         0         0
         0         0         0         0         0         0         0         0
         0         0         0         0         0         0         0         0
         0         0         0         0         0         0         0         0
         0         0         0         0         0         0         0         0
         0         0         0         0         0         0         0         0
         0         0         0         0         0         0         0         0
         0         0         0         0         0         0         0         0
         0         0         0         0         0         0         0         0
         0         0         0         0         0         0         0         0
         0         0         0         0         0         0         0         0
         0         0         0         0         0         0         0         0
         0         0         0         0         0         0         0         0
         0         0         0         0         0         0         0         0
         0         0         0         0         0         0         0         0
         0         0         0         0         0         0         0         0
         0         0         0         0         0         0         0         0
         0         0         0         0         0         0         0         0
         0         0         0         0         0         0         0         0
         0         0         0         0         0         0         0         0
         0         0         0         0         0         0         0         0
         0         0         0         0         0         0         0         0
         0         0         0         0         0         0         0         0
         0         0         0         0         0         0         0         0
         0         0         0         0         0         0         0         0
         0         0         0         0         0         0         0         0
         0         0         0         0         0         0         0         0
         0         0         0         0         0         0         0         0
         0         0         0         0         0         0         0         0
         0         0         0         0         0         0         0         0
         0         0         0         0         0         0         0         0
         0         0         0         0         0         0         0         0
         0         0         0         0         0         0         0         0
         0         0         0         0         0         0         0         0
         0         0         0         0         0         0         0         0
         0         0         0         0         0         0         0         0
         0         0         0         0         0         0         0         0
         0         0         0         0         0         0         0         0
         0         0         0         0         0         0         0         0
         0         0         0         0         0         0         0         0
         0         0         0         0         0         0         0         0
         0         0         0         0         0         0         0         0
         0         0         0         0         0         0         0         0
         0         0         0         0         0         0         0         0
         0         0         0         0         0         0         0         0
         0         0         0         0         0         0         0         0
         0         0         0         0         0         0         0         0
         0         0         0         0         0         0         0         0
         0         0         0         0         0         0         0         0
         0         0         0         0         0         0         0         0
         0         0         0         0         0         0         0         0
         0         0         0         0         0         0         0         0
         0         0         0         0         0         0         0         0
         0         0         0         0         0         0         0         0
         0         0         0         0         0         0         0         0
         0         0         0         0         0         0         0         0
         0         0         0         0         0         0         0         0
         0         0         0         0         0         0         0         0
         0         0         0         0         0         0         0         0
         0         0         0         0         0         0         0         0
         0         0         0         0         0         0         0         0
         0         0         0         0         0         0         0         0
         0         0         0         0         0         0         0         0
         0         0         0         0         0         0         0         0
         0         0         0         0         0         0         0         0
         0         0         0         0         0         0         0         0
         0         0         0         0         0         0         0         0
         0         0         0         0         0         0         0         0
         0         0         0         0         0         0         0         0
         0         0         0         0         0         0         0         0
         0         0         0         0         0         0         0         0
         0         0         0         0         0         0         0         0
         0         0         0         0         0         0         0         0
         0         0         0         0         0         0         0         0
         0         0         0         0         0         0         0         0
         0         0         0         0         0         0         0         0
         0         0         0         0         0         0         0         0
         0         0         0         0         0         0         0         0
         0         0         0         0         0         0         0         0
         0         0         0         0         0         0         0         0
         0         0         0         0         0         0         0         0
         0         0         0         0         0         0         0         0
         0         0         0         0         0         0         0         0
         0         0         0         0         0         0         0         0
         0         0         0         0         0         0         0         0
         0         0         0         0         0         0         0         0
         0         0         0         0         0         0         0         0
         0         0         0         0         0         0         0         0
         0         0         0         0         0         0

         0         0 !NGRP NST2


         0         0 !NUMLP NUMLPH

         0 !NCRTERM: cross-terms

